Title
81374
    1CHL1    C3    1   2.144   5.048  10.363  0.1078  0.8796  0.6164
    1CHL1    H3    2   2.176   5.117  10.283 -2.9595 -0.3042 -1.7410
    1CHL1    O3    3   2.223   5.049  10.476  0.0678 -0.3044 -0.3268
    1CHL1   H3'    4   2.309   5.011  10.458  1.3990  2.5399 -0.2034
    1CHL1    C4    5   1.989   5.045  10.392  0.0255  0.7937  0.6791
    1CHL1   H4A    6   1.990   4.966  10.470 -0.2884 -1.9217 -1.9980
    1CHL1   H4B    7   1.958   5.145  10.430  0.2365  1.4140 -0.7696
    1CHL1    C5    8   1.901   5.009  10.275 -0.3523  0.3195 -0.6349
    1CHL1    C6    9   1.810   5.089  10.229 -0.8906 -0.4675 -0.5258
    1CHL1    H6   10   1.794   5.185  10.279  1.2417  0.8167 -2.2173
    1CHL1    C7   11   1.731   5.070  10.103  0.4811  0.1065 -0.1792
    1CHL1   H7A   12   1.623   5.084  10.125  0.7897  2.2034  0.0771
    1CHL1   H7B   13   1.768   5.151  10.037 -0.4787  0.8451  0.1807
    1CHL1    C8   14   1.741   4.935  10.034 -0.6703 -1.0986 -0.2427
    1CHL1    H8   15   1.674   4.864  10.085 -2.8240  1.5939  0.8167
    1CHL1   C14   16   1.690   4.936   9.888  0.0028 -0.6371  0.3115
    1CHL1   H14   17   1.759   4.997   9.826 -1.6921  2.6616  1.5454
    1CHL1   C15   18   1.551   5.000   9.870  0.1843  0.3703 -0.4181
    1CHL1  H15A   19   1.485   4.971   9.955  2.9851  0.2286  1.7627
    1CHL1  H15B   20   1.548   5.111   9.871 -0.9671  0.3818 -1.9787
    1CHL1   C16   21   1.523   4.948   9.735 -0.6471  0.0856 -0.9117
    1CHL1  H16A   22   1.421   4.902   9.741 -1.0970  1.0556 -1.0323
    1CHL1  H16B   23   1.521   5.033   9.663 -0.4123 -0.8835 -2.0930
    1CHL1   C17   24   1.628   4.833   9.686 -0.2198 -0.5803 -0.4754
    1CHL1   H17   25   1.703   4.888   9.625  0.3037 -0.8476 -0.0715
    1CHL1   C13   26   1.686   4.798   9.822 -0.0500  0.2461  0.1106
    1CHL1   C18   27   1.592   4.701   9.892 -0.1219 -0.0047  0.0523
    1CHL1  H18A   28   1.596   4.605   9.837 -2.5989 -1.9594  3.0395
    1CHL1  H18B   29   1.622   4.669   9.994  0.7144  0.3324 -0.0915
    1CHL1  H18C   30   1.490   4.745   9.904 -0.3722 -0.2518 -1.0971
    1CHL1   C12   31   1.833   4.745   9.812  0.0015 -0.1417  0.0729
    1CHL1  H12A   32   1.845   4.644   9.767 -2.5041 -1.3388  1.9800
    1CHL1  H12B   33   1.877   4.813   9.737 -1.3894  0.7796  0.0682
    1CHL1   C11   34   1.904   4.749   9.951 -0.1496 -0.5749  0.0053
    1CHL1  H11A   35   1.870   4.667  10.017 -2.3775  1.9701  2.1588
    1CHL1  H11B   36   2.013   4.746   9.933  0.2491  2.8264  1.3831
    1CHL1    C9   37   1.887   4.884  10.038 -0.0304 -0.7065  0.2105
    1CHL1    H9   38   1.942   4.964   9.984  1.0315  0.0798  2.3485
    1CHL1   C10   39   1.942   4.890  10.184 -0.0209 -0.3032  0.3221
    1CHL1   C19   40   1.896   4.754  10.249  0.8305  0.0913  0.6782
    1CHL1  H19A   41   1.948   4.664  10.210  1.0994 -0.3009  1.9251
    1CHL1  H19B   42   1.910   4.765  10.358 -0.7343  0.9667  0.8038
    1CHL1  H19C   43   1.788   4.738  10.232  0.8846 -0.1561  0.5665
    1CHL1    C1   44   2.098   4.899  10.172 -0.1127  0.1193  0.0015
    1CHL1   H1A   45   2.133   4.816  10.108  1.1054  0.4199  0.2619
    1CHL1   H1B   46   2.133   4.986  10.113  2.2503  0.1271  1.3342
    1CHL1    C2   47   2.178   4.911  10.298  0.2861 -0.0088  0.1204
    1CHL1   H2A   48   2.286   4.915  10.271  0.5744 -0.4866  1.1863
    1CHL1   H2B   49   2.148   4.823  10.359 -0.7614 -1.0860 -1.9135
    1CHL1   C20   50   1.564   4.731   9.597  0.3816 -0.3030 -0.3207
    1CHL1   H20   51   1.486   4.675   9.653  1.6295 -0.1092  1.6713
    1CHL1   C21   52   1.661   4.632   9.537  0.0293  0.0244 -0.2485
    1CHL1  H21A   53   1.702   4.579   9.625 -0.6340  1.3283  0.8538
    1CHL1  H21B   54   1.751   4.681   9.492  0.1858  0.1226  0.1725
    1CHL1  H21C   55   1.603   4.559   9.477 -1.6021  0.2529  1.0324
    1CHL1   C22   56   1.476   4.800   9.487 -0.4747  0.3239  0.2123
    1CHL1  H22A   57   1.424   4.722   9.428 -0.1923 -0.1054  0.5336
    1CHL1  H22B   58   1.401   4.871   9.528  1.9098  0.8925  3.8414
    1CHL1   C23   59   1.561   4.881   9.377  0.2193  0.2329 -0.2729
    1CHL1  H23A   60   1.577   4.977   9.432 -0.4335 -0.3277  0.9162
    1CHL1  H23B   61   1.661   4.833   9.368  1.0474  1.8432  0.1339
    1CHL1   C24   62   1.485   4.909   9.240  0.2608  0.0668 -0.0721
    1CHL1  H24A   63   1.448   4.810   9.207  2.5127  0.1575 -3.0616
    1CHL1  H24B   64   1.399   4.971   9.274 -0.2329 -0.0030 -1.1813
    1CHL1   C25   65   1.575   4.979   9.140  0.0818  0.1735 -0.4920
    1CHL1   H25   66   1.635   5.048   9.204 -0.1577  0.9352 -1.0861
    1CHL1   C26   67   1.665   4.876   9.065  0.3169 -0.6331  0.2496
    1CHL1  H26A   68   1.626   4.776   9.035  0.9831 -0.5281 -0.9977
    1CHL1  H26B   69   1.703   4.923   8.972  2.9998 -1.6328  0.7831
    1CHL1  H26C   70   1.745   4.848   9.137 -0.8054 -1.0464  1.3516
    1CHL1   C27   71   1.484   5.046   9.038  0.2593 -0.0629  0.1389
    1CHL1  H27A   72   1.544   5.091   8.956 -0.6789  1.3362  0.1996
    1CHL1  H27B   73   1.418   4.969   8.993 -0.6661 -0.9273  2.8694
    1CHL1  H27C   74   1.427   5.131   9.082  1.5362 -0.8650  3.5177
    2CHL1    C3   75   2.773   2.674   9.993  0.6636 -0.2739 -0.1855
    2CHL1    H3   76   2.862   2.612   9.968  1.7276  1.0332  0.3216
    2CHL1    O3   77   2.766   2.699  10.136  0.3332 -0.1029  0.0874
    2CHL1   H3'   78   2.783   2.611  10.172 -0.6244 -0.3612 -0.0636
    2CHL1    C4   79   2.775   2.809   9.908  0.5404  0.7238 -0.5965
    2CHL1   H4A   80   2.694   2.873   9.950 -0.1502 -1.7337  2.0024
    2CHL1   H4B   81   2.869   2.858   9.941  1.7435 -1.8421 -0.0877
    2CHL1    C5   82   2.764   2.782   9.765 -0.2143  0.3256  0.0714
    2CHL1    C6   83   2.855   2.823   9.677 -0.2175 -0.2963 -0.1947
    2CHL1    H6   84   2.942   2.881   9.712 -0.7943  0.8957 -0.7028
    2CHL1    C7   85   2.846   2.804   9.527  0.6191  0.1610  0.3321
    2CHL1   H7A   86   2.879   2.897   9.475 -1.0460  0.6792  0.1676
    2CHL1   H7B   87   2.904   2.719   9.487  1.3043  1.7645 -2.2219
    2CHL1    C8   88   2.706   2.775   9.473  0.0372 -0.2216 -0.2784
    2CHL1    H8   89   2.649   2.870   9.481 -2.4996 -1.5383 -2.1930
    2CHL1   C14   90   2.711   2.722   9.333  0.6421  0.2704  0.2159
    2CHL1   H14   91   2.777   2.633   9.331 -0.7737 -0.8248  1.1376
    2CHL1   C15   92   2.785   2.807   9.229  1.0277 -0.2415 -0.2728
    2CHL1  H15A   93   2.738   2.908   9.239  0.7809 -0.5901  2.7215
    2CHL1  H15B   94   2.895   2.808   9.243  0.9739 -3.3882  0.6768
    2CHL1   C16   95   2.740   2.725   9.100  0.1150 -0.0946  0.8762
    2CHL1  H16A   96   2.698   2.790   9.021  0.8649  1.0333  1.3851
    2CHL1  H16B   97   2.823   2.668   9.053 -1.5091 -1.3034 -0.5788
    2CHL1   C17   98   2.630   2.618   9.141 -0.0635 -1.1618  0.1245
    2CHL1   H17   99   2.678   2.521   9.165 -1.0180 -1.9369 -1.0719
    2CHL1   C13  100   2.580   2.680   9.276 -0.1963  0.8399  0.2640
    2CHL1   C18  101   2.492   2.802   9.239 -0.7271  0.2051 -0.1585
    2CHL1  H18A  102   2.484   2.866   9.329  0.2719  0.1021  0.0110
    2CHL1  H18B  103   2.527   2.869   9.157  1.8666  1.4463  1.8870
    2CHL1  H18C  104   2.389   2.768   9.216  0.0154 -0.9063 -1.9542
    2CHL1   C12  105   2.513   2.584   9.376  0.2513 -0.1315  0.2533
    2CHL1  H12A  106   2.418   2.551   9.329  2.1788 -1.2355 -3.0918
    2CHL1  H12B  107   2.575   2.493   9.384  0.6059  0.3317  3.3199
    2CHL1   C11  108   2.501   2.634   9.521  1.0697  0.2902 -0.6190
    2CHL1  H11A  109   2.431   2.720   9.524  0.2950 -0.3340 -0.6072
    2CHL1  H11B  110   2.457   2.555   9.586  1.8473  1.2687  1.1405
    2CHL1    C9  111   2.640   2.675   9.571 -0.0940  0.1520  0.1650
    2CHL1    H9  112   2.708   2.588   9.556  0.6633  0.8322 -0.4205
    2CHL1   C10  113   2.629   2.707   9.723  0.0141 -0.1081 -0.1963
    2CHL1   C19  114   2.514   2.809   9.750  0.6970 -0.0896  0.1173
    2CHL1  H19A  115   2.411   2.771   9.731 -0.0002  0.5651  2.4227
    2CHL1  H19B  116   2.513   2.823   9.860 -0.3487 -0.0245  0.1076
    2CHL1  H19C  117   2.519   2.903   9.691 -1.9622 -0.1045 -0.2105
    2CHL1    C1  118   2.617   2.575   9.809 -0.0420 -0.1292 -0.6009
    2CHL1   H1A  119   2.513   2.538   9.797  0.3155 -2.9584  3.6928
    2CHL1   H1B  120   2.692   2.501   9.773 -0.8439 -1.2962  0.0966
    2CHL1    C2  121   2.644   2.598   9.960 -0.4915  0.3464 -0.3024
    2CHL1   H2A  122   2.638   2.499  10.011  1.2022  1.4208  2.0964
    2CHL1   H2B  123   2.562   2.661   9.998 -0.7859 -0.7053  0.8353
    2CHL1   C20  124   2.536   2.596   9.024 -0.1264  0.1226  0.3922
    2CHL1   H20  125   2.503   2.699   9.001  0.4330 -0.0484 -1.1987
    2CHL1   C21  126   2.414   2.519   9.060  0.2317 -0.0409  0.3612
    2CHL1  H21A  127   2.358   2.584   9.131 -1.3628  0.4679 -1.3284
    2CHL1  H21B  128   2.436   2.420   9.105  0.5177  1.0278  2.6319
    2CHL1  H21C  129   2.347   2.512   8.972 -0.2157 -0.1998  0.7127
    2CHL1   C22  130   2.609   2.542   8.893  0.1831  0.2637  0.1430
    2CHL1  H22A  131   2.528   2.557   8.818  0.4024  0.8657  0.0269
    2CHL1  H22B  132   2.693   2.608   8.866 -1.7614  2.3692 -0.9278
    2CHL1   C23  133   2.641   2.388   8.895 -0.1151 -0.3045  0.1403
    2CHL1  H23A  134   2.706   2.376   8.985  1.1878 -3.1699 -1.1294
    2CHL1  H23B  135   2.545   2.333   8.900 -0.2835  0.1028  1.5818
    2CHL1   C24  136   2.717   2.344   8.771  0.2995 -0.0743  0.0585
    2CHL1  H24A  137   2.646   2.354   8.686 -1.5699 -2.9966  1.2260
    2CHL1  H24B  138   2.798   2.418   8.751 -1.2819  1.6052 -0.2339
    2CHL1   C25  139   2.757   2.194   8.773 -0.3122 -0.4926 -0.9157
    2CHL1   H25  140   2.667   2.146   8.728 -1.0221  0.4121 -0.4905
    2CHL1   C26  141   2.871   2.160   8.681  0.2925 -0.3767 -0.3059
    2CHL1  H26A  142   2.884   2.052   8.661 -0.5725 -0.2773 -1.4239
    2CHL1  H26B  143   2.838   2.212   8.589 -0.1949 -0.2756 -0.0765
    2CHL1  H26C  144   2.968   2.202   8.716 -1.0860  1.9217  0.8416
    2CHL1   C27  145   2.788   2.142   8.909 -0.0315  0.0937 -0.1893
    2CHL1  H27A  146   2.868   2.200   8.961  1.6051 -2.4830  0.2679
    2CHL1  H27B  147   2.705   2.137   8.982  0.1321 -0.7753 -0.0601
    2CHL1  H27C  148   2.831   2.042   8.886  0.3851  0.4709 -1.0599
    3CHL1    C3  149   3.152   2.485  10.246 -0.1703 -0.5432  0.9136
    3CHL1    H3  150   3.063   2.551  10.249  0.0933 -0.1496  0.1609
    3CHL1    O3  151   3.194   2.461  10.376  0.4713  0.3024  0.0838
    3CHL1   H3'  152   3.278   2.416  10.370  0.7202  0.5957  1.3295
    3CHL1    C4  153   3.128   2.350  10.182 -1.0013 -0.2984  0.4489
    3CHL1   H4A  154   3.211   2.279  10.199 -2.5332 -2.0576  0.6968
    3CHL1   H4B  155   3.042   2.295  10.225 -1.8469 -0.2011 -1.0719
    3CHL1    C5  156   3.103   2.380  10.037 -1.0704  0.2159  0.1214
    3CHL1    C6  157   2.986   2.344   9.986 -0.0025  0.2152  0.1869
    3CHL1    H6  158   2.911   2.293  10.048  1.6547 -2.2031  0.2797
    3CHL1    C7  159   2.966   2.354   9.839  0.2168  0.6370 -0.4758
    3CHL1   H7A  160   2.903   2.268   9.806  2.1833 -1.1824  0.3659
    3CHL1   H7B  161   2.900   2.443   9.830  0.4438  0.8857  0.3181
    3CHL1    C8  162   3.084   2.388   9.746 -0.7756  0.4347  0.0996
    3CHL1    H8  163   3.149   2.299   9.737 -0.3334  0.6296  1.2175
    3CHL1   C14  164   3.042   2.444   9.612  0.5264 -0.6992 -0.0678
    3CHL1   H14  165   2.999   2.543   9.638  0.2182 -1.1188  1.0534
    3CHL1   C15  166   2.929   2.367   9.540 -0.2006  0.5966  0.2174
    3CHL1  H15A  167   2.938   2.259   9.563 -0.9615  0.5523  0.3143
    3CHL1  H15B  168   2.827   2.403   9.566 -0.1941 -1.1711  2.8469
    3CHL1   C16  169   2.962   2.402   9.385  0.4211 -0.2047 -0.9323
    3CHL1  H16A  170   2.979   2.299   9.347  0.8671 -0.8222  0.9096
    3CHL1  H16B  171   2.864   2.433   9.342 -0.9921 -0.9885  1.6312
    3CHL1   C17  172   3.086   2.496   9.379 -0.4764  0.5505  0.3019
    3CHL1   H17  173   3.049   2.600   9.391  0.1045  1.1089 -2.5900
    3CHL1   C13  174   3.155   2.477   9.515  0.6493  0.2555  0.0634
    3CHL1   C18  175   3.256   2.358   9.495 -0.3894 -0.5417 -0.4030
    3CHL1  H18A  176   3.292   2.325   9.595 -0.4326 -1.0893 -0.5679
    3CHL1  H18B  177   3.210   2.277   9.434 -1.8260 -1.6311  2.0384
    3CHL1  H18C  178   3.347   2.397   9.445  0.5862  1.5505  2.8492
    3CHL1   C12  179   3.229   2.597   9.587  0.2590 -0.2572 -0.1354
    3CHL1  H12A  180   3.311   2.626   9.518  0.8677  0.8044  1.0155
    3CHL1  H12B  181   3.163   2.687   9.594  2.2158  1.1810  0.2167
    3CHL1   C11  182   3.284   2.557   9.722 -0.6882 -0.3668  0.2629
    3CHL1  H11A  183   3.370   2.489   9.703 -0.3849 -0.1101  0.6841
    3CHL1  H11B  184   3.325   2.646   9.775 -0.2355 -0.2693 -0.2548
    3CHL1    C9  185   3.175   2.493   9.816 -0.4730  0.2938 -0.4975
    3CHL1    H9  186   3.103   2.574   9.839 -1.7277 -0.9750  0.1179
    3CHL1   C10  187   3.216   2.449   9.958  0.2855 -0.2488  0.2920
    3CHL1   C19  188   3.328   2.357   9.947 -0.6437  0.3319 -0.7024
    3CHL1  H19A  189   3.408   2.415   9.896  0.9476  0.4735  1.9147
    3CHL1  H19B  190   3.377   2.337  10.044 -0.0590  1.3782 -0.7737
    3CHL1  H19C  191   3.314   2.265   9.885  1.7998  0.3876 -1.3862
    3CHL1    C1  192   3.254   2.579  10.035 -0.3065  0.0020 -0.4531
    3CHL1   H1A  193   3.347   2.618   9.989 -1.1533  0.9346 -1.3816
    3CHL1   H1B  194   3.175   2.657  10.027  0.6602  0.9842 -0.5436
    3CHL1    C2  195   3.272   2.557  10.190  0.4220  0.5055  0.4448
    3CHL1   H2A  196   3.292   2.656  10.237  0.6109  0.4340  0.5157
    3CHL1   H2B  197   3.365   2.496  10.192  0.3415  0.4063  2.4933
    3CHL1   C20  198   3.159   2.499   9.243 -0.1918  0.0666  0.2691
    3CHL1   H20  199   3.205   2.402   9.214  0.6653  0.6303 -0.2800
    3CHL1   C21  200   3.279   2.605   9.253 -0.4645 -0.3445  0.6869
    3CHL1  H21A  201   3.363   2.569   9.315  1.1687 -0.8283 -1.7350
    3CHL1  H21B  202   3.240   2.699   9.298 -3.0743  0.9355 -3.9411
    3CHL1  H21C  203   3.326   2.635   9.157 -0.7049 -0.4479  0.5365
    3CHL1   C22  204   3.061   2.546   9.136 -0.7337  0.8069 -0.0604
    3CHL1  H22A  205   2.989   2.462   9.127  0.0189  0.0903  0.5270
    3CHL1  H22B  206   3.007   2.641   9.158 -1.2721  0.4730  0.0690
    3CHL1   C23  207   3.121   2.569   8.992 -0.0882 -1.0559 -0.6362
    3CHL1  H23A  208   3.214   2.630   9.000  0.6397 -2.3170  0.6290
    3CHL1  H23B  209   3.149   2.467   8.958  0.4044 -1.1608  0.0745
    3CHL1   C24  210   3.026   2.638   8.893  0.1903 -0.1445 -0.2709
    3CHL1  H24A  211   2.938   2.571   8.887  0.8027 -0.9667 -0.1777
    3CHL1  H24B  212   2.994   2.734   8.939 -0.1256 -0.8675  1.0342
    3CHL1   C25  213   3.064   2.640   8.743 -0.1684  0.7640 -0.0717
    3CHL1   H25  214   3.155   2.701   8.725 -1.0085  1.4256 -2.2106
    3CHL1   C26  215   3.090   2.497   8.688  0.5695 -0.1372  0.3729
    3CHL1  H26A  216   3.179   2.454   8.738  0.3159 -2.6539 -1.2471
    3CHL1  H26B  217   3.004   2.433   8.718  0.7496  0.3141  1.8920
    3CHL1  H26C  218   3.094   2.494   8.577  0.1715  0.4760  0.3388
    3CHL1   C27  219   2.954   2.715   8.667 -0.1635  0.2594  0.1654
    3CHL1  H27A  220   3.003   2.749   8.573  0.2771 -0.3759  0.1605
    3CHL1  H27B  221   2.860   2.658   8.653 -0.0212  0.3556 -1.2233
    3CHL1  H27C  222   2.925   2.802   8.729 -2.0902 -1.5544  1.8835
    4CHL1    C3  223   3.112   4.688  10.627 -0.6156  1.1970  0.2756
    4CHL1    H3  224   3.042   4.603  10.634  0.4110 -0.0198 -3.0266
    4CHL1    O3  225   3.132   4.742  10.758 -0.4382 -0.2290 -0.0904
    4CHL1   H3'  226   3.131   4.665  10.815 -0.0732 -1.0710 -1.1978
    4CHL1    C4  227   3.247   4.646  10.563 -0.9240  0.5733  0.3220
    4CHL1   H4A  228   3.316   4.733  10.559  0.9400 -0.8431  1.0012
    4CHL1   H4B  229   3.298   4.580  10.637  0.2465 -1.0564 -1.8744
    4CHL1    C5  230   3.232   4.595  10.417  0.9443 -0.6025  0.9500
    4CHL1    C6  231   3.271   4.475  10.379  0.7764  0.5011 -0.5094
    4CHL1    H6  232   3.317   4.409  10.454  0.7998  0.4966 -0.5278
    4CHL1    C7  233   3.275   4.423  10.243 -0.2914 -0.0675  0.0115
    4CHL1   H7A  234   3.375   4.381  10.222 -0.9781 -0.9472 -1.5952
    4CHL1   H7B  235   3.197   4.346  10.225  2.3916 -3.6868  3.2935
    4CHL1    C8  236   3.249   4.540  10.140  0.4289  0.0212 -0.4698
    4CHL1    H8  237   3.343   4.599  10.141  0.8730 -0.6904  0.2522
    4CHL1   C14  238   3.227   4.484  10.006 -0.1596 -0.7834 -0.5168
    4CHL1   H14  239   3.129   4.432  10.004 -0.3304 -0.7024  2.8590
    4CHL1   C15  240   3.334   4.399   9.948 -0.0370 -0.1679  0.4342
    4CHL1  H15A  241   3.435   4.441   9.964 -0.6027  1.1712  0.5419
    4CHL1  H15B  242   3.334   4.296   9.991  1.4848 -0.6284 -0.6184
    4CHL1   C16  243   3.308   4.402   9.798 -0.0035  0.2569 -0.3145
    4CHL1  H16A  244   3.405   4.425   9.750  1.4608 -0.9448  1.9863
    4CHL1  H16B  245   3.262   4.304   9.774  0.8335 -0.3845  0.6525
    4CHL1   C17  246   3.212   4.514   9.771  0.3284 -0.6985 -0.3220
    4CHL1   H17  247   3.112   4.468   9.758  0.1420 -0.2214 -0.6050
    4CHL1   C13  248   3.220   4.597   9.899  0.0088 -0.5640  0.4274
    4CHL1   C18  249   3.341   4.695   9.892  0.6290  0.0555  0.1119
    4CHL1  H18A  250   3.434   4.637   9.874  2.0650  2.3243  0.1230
    4CHL1  H18B  251   3.333   4.764   9.806 -0.9895 -0.5611 -0.2657
    4CHL1  H18C  252   3.349   4.754   9.986  1.3194 -1.8712  1.2998
    4CHL1   C12  253   3.086   4.673   9.940  0.6142  0.0023  0.3080
    4CHL1  H12A  254   3.074   4.752   9.863  0.9248 -1.5396 -1.3612
    4CHL1  H12B  255   2.998   4.606   9.925  0.4387  0.5897 -1.4202
    4CHL1   C11  256   3.099   4.736  10.076  0.1657 -0.0898 -0.0004
    4CHL1  H11A  257   3.173   4.819  10.074 -0.2642  0.2724 -1.5709
    4CHL1  H11B  258   3.005   4.784  10.112 -0.5822 -1.9172  0.5477
    4CHL1    C9  259   3.133   4.632  10.183  0.3299 -0.0219 -0.0527
    4CHL1    H9  260   3.046   4.565  10.200  1.6151 -1.4406  1.0387
    4CHL1   C10  261   3.168   4.693  10.320 -0.5950 -0.4897 -0.4009
    4CHL1   C19  262   3.266   4.810  10.298  0.2905  0.8957  0.3099
    4CHL1  H19A  263   3.220   4.897  10.245 -0.5294  0.8234  0.8930
    4CHL1  H19B  264   3.321   4.847  10.387 -1.3492  2.1831  0.8262
    4CHL1  H19C  265   3.356   4.775  10.243 -0.4747 -0.5187 -0.0664
    4CHL1    C1  266   3.040   4.752  10.382 -0.0247 -0.9763 -0.0964
    4CHL1   H1A  267   3.004   4.839  10.324 -2.4176 -0.8600  1.4912
    4CHL1   H1B  268   2.965   4.672  10.363  0.5388 -1.2856 -1.0311
    4CHL1    C2  269   3.049   4.799  10.534  0.4241  0.0573  0.3579
    4CHL1   H2A  270   2.946   4.828  10.561 -0.4464 -0.5432 -2.1531
    4CHL1   H2B  271   3.112   4.890  10.544  2.4299 -1.3341  0.8600
    4CHL1   C20  272   3.232   4.576   9.628 -0.1089 -0.0090  0.2422
    4CHL1   H20  273   3.326   4.631   9.608 -0.7007  0.7165 -0.5294
    4CHL1   C21  274   3.116   4.672   9.609  0.4678 -0.0301  0.8486
    4CHL1  H21A  275   3.112   4.703   9.503  2.0485 -0.5675  0.6127
    4CHL1  H21B  276   3.123   4.766   9.667 -3.7068  1.1817 -0.4435
    4CHL1  H21C  277   3.017   4.624   9.624  0.5247  0.3659  2.6137
    4CHL1   C22  278   3.247   4.456   9.531  0.1647  0.5954 -0.4612
    4CHL1  H22A  279   3.346   4.406   9.538  0.8145  2.1796  2.6375
    4CHL1  H22B  280   3.166   4.384   9.557  2.1302 -0.9767  1.4766
    4CHL1   C23  281   3.248   4.501   9.381 -0.1323 -0.1638  0.3363
    4CHL1  H23A  282   3.154   4.551   9.354 -0.3234 -0.4161  0.5304
    4CHL1  H23B  283   3.333   4.571   9.370  0.3993 -1.0220 -1.1619
    4CHL1   C24  284   3.263   4.369   9.288 -0.0565 -0.8857  0.3137
    4CHL1  H24A  285   3.369   4.337   9.296  0.5396  0.7285 -0.7646
    4CHL1  H24B  286   3.204   4.288   9.336  1.2634 -1.1803  1.4660
    4CHL1   C25  287   3.221   4.389   9.142  0.1750  0.3886  0.4624
    4CHL1   H25  288   3.110   4.393   9.140  0.1534  0.0001 -2.3543
    4CHL1   C26  289   3.267   4.525   9.083  0.2157  0.0250  0.2760
    4CHL1  H26A  290   3.280   4.524   8.973 -1.8948 -1.6121 -0.0158
    4CHL1  H26B  291   3.177   4.590   9.089 -0.3445 -0.8625  2.0011
    4CHL1  H26C  292   3.352   4.573   9.134  1.0134  1.0216 -1.9387
    4CHL1   C27  293   3.259   4.275   9.050 -0.2067 -1.1597 -0.3444
    4CHL1  H27A  294   3.368   4.282   9.028 -0.5530  3.1875 -1.1672
    4CHL1  H27B  295   3.231   4.173   9.084 -0.8614 -1.0772 -0.6308
    4CHL1  H27C  296   3.211   4.306   8.955  1.2251  1.7917 -0.1591
    5CHL1    C3  297   3.975   2.004  10.094 -0.2503 -0.0953 -0.9927
    5CHL1    H3  298   4.025   1.919  10.044 -1.4921 -0.6972 -1.2450
    5CHL1    O3  299   4.016   2.005  10.230  0.4742 -0.1417 -0.0821
    5CHL1   H3'  300   4.001   2.091  10.270  0.6501  0.4332 -1.2487
    5CHL1    C4  301   4.025   2.132  10.020 -0.6066  0.3443 -0.0147
    5CHL1   H4A  302   3.985   2.222  10.071  0.1485  1.0597 -0.6748
    5CHL1   H4B  303   4.135   2.125  10.027 -0.4586  0.1710 -2.0991
    5CHL1    C5  304   3.979   2.141   9.876  0.5838  0.0569  0.7349
    5CHL1    C6  305   4.065   2.133   9.776 -0.0763 -0.1520  0.2317
    5CHL1    H6  306   4.173   2.112   9.783 -0.3134 -1.7233 -0.5955
    5CHL1    C7  307   4.019   2.134   9.632  0.0943  0.2873  0.3583
    5CHL1   H7A  308   4.089   2.189   9.566  0.8696  1.5722  2.1975
    5CHL1   H7B  309   4.024   2.029   9.597  1.3081  0.7640 -0.9651
    5CHL1    C8  310   3.871   2.194   9.616  0.0847  0.4609 -0.1483
    5CHL1    H8  311   3.870   2.303   9.639  0.2496  0.9324 -2.2417
    5CHL1   C14  312   3.826   2.167   9.473 -0.1671  0.1828 -0.2996
    5CHL1   H14  313   3.839   2.056   9.472  4.8017  0.6480  0.6270
    5CHL1   C15  314   3.928   2.206   9.362 -0.0624  0.1096  0.4032
    5CHL1  H15A  315   3.972   2.302   9.397  1.8119 -1.6815  3.2402
    5CHL1  H15B  316   3.996   2.122   9.338 -0.5273  0.1031 -0.9274
    5CHL1   C16  317   3.836   2.232   9.242  0.7734  0.0849 -0.2022
    5CHL1  H16A  318   3.828   2.341   9.223  0.0430 -0.0309 -0.5542
    5CHL1  H16B  319   3.868   2.173   9.153  1.1865  1.8563 -1.2618
    5CHL1   C17  320   3.694   2.186   9.285  0.5696 -0.1139 -0.3912
    5CHL1   H17  321   3.695   2.076   9.274  0.4707 -0.3753  1.8872
    5CHL1   C13  322   3.694   2.218   9.433  0.3537 -0.3179  0.8152
    5CHL1   C18  323   3.675   2.372   9.452  0.1213 -0.2943  0.4919
    5CHL1  H18A  324   3.570   2.402   9.432  0.3845 -1.2137 -2.5816
    5CHL1  H18B  325   3.710   2.400   9.553  4.6243  1.2037 -1.3578
    5CHL1  H18C  326   3.735   2.437   9.384 -2.2231 -1.8825 -3.3049
    5CHL1   C12  327   3.591   2.146   9.530  0.0564 -0.9963 -0.3182
    5CHL1  H12A  328   3.490   2.186   9.505  0.1977 -2.3345 -3.3316
    5CHL1  H12B  329   3.575   2.038   9.507  0.1248 -1.0681 -0.0266
    5CHL1   C11  330   3.632   2.161   9.676 -0.3701  0.0149 -0.1941
    5CHL1  H11A  331   3.628   2.267   9.711  2.2680 -0.0234  0.3230
    5CHL1  H11B  332   3.557   2.113   9.744 -0.5265  1.7247  0.8835
    5CHL1    C9  333   3.776   2.121   9.710 -0.6198 -0.0086 -0.7823
    5CHL1    H9  334   3.784   2.013   9.687 -1.2704 -0.5038  1.2054
    5CHL1   C10  335   3.824   2.146   9.858 -0.3024  0.1366  0.2803
    5CHL1   C19  336   3.762   2.275   9.916  0.6853 -0.6742  0.3727
    5CHL1  H19A  337   3.805   2.364   9.865 -1.7457  0.9858  1.0906
    5CHL1  H19B  338   3.651   2.277   9.914  0.6869  0.5649  1.2025
    5CHL1  H19C  339   3.798   2.287  10.020 -1.4958  0.7874  1.0045
    5CHL1    C1  340   3.760   2.027   9.945 -0.1358 -0.7257 -0.4918
    5CHL1   H1A  341   3.656   2.061   9.961  0.3379 -0.0623  1.2517
    5CHL1   H1B  342   3.753   1.941   9.875 -0.0174  0.5909 -2.1427
    5CHL1    C2  343   3.820   1.993  10.087 -0.1012 -0.5098  0.0093
    5CHL1   H2A  344   3.803   1.890  10.126  0.2964 -0.0367  1.4572
    5CHL1   H2B  345   3.777   2.072  10.151  0.3835  0.5972 -1.0092
    5CHL1   C20  346   3.572   2.244   9.197 -0.3662 -0.0946  0.8467
    5CHL1   H20  347   3.548   2.347   9.232  2.3070  0.3445  1.5212
    5CHL1   C21  348   3.457   2.151   9.211 -0.3122  0.7194  0.3438
    5CHL1  H21A  349   3.475   2.057   9.154 -1.9127 -0.0309  1.0312
    5CHL1  H21B  350   3.363   2.191   9.167 -0.6607 -0.7071 -0.2371
    5CHL1  H21C  351   3.438   2.123   9.317  0.3329  0.0282  0.2810
    5CHL1   C22  352   3.616   2.253   9.049 -0.0799 -0.3525  0.2872
    5CHL1  H22A  353   3.699   2.324   9.028  0.1603 -0.2374  1.5756
    5CHL1  H22B  354   3.657   2.151   9.029 -0.6441 -0.7811  1.2712
    5CHL1   C23  355   3.504   2.279   8.950 -0.5260  0.8266  0.2928
    5CHL1  H23A  356   3.427   2.199   8.951  0.7592 -0.4758 -1.3031
    5CHL1  H23B  357   3.473   2.379   8.988 -0.4452  0.8915  0.1897
    5CHL1   C24  358   3.549   2.293   8.796 -0.1258  1.0527  0.2201
    5CHL1  H24A  359   3.629   2.369   8.791 -0.1454  1.0540 -0.0895
    5CHL1  H24B  360   3.601   2.198   8.769  1.3206  1.8076  0.3385
    5CHL1   C25  361   3.433   2.338   8.697  0.2711  0.5004  1.1633
    5CHL1   H25  362   3.401   2.439   8.729 -2.1355 -0.2719  1.3263
    5CHL1   C26  363   3.483   2.365   8.559  0.8438  0.6319  0.3646
    5CHL1  H26A  364   3.565   2.437   8.575  4.0514 -2.5606 -1.0288
    5CHL1  H26B  365   3.529   2.270   8.525  1.8891  0.4174  2.3355
    5CHL1  H26C  366   3.411   2.406   8.485 -0.0841 -2.0043 -0.2572
    5CHL1   C27  367   3.321   2.234   8.688  0.1789 -0.3906  0.6614
    5CHL1  H27A  368   3.361   2.133   8.664 -0.1807  0.3354 -3.3014
    5CHL1  H27B  369   3.268   2.217   8.784 -0.7576 -1.0894  0.0246
    5CHL1  H27C  370   3.248   2.252   8.606  1.2998 -1.4588 -0.5952
    6CHL1    C3  371   1.078   6.552  10.501  0.7824  0.3557  0.2669
    6CHL1    H3  372   1.084   6.653  10.453 -0.9758  0.8696  1.0906
    6CHL1    O3  373   1.077   6.568  10.640  0.2464 -0.2347 -1.2061
    6CHL1   H3'  374   0.992   6.606  10.663  0.8536  0.4120 -0.0103
    6CHL1    C4  375   0.948   6.484  10.453  0.4730 -0.2274 -0.5842
    6CHL1   H4A  376   0.932   6.386  10.504  1.6699 -0.1221 -0.0054
    6CHL1   H4B  377   0.860   6.548  10.476  1.1302  0.6361 -0.4900
    6CHL1    C5  378   0.951   6.458  10.304  0.1207  0.5982  0.7275
    6CHL1    C6  379   0.848   6.495  10.226 -0.0739  0.3503  0.3052
    6CHL1    H6  380   0.760   6.545  10.270  1.0628  2.5313  0.1616
    6CHL1    C7  381   0.839   6.455  10.082  1.0066  1.1887 -0.5642
    6CHL1   H7A  382   0.738   6.409  10.074  0.5899  2.0186 -0.2350
    6CHL1   H7B  383   0.846   6.539  10.010  4.4966 -0.6896 -2.5060
    6CHL1    C8  384   0.941   6.350  10.029  0.3266  0.1796  0.2481
    6CHL1    H8  385   0.913   6.247  10.061 -0.6987 -0.5851 -2.8666
    6CHL1   C14  386   0.954   6.350   9.879 -0.0407  0.5315  0.3484
    6CHL1   H14  387   1.008   6.444   9.853  0.3407  0.2435  0.1140
    6CHL1   C15  388   0.828   6.336   9.793  0.3816 -0.0495 -0.1967
    6CHL1  H15A  389   0.763   6.258   9.838 -2.2785  1.1590 -1.8452
    6CHL1  H15B  390   0.768   6.430   9.783  0.5352  0.2592  1.4861
    6CHL1   C16  391   0.884   6.288   9.662  0.1046  0.4785  0.0004
    6CHL1  H16A  392   0.836   6.191   9.638 -0.6028  0.7891  0.1519
    6CHL1  H16B  393   0.873   6.357   9.575 -1.3483  0.0279 -0.1824
    6CHL1   C17  394   1.037   6.269   9.680  0.0210  0.3395  0.7644
    6CHL1   H17  395   1.071   6.373   9.660  0.4161  0.4940  2.1832
    6CHL1   C13  396   1.051   6.245   9.831  0.7182 -0.0707  0.5585
    6CHL1   C18  397   1.015   6.099   9.865  0.5770  0.3753  0.0360
    6CHL1  H18A  398   1.016   6.083   9.975  2.3142 -2.7343 -0.3758
    6CHL1  H18B  399   0.915   6.070   9.825  0.0599  1.1040  0.7830
    6CHL1  H18C  400   1.080   6.026   9.812 -0.7119  0.0036 -1.0842
    6CHL1   C12  401   1.189   6.292   9.878  0.0117 -0.1031 -0.2349
    6CHL1  H12A  402   1.260   6.222   9.830 -0.3015 -0.3101 -0.3960
    6CHL1  H12B  403   1.214   6.391   9.834 -0.1832  0.9915  2.0371
    6CHL1   C11  404   1.196   6.304  10.030  0.2870  0.9713 -0.6398
    6CHL1  H11A  405   1.188   6.198  10.062 -0.5272  1.1732 -0.1398
    6CHL1  H11B  406   1.291   6.340  10.073  0.5063 -4.2703  3.7919
    6CHL1    C9  407   1.076   6.388  10.093 -0.1048 -0.4346 -0.6204
    6CHL1    H9  408   1.104   6.489  10.058  1.4097 -0.7413 -0.2989
    6CHL1   C10  409   1.076   6.379  10.254  0.3313 -0.4401  0.3412
    6CHL1   C19  410   1.075   6.234  10.309 -0.6358 -0.2392 -0.3481
    6CHL1  H19A  411   1.051   6.233  10.418 -0.8206 -1.4351 -0.3993
    6CHL1  H19B  412   1.003   6.173  10.251 -1.7302  1.2498 -0.5704
    6CHL1  H19C  413   1.177   6.190  10.300 -0.9764 -1.1232  0.0252
    6CHL1    C1  414   1.200   6.449  10.303  0.1919 -0.2839 -0.2798
    6CHL1   H1A  415   1.289   6.389  10.276 -0.9466 -2.4734  0.6793
    6CHL1   H1B  416   1.210   6.547  10.252 -1.4110 -0.0892 -0.2585
    6CHL1    C2  417   1.201   6.475  10.456 -0.1143  0.1451  0.1010
    6CHL1   H2A  418   1.293   6.534  10.479  0.6403 -0.8305 -0.3632
    6CHL1   H2B  419   1.216   6.383  10.517 -1.5922  1.6113  2.7723
    6CHL1   C20  420   1.109   6.172   9.583  0.2733 -0.3639  0.2603
    6CHL1   H20  421   1.169   6.099   9.642  0.8958  0.8297  1.1233
    6CHL1   C21  422   1.216   6.250   9.502  1.1335 -0.5068  0.0107
    6CHL1  H21A  423   1.266   6.178   9.434  2.2042 -0.0349  0.2822
    6CHL1  H21B  424   1.295   6.295   9.565  2.2224  1.8867 -2.9593
    6CHL1  H21C  425   1.161   6.329   9.448  0.3066  0.3404  2.0276
    6CHL1   C22  426   1.024   6.078   9.484  0.5053 -0.2769 -0.0891
    6CHL1  H22A  427   1.099   6.007   9.442  1.0494 -0.1892  0.7159
    6CHL1  H22B  428   0.949   6.023   9.545  1.2740 -1.7606 -0.4671
    6CHL1   C23  429   0.961   6.151   9.362 -0.0260 -0.0932 -0.0794
    6CHL1  H23A  430   0.881   6.222   9.391  1.4688  2.0680 -1.1122
    6CHL1  H23B  431   1.035   6.220   9.316 -0.9631  0.5232 -0.6608
    6CHL1   C24  432   0.904   6.054   9.255  0.0368  0.0065  0.4520
    6CHL1  H24A  433   0.956   5.958   9.235  0.2977  0.0817  0.7796
    6CHL1  H24B  434   0.804   6.020   9.289 -0.0873  2.1011  2.2575
    6CHL1   C25  435   0.884   6.121   9.120  0.5596  0.2691 -0.0007
    6CHL1   H25  436   0.838   6.046   9.052  0.3968  0.0315  0.3693
    6CHL1   C26  437   0.779   6.233   9.118  0.4155 -0.4064  0.4664
    6CHL1  H26A  438   0.692   6.207   9.182  0.9790 -1.4835  0.8145
    6CHL1  H26B  439   0.820   6.327   9.161  1.2471 -1.8906  3.0109
    6CHL1  H26C  440   0.747   6.254   9.014 -1.4276  0.1245  1.1184
    6CHL1   C27  441   1.016   6.148   9.043  0.1178  0.0999  0.1822
    6CHL1  H27A  442   1.089   6.066   9.062 -0.7490 -0.5361  0.7654
    6CHL1  H27B  443   0.983   6.146   8.937  2.7274  0.0374 -0.6779
    6CHL1  H27C  444   1.068   6.244   9.067  1.7114 -1.0079  1.3287
    7CHL1    C3  445   5.095   3.228  10.634  0.5412 -0.3532 -0.2534
    7CHL1    H3  446   5.201   3.198  10.620  0.5419  0.0462 -1.1217
    7CHL1    O3  447   5.061   3.228  10.776 -0.3406 -0.3260  0.5415
    7CHL1   H3'  448   4.968   3.253  10.777 -0.2689  0.0753 -1.0888
    7CHL1    C4  449   5.090   3.378  10.586  0.0261  0.1801  0.2891
    7CHL1   H4A  450   5.002   3.434  10.624  0.7013  2.0381 -0.8055
    7CHL1   H4B  451   5.166   3.432  10.645  1.0301 -0.8247 -0.0792
    7CHL1    C5  452   5.109   3.394  10.439  0.4772 -0.6349  0.2152
    7CHL1    C6  453   5.203   3.478  10.396  1.3811  0.1263  0.1796
    7CHL1    H6  454   5.265   3.533  10.469 -1.2592  2.2794  0.8510
    7CHL1    C7  455   5.233   3.491  10.251  0.2143 -0.5006  0.1148
    7CHL1   H7A  456   5.259   3.597  10.229  0.4112 -0.4806  0.4343
    7CHL1   H7B  457   5.329   3.439  10.229 -0.6455 -1.0587 -2.4410
    7CHL1    C8  458   5.117   3.445  10.164  0.5114  0.1750 -0.3579
    7CHL1    H8  459   5.047   3.531  10.175  0.6725  0.3342 -0.5698
    7CHL1   C14  460   5.168   3.439  10.018  0.2929 -0.3329 -0.1838
    7CHL1   H14  461   5.252   3.367  10.022 -0.9518 -1.8677 -1.0594
    7CHL1   C15  462   5.220   3.572   9.957 -0.4332  0.0200 -0.1114
    7CHL1  H15A  463   5.164   3.659   9.998 -0.6949  1.4630 -3.3212
    7CHL1  H15B  464   5.327   3.583   9.985 -1.0725 -0.0998  2.5240
    7CHL1   C16  465   5.209   3.551   9.808 -0.4304  0.0731 -0.0452
    7CHL1  H16A  466   5.152   3.630   9.754 -0.7780  1.2333  1.9924
    7CHL1  H16B  467   5.312   3.547   9.767 -0.7496 -1.2001 -0.7670
    7CHL1   C17  468   5.141   3.407   9.784 -0.5163 -0.4445 -0.2390
    7CHL1   H17  469   5.215   3.326   9.799 -2.1360 -1.3994  3.1836
    7CHL1   C13  470   5.063   3.387   9.916  0.4921 -0.2451 -0.0565
    7CHL1   C18  471   4.934   3.469   9.920  0.2183 -0.0880 -0.1838
    7CHL1  H18A  472   4.895   3.485  10.023  0.9984  0.3311  0.0565
    7CHL1  H18B  473   4.957   3.571   9.882  0.6776  0.1865  0.8173
    7CHL1  H18C  474   4.847   3.430   9.864 -1.0569  1.3582  0.7625
    7CHL1   C12  475   5.039   3.243   9.965  0.0203  0.4080  0.4385
    7CHL1  H12A  476   4.982   3.173   9.900 -1.3293 -1.0701  3.1327
    7CHL1  H12B  477   5.137   3.191   9.975  0.9112  1.6160 -1.7264
    7CHL1   C11  478   4.972   3.238  10.110 -0.1065  0.2405  0.9930
    7CHL1  H11A  479   4.872   3.286  10.111 -0.3057 -0.1393 -0.0209
    7CHL1  H11B  480   4.949   3.132  10.130 -0.6455 -0.1046 -1.2795
    7CHL1    C9  481   5.065   3.305  10.215  0.3180 -0.1923 -0.1039
    7CHL1    H9  482   5.152   3.236  10.211 -0.3894 -1.0869 -0.2107
    7CHL1   C10  483   5.021   3.297  10.361  0.2777  0.4739 -0.5951
    7CHL1   C19  484   4.885   3.361  10.371 -0.5086  0.2228 -0.4744
    7CHL1  H19A  485   4.847   3.338  10.473  0.3983 -0.9051 -0.3807
    7CHL1  H19B  486   4.889   3.469  10.344  0.0738 -0.0678 -1.5687
    7CHL1  H19C  487   4.812   3.313  10.302  1.2506 -3.3060 -0.0070
    7CHL1    C1  488   5.021   3.154  10.418  0.5458 -0.0487  0.1115
    7CHL1   H1A  489   4.952   3.105  10.347  0.4132  0.9473 -0.4539
    7CHL1   H1B  490   5.124   3.118  10.399  0.9400  0.3260  1.4683
    7CHL1    C2  491   5.001   3.139  10.571 -0.2839  0.0108  0.4154
    7CHL1   H2A  492   5.025   3.035  10.600  3.3836  1.0444  1.3859
    7CHL1   H2B  493   4.894   3.154  10.599 -0.1793 -0.2419  0.9564
    7CHL1   C20  494   5.075   3.390   9.641 -0.2694 -0.0392  0.0666
    7CHL1   H20  495   4.996   3.468   9.634 -1.7422 -1.6580 -1.9497
    7CHL1   C21  496   5.018   3.251   9.631  0.5991  0.2716  0.0944
    7CHL1  H21A  497   4.987   3.241   9.525  0.6760 -0.3976  0.1286
    7CHL1  H21B  498   4.940   3.230   9.707 -0.6963 -2.9844 -2.0383
    7CHL1  H21C  499   5.103   3.179   9.643  1.2713  0.8570 -1.0750
    7CHL1   C22  500   5.178   3.413   9.526  0.4770  0.4430 -0.2284
    7CHL1  H22A  501   5.253   3.494   9.539  1.6566 -0.1182 -3.2099
    7CHL1  H22B  502   5.229   3.314   9.517 -2.8100 -1.5221  2.0170
    7CHL1   C23  503   5.113   3.455   9.393  0.2409 -0.0532  0.7842
    7CHL1  H23A  504   5.061   3.367   9.349 -1.0168 -0.1411  2.4019
    7CHL1  H23B  505   5.027   3.520   9.418 -1.9418 -2.3275 -0.5427
    7CHL1   C24  506   5.223   3.508   9.296 -0.3965 -0.1324  0.1404
    7CHL1  H24A  507   5.316   3.448   9.314  1.3890  2.1927 -1.0705
    7CHL1  H24B  508   5.186   3.497   9.192 -3.8320  0.4603  1.2407
    7CHL1   C25  509   5.246   3.665   9.319  0.0320 -0.2787 -1.5018
    7CHL1   H25  510   5.202   3.702   9.414  1.7001  1.4539 -1.3813
    7CHL1   C26  511   5.399   3.701   9.322  0.0954  0.3765  0.2166
    7CHL1  H26A  512   5.451   3.642   9.401  1.3474 -0.0152 -0.8815
    7CHL1  H26B  513   5.442   3.687   9.220 -2.3451  0.8217 -0.9034
    7CHL1  H26C  514   5.414   3.808   9.348 -2.4717  0.4676  1.4907
    7CHL1   C27  515   5.189   3.742   9.199  0.5107 -0.3434  0.0322
    7CHL1  H27A  516   5.236   3.697   9.109  1.3058  0.0034  0.2735
    7CHL1  H27B  517   5.081   3.727   9.177  0.4208  2.3359 -1.5528
    7CHL1  H27C  518   5.211   3.850   9.202  2.0765 -0.6870  3.0230
    8CHL1    C3  519   5.371   4.713  10.490 -0.7382 -0.8129  0.4113
    8CHL1    H3  520   5.469   4.739  10.444 -1.3796  2.4297  0.7167
    8CHL1    O3  521   5.356   4.753  10.625  0.2553 -0.2353 -0.5081
    8CHL1   H3'  522   5.263   4.771  10.642  0.1604 -0.3635 -0.8756
    8CHL1    C4  523   5.268   4.795  10.405 -0.1615 -1.0891 -0.0006
    8CHL1   H4A  524   5.171   4.800  10.459 -0.4267 -0.7978 -0.4930
    8CHL1   H4B  525   5.312   4.897  10.397  0.6295 -1.2019  2.4072
    8CHL1    C5  526   5.251   4.739  10.265  0.7227 -0.3993  0.1014
    8CHL1    C6  527   5.258   4.823  10.161  0.3654  0.3247  0.8338
    8CHL1    H6  528   5.267   4.932  10.174  1.5130  0.3683 -0.2366
    8CHL1    C7  529   5.244   4.773  10.019 -0.5477 -0.3691  0.4181
    8CHL1   H7A  530   5.191   4.843   9.951 -2.3528  0.1445  2.3034
    8CHL1   H7B  531   5.350   4.761   9.988 -0.3513 -0.5119  1.1230
    8CHL1    C8  532   5.180   4.633  10.004 -0.1218 -0.9431  0.7704
    8CHL1    H8  533   5.071   4.641  10.024 -0.3803 -1.3119 -0.4360
    8CHL1   C14  534   5.209   4.575   9.870 -0.7764  0.0451  0.0433
    8CHL1   H14  535   5.318   4.553   9.862 -0.6239  1.1602 -1.2050
    8CHL1   C15  536   5.181   4.664   9.746 -0.4912  0.2369 -0.5085
    8CHL1  H15A  537   5.080   4.711   9.752 -0.5350 -0.0817  1.5587
    8CHL1  H15B  538   5.256   4.744   9.727  2.7354 -2.7826 -0.9815
    8CHL1   C16  539   5.183   4.557   9.635  0.4247 -1.0232  0.1281
    8CHL1  H16A  540   5.082   4.557   9.589  0.9724  0.8509 -1.1145
    8CHL1  H16B  541   5.268   4.569   9.564 -1.5519 -0.9811 -2.3248
    8CHL1   C17  542   5.186   4.417   9.701  0.0833 -0.2903  1.0348
    8CHL1   H17  543   5.292   4.385   9.699 -0.1657 -1.0377 -0.2965
    8CHL1   C13  544   5.144   4.440   9.842 -0.4968 -0.1581 -0.3798
    8CHL1   C18  545   4.989   4.450   9.838 -0.4557 -0.4340 -0.1584
    8CHL1  H18A  546   4.960   4.511   9.927  0.4107 -0.2274 -0.0056
    8CHL1  H18B  547   4.945   4.490   9.745 -1.5819  0.2501  0.6520
    8CHL1  H18C  548   4.945   4.349   9.836 -3.1059  0.6186  1.8998
    8CHL1   C12  549   5.189   4.338   9.948 -0.0346 -0.6123  0.4550
    8CHL1  H12A  550   5.127   4.246   9.935 -4.0445  1.9657  0.4277
    8CHL1  H12B  551   5.295   4.320   9.920  0.2845  3.0369 -0.8879
    8CHL1   C11  552   5.168   4.398  10.086 -0.5573  0.7883  0.3000
    8CHL1  H11A  553   5.058   4.409  10.102 -1.1128 -0.9620 -1.9167
    8CHL1  H11B  554   5.208   4.328  10.163  0.1138  0.0560 -0.6953
    8CHL1    C9  555   5.234   4.533  10.106 -0.0396 -0.2895 -0.5436
    8CHL1    H9  556   5.340   4.515  10.079 -0.2149 -2.4232  0.1000
    8CHL1   C10  557   5.227   4.589  10.257  0.3284 -0.5185 -0.0034
    8CHL1   C19  558   5.078   4.570  10.307 -0.5328  0.5712 -0.0737
    8CHL1  H19A  559   5.062   4.620  10.405  1.3376 -1.5987  1.3885
    8CHL1  H19B  560   5.007   4.618  10.236 -1.4567  0.8552  1.0252
    8CHL1  H19C  561   5.060   4.462  10.326 -0.8727  0.3445 -1.5969
    8CHL1    C1  562   5.325   4.510  10.341 -0.2778  0.7901 -1.4918
    8CHL1   H1A  563   5.299   4.403  10.355  1.0435  0.5234 -1.0377
    8CHL1   H1B  564   5.428   4.511  10.301 -0.4970  1.2630 -2.0600
    8CHL1    C2  565   5.342   4.560  10.488 -0.2940 -0.3139 -0.0471
    8CHL1   H2A  566   5.418   4.490  10.530 -0.1627 -0.3999 -0.4292
    8CHL1   H2B  567   5.243   4.547  10.538  0.3226  0.5656  1.4535
    8CHL1   C20  568   5.107   4.309   9.616  0.1595  0.2385  0.1272
    8CHL1   H20  569   4.999   4.334   9.621  0.3224  0.9348  0.1764
    8CHL1   C21  570   5.115   4.161   9.671 -0.1927 -0.0681 -0.2317
    8CHL1  H21A  571   5.061   4.099   9.596  0.6582 -0.0239 -0.9010
    8CHL1  H21B  572   5.070   4.152   9.771 -1.1191 -0.7105 -0.6996
    8CHL1  H21C  573   5.221   4.128   9.684 -0.6392 -0.9860  1.1764
    8CHL1   C22  574   5.139   4.307   9.465  0.4199  0.4795 -0.2283
    8CHL1  H22A  575   5.071   4.230   9.422  2.1978 -1.2308 -0.0528
    8CHL1  H22B  576   5.100   4.396   9.411 -1.8150 -0.3996 -0.1458
    8CHL1   C23  577   5.279   4.255   9.420  0.2091 -0.1330 -0.3307
    8CHL1  H23A  578   5.357   4.328   9.452  1.6573 -2.6682  2.1260
    8CHL1  H23B  579   5.296   4.157   9.470 -0.5190 -1.2944 -2.2763
    8CHL1   C24  580   5.294   4.223   9.270  0.1384 -0.7602 -0.2067
    8CHL1  H24A  581   5.370   4.144   9.257 -0.3529 -1.1829 -0.5109
    8CHL1  H24B  582   5.205   4.168   9.232 -1.7827  0.7201  1.9556
    8CHL1   C25  583   5.313   4.347   9.174  0.7929  0.2742  0.1709
    8CHL1   H25  584   5.216   4.400   9.180 -0.2811 -1.3828 -1.8536
    8CHL1   C26  585   5.427   4.434   9.228  0.0257 -0.3228  0.3637
    8CHL1  H26A  586   5.457   4.522   9.167  0.7236 -0.6948  0.1670
    8CHL1  H26B  587   5.408   4.476   9.329  1.4639  1.7291 -0.1848
    8CHL1  H26C  588   5.522   4.379   9.242 -0.7861 -1.4189  1.5324
    8CHL1   C27  589   5.346   4.303   9.027 -0.1362 -1.0264  0.0514
    8CHL1  H27A  590   5.438   4.240   9.017  1.6933  1.9834 -2.9507
    8CHL1  H27B  591   5.262   4.254   8.973 -1.4053  0.5886  0.5330
    8CHL1  H27C  592   5.363   4.399   8.975  0.9906 -1.4375 -0.3567
    9CHL1    C3  593   1.248   0.683  10.327 -0.7190 -0.2688 -0.0422
    9CHL1    H3  594   1.334   0.753  10.324 -2.8734  2.4370 -1.4042
    9CHL1    O3  595   1.178   0.703  10.445  0.0133  0.2371  0.2321
    9CHL1   H3'  596   1.170   0.795  10.471  0.8859 -0.3382  2.5901
    9CHL1    C4  597   1.160   0.724  10.207 -0.1974 -0.1472  0.6638
    9CHL1   H4A  598   1.074   0.654  10.212  0.5717 -1.2067 -0.5629
    9CHL1   H4B  599   1.127   0.830  10.210 -1.6255 -0.5406 -0.7823
    9CHL1    C5  600   1.226   0.694  10.072 -0.3503  0.5602  0.6296
    9CHL1    C6  601   1.220   0.780   9.967 -0.3452 -0.2194 -0.1229
    9CHL1    H6  602   1.188   0.884   9.981 -0.2544 -0.0428 -1.2362
    9CHL1    C7  603   1.289   0.752   9.832  0.0645 -0.3504 -0.6785
    9CHL1   H7A  604   1.216   0.775   9.752  1.3644 -2.6885 -2.5869
    9CHL1   H7B  605   1.376   0.820   9.821  0.5042 -0.8882 -0.5531
    9CHL1    C8  606   1.326   0.607   9.805  0.2937  0.1953  0.4066
    9CHL1    H8  607   1.241   0.540   9.779  1.5835 -1.0567 -0.6561
    9CHL1   C14  608   1.412   0.598   9.675 -0.4905 -0.2145 -0.5281
    9CHL1   H14  609   1.508   0.644   9.706 -1.1454  1.8399 -1.4538
    9CHL1   C15  610   1.364   0.656   9.535 -0.1155  0.1845  0.2820
    9CHL1  H15A  611   1.263   0.619   9.511  0.6939  0.4706 -3.8675
    9CHL1  H15B  612   1.365   0.767   9.544  2.6678  0.4245 -2.1204
    9CHL1   C16  613   1.465   0.595   9.435  0.3306 -0.2879 -0.5725
    9CHL1  H16A  614   1.408   0.555   9.348 -1.0160  0.2939  0.0281
    9CHL1  H16B  615   1.534   0.674   9.400  1.6674 -0.0431  2.4664
    9CHL1   C17  616   1.549   0.488   9.512 -0.7477 -0.3696  0.3136
    9CHL1   H17  617   1.637   0.542   9.551  0.2133 -1.6332 -0.0580
    9CHL1   C13  618   1.459   0.455   9.641 -0.0717  1.2659  0.4194
    9CHL1   C18  619   1.352   0.360   9.586  0.7280 -0.1108  0.0089
    9CHL1  H18A  620   1.329   0.392   9.482 -0.3289 -0.5568  0.1042
    9CHL1  H18B  621   1.390   0.256   9.581  0.5883 -0.0941 -1.8741
    9CHL1  H18C  622   1.268   0.366   9.657  1.0166  1.7126  0.2157
    9CHL1   C12  623   1.531   0.395   9.765  0.5425 -0.4121 -0.0183
    9CHL1  H12A  624   1.557   0.290   9.739 -0.3255 -0.0144 -2.6850
    9CHL1  H12B  625   1.620   0.457   9.787  1.3375 -1.8749  0.9062
    9CHL1   C11  626   1.446   0.399   9.893  0.5540 -0.1307 -0.1813
    9CHL1  H11A  627   1.370   0.319   9.874  0.5879  0.4402 -2.9159
    9CHL1  H11B  628   1.510   0.364   9.977 -0.1814  0.2604  0.5499
    9CHL1    C9  629   1.389   0.543   9.926 -0.1807 -0.3774 -0.5028
    9CHL1    H9  630   1.480   0.599   9.956 -0.4314 -0.7448  0.9922
    9CHL1   C10  631   1.299   0.552  10.058 -0.3273 -0.3311 -0.1687
    9CHL1   C19  632   1.187   0.449  10.038  0.1433 -0.0429 -0.6742
    9CHL1  H19A  633   1.235   0.348  10.039  0.6076  0.1681 -1.0408
    9CHL1  H19B  634   1.112   0.453  10.119  0.5014  3.3354 -0.4586
    9CHL1  H19C  635   1.133   0.468   9.943 -0.6138  2.1241  0.1630
    9CHL1    C1  636   1.384   0.528  10.192 -0.5405 -1.0085  0.4677
    9CHL1   H1A  637   1.432   0.428  10.199 -1.9125 -1.6477  0.7509
    9CHL1   H1B  638   1.462   0.608  10.189 -1.0267 -0.5970 -1.9578
    9CHL1    C2  639   1.304   0.542  10.320 -0.3733 -0.2358  1.0496
    9CHL1   H2A  640   1.372   0.529  10.406 -0.5322 -2.9692  0.7983
    9CHL1   H2B  641   1.231   0.459  10.327 -0.2489 -0.3744  0.7286
    9CHL1   C20  642   1.616   0.379   9.437  0.0380  0.9821 -0.4183
    9CHL1   H20  643   1.559   0.286   9.456  3.0001 -0.3268  2.6849
    9CHL1   C21  644   1.758   0.345   9.498  0.0198 -0.6724  0.4087
    9CHL1  H21A  645   1.808   0.262   9.444  0.9294 -1.0464  1.7938
    9CHL1  H21B  646   1.759   0.316   9.605  0.4391 -0.2825  0.5150
    9CHL1  H21C  647   1.822   0.433   9.474 -0.5081 -0.9646 -2.2954
    9CHL1   C22  648   1.636   0.396   9.282 -0.1706 -0.0354  0.0189
    9CHL1  H22A  649   1.553   0.452   9.233 -0.4567  0.7407  1.3659
    9CHL1  H22B  650   1.730   0.453   9.269 -0.1518  0.1577  0.9418
    9CHL1   C23  651   1.639   0.268   9.204 -0.3801 -0.2722  0.6389
    9CHL1  H23A  652   1.736   0.226   9.237 -1.3834 -1.2837  2.4440
    9CHL1  H23B  653   1.564   0.191   9.232  0.7728 -1.3551  0.7784
    9CHL1   C24  654   1.652   0.298   9.057  0.4725 -0.1586 -0.2217
    9CHL1  H24A  655   1.562   0.358   9.035  1.7659  1.9499  0.1098
    9CHL1  H24B  656   1.735   0.367   9.030 -0.0213  0.2855 -0.6009
    9CHL1   C25  657   1.651   0.163   8.978 -0.0734 -0.7093  0.1154
    9CHL1   H25  658   1.554   0.111   8.995 -1.8077  1.9096 -1.3193
    9CHL1   C26  659   1.649   0.199   8.831  0.6128 -0.7204  0.4129
    9CHL1  H26A  660   1.648   0.106   8.769  0.2270 -1.4674  1.5341
    9CHL1  H26B  661   1.560   0.263   8.814  0.1517 -0.8492  2.2215
    9CHL1  H26C  662   1.738   0.263   8.815 -0.5747  1.6795  3.0382
    9CHL1   C27  663   1.761   0.068   9.021  0.0118 -0.1766  0.4134
    9CHL1  H27A  664   1.859   0.117   9.007  0.3450 -1.1338 -0.6925
    9CHL1  H27B  665   1.756   0.044   9.130 -0.8669 -0.3338  0.3428
    9CHL1  H27C  666   1.756  -0.018   8.950  3.1955  1.8918 -2.4704
   10CHL1    C3  667   0.520   4.590  10.033  0.6876 -0.5501 -1.0730
   10CHL1    H3  668   0.598   4.513  10.017  0.9575 -0.6077  0.3962
   10CHL1    O3  669   0.495   4.616  10.169  0.1545 -0.3025  0.0114
   10CHL1   H3'  670   0.437   4.693  10.169  0.6289  0.0590  0.1431
   10CHL1    C4  671   0.557   4.725   9.968 -0.2030 -0.2141  0.2537
   10CHL1   H4A  672   0.473   4.793   9.992  1.8656  1.8514  1.7896
   10CHL1   H4B  673   0.647   4.767  10.018  0.2864 -2.4212  1.2759
   10CHL1    C5  674   0.570   4.714   9.816  0.4549 -0.2863 -0.0606
   10CHL1    C6  675   0.688   4.733   9.753  0.0867  0.3800 -0.7468
   10CHL1    H6  676   0.779   4.763   9.807  0.1515 -0.5325 -0.3363
   10CHL1    C7  677   0.695   4.713   9.603  0.0365  0.1800  0.0323
   10CHL1   H7A  678   0.756   4.797   9.563 -0.6867  1.1473  0.9144
   10CHL1   H7B  679   0.739   4.614   9.578 -0.0503 -0.1703  1.2186
   10CHL1    C8  680   0.558   4.726   9.536  0.0147 -0.1415 -0.3337
   10CHL1    H8  681   0.528   4.832   9.549  0.1334  0.4252 -4.1236
   10CHL1   C14  682   0.573   4.678   9.394 -0.0080  0.5097 -0.2754
   10CHL1   H14  683   0.617   4.576   9.401 -1.4453  0.0192  1.8805
   10CHL1   C15  684   0.670   4.762   9.305 -0.3180 -0.2387  0.7202
   10CHL1  H15A  685   0.660   4.870   9.329  2.5773  0.2727 -0.1190
   10CHL1  H15B  686   0.779   4.741   9.316 -0.4345 -0.8821  0.6968
   10CHL1   C16  687   0.619   4.729   9.168 -0.5441 -0.2192  0.1988
   10CHL1  H16A  688   0.599   4.822   9.109  0.5161 -0.0577  0.0794
   10CHL1  H16B  689   0.689   4.671   9.104 -0.4675  0.2753 -0.1770
   10CHL1   C17  690   0.489   4.643   9.181 -0.7435  0.2893  0.1420
   10CHL1   H17  691   0.530   4.541   9.194 -2.0009 -0.4699 -1.5357
   10CHL1   C13  692   0.442   4.671   9.326  0.5076  0.2817 -0.1171
   10CHL1   C18  693   0.366   4.809   9.319 -0.0695 -0.5531  0.3994
   10CHL1  H18A  694   0.415   4.874   9.243 -1.7830 -2.1938 -2.1747
   10CHL1  H18B  695   0.268   4.778   9.276 -0.4504  0.7004  0.3565
   10CHL1  H18C  696   0.355   4.869   9.412 -0.9550  1.0992 -0.7565
   10CHL1   C12  697   0.348   4.562   9.376 -0.4711  0.9122  0.5178
   10CHL1  H12A  698   0.255   4.577   9.316 -0.6552 -2.0004 -0.0127
   10CHL1  H12B  699   0.393   4.462   9.363 -0.5616  1.1196 -1.4909
   10CHL1   C11  700   0.333   4.584   9.524 -0.3368  0.2032  0.2225
   10CHL1  H11A  701   0.263   4.669   9.530 -1.2616 -0.5583  0.3760
   10CHL1  H11B  702   0.286   4.496   9.574  2.6937 -0.8165  1.4173
   10CHL1    C9  703   0.465   4.626   9.601  0.2434 -0.0577  0.6446
   10CHL1    H9  704   0.519   4.529   9.607 -1.2855 -0.8722  1.5298
   10CHL1   C10  705   0.436   4.663   9.751 -0.8069  0.2298  0.4421
   10CHL1   C19  706   0.332   4.774   9.757  0.0881 -0.0599 -0.0133
   10CHL1  H19A  707   0.305   4.800   9.862  0.7785 -2.9341  0.9182
   10CHL1  H19B  708   0.361   4.868   9.706  2.1769 -0.2200  0.8026
   10CHL1  H19C  709   0.238   4.744   9.707 -1.6627  4.2925  0.4616
   10CHL1    C1  710   0.389   4.539   9.822 -0.3705  0.0712  0.1488
   10CHL1   H1A  711   0.286   4.513   9.788  0.3285 -0.2838 -1.7811
   10CHL1   H1B  712   0.456   4.455   9.795 -0.2604  0.1963  0.0380
   10CHL1    C2  713   0.388   4.542   9.977 -0.3197  0.1739  0.6777
   10CHL1   H2A  714   0.374   4.436  10.006 -0.7271 -1.0081 -3.5942
   10CHL1   H2B  715   0.294   4.585  10.018 -1.7808 -0.5671 -1.7807
   10CHL1   C20  716   0.387   4.632   9.062  0.2176 -0.6824  0.5876
   10CHL1   H20  717   0.292   4.594   9.105 -0.0815  0.7462  1.2182
   10CHL1   C21  718   0.432   4.517   8.972 -0.1157 -0.7743  0.0860
   10CHL1  H21A  719   0.529   4.547   8.925  2.3092 -4.7591  2.2243
   10CHL1  H21B  720   0.360   4.500   8.889 -0.3717  1.0007 -0.0704
   10CHL1  H21C  721   0.433   4.420   9.026 -1.0716 -1.6100 -1.3831
   10CHL1   C22  722   0.354   4.760   8.987 -0.4538 -0.2201  0.3463
   10CHL1  H22A  723   0.346   4.846   9.057  2.1372  0.8215 -0.5829
   10CHL1  H22B  724   0.439   4.782   8.919 -0.1858  0.7069  0.9710
   10CHL1   C23  725   0.231   4.757   8.905  0.3661  0.0086  0.5103
   10CHL1  H23A  726   0.234   4.657   8.858 -0.4844 -0.4151  1.3377
   10CHL1  H23B  727   0.146   4.746   8.976  1.5849 -0.3304  1.9214
   10CHL1   C24  728   0.223   4.875   8.813  1.1316 -0.5217  0.3151
   10CHL1  H24A  729   0.214   4.961   8.883 -0.6399 -0.9455  0.6434
   10CHL1  H24B  730   0.317   4.887   8.756 -1.0723  0.7237 -3.2469
   10CHL1   C25  731   0.102   4.883   8.709  0.4517 -0.4095 -0.6178
   10CHL1   H25  732   0.005   4.857   8.757  0.5702 -0.2032 -0.2654
   10CHL1   C26  733   0.096   5.017   8.637 -0.0514 -0.1846 -0.3825
   10CHL1  H26A  734   0.010   5.017   8.568 -0.6006 -1.0843  0.2902
   10CHL1  H26B  735   0.097   5.095   8.717  1.3324 -2.1814  1.5934
   10CHL1  H26C  736   0.184   5.026   8.570  0.0313 -2.2838 -0.5657
   10CHL1   C27  737   0.128   4.769   8.603  0.3506  0.3701 -0.1319
   10CHL1  H27A  738   0.117   4.670   8.652 -0.8580 -0.0597 -1.2586
   10CHL1  H27B  739   0.050   4.767   8.524  1.3183  1.2260 -1.1294
   10CHL1  H27C  740   0.225   4.787   8.551  2.3524  0.8379  3.5217
   11CHL1    C3  741   2.565   1.277  10.266  0.2820 -0.8679  0.0280
   11CHL1    H3  742   2.648   1.350  10.258  0.6919 -1.5480 -2.5624
   11CHL1    O3  743   2.480   1.293  10.377 -0.0767 -0.0585 -0.1751
   11CHL1   H3'  744   2.514   1.224  10.434  0.2383  1.7744  1.9221
   11CHL1    C4  745   2.485   1.294  10.135  0.0248 -0.5993  0.0241
   11CHL1   H4A  746   2.392   1.234  10.143 -0.5762 -0.0278 -2.0808
   11CHL1   H4B  747   2.441   1.397  10.130  0.0546 -0.5490  0.8079
   11CHL1    C5  748   2.567   1.261  10.013  0.5902 -0.2654 -0.2732
   11CHL1    C6  749   2.572   1.344   9.905 -0.2154  0.1442  0.2908
   11CHL1    H6  750   2.523   1.442   9.915  1.2073  0.8560  0.4247
   11CHL1    C7  751   2.640   1.307   9.777  0.0012 -0.4668  0.0171
   11CHL1   H7A  752   2.580   1.342   9.690 -0.9953 -0.0772  0.8419
   11CHL1   H7B  753   2.736   1.361   9.778 -0.2108 -0.0555  2.3495
   11CHL1    C8  754   2.675   1.158   9.769  0.0140 -0.3171 -0.2102
   11CHL1    H8  755   2.588   1.091   9.750  0.7791 -0.4107 -3.8274
   11CHL1   C14  756   2.776   1.130   9.655 -0.5228 -0.4838 -0.0460
   11CHL1   H14  757   2.871   1.179   9.685  0.3689 -1.2832 -1.5257
   11CHL1   C15  758   2.758   1.197   9.518 -0.6027 -0.2748  0.3323
   11CHL1  H15A  759   2.654   1.175   9.487 -0.3194 -0.9788 -0.1345
   11CHL1  H15B  760   2.792   1.302   9.537  2.7392 -1.1600 -0.4448
   11CHL1   C16  761   2.861   1.117   9.436 -0.2983  0.2466 -0.0685
   11CHL1  H16A  762   2.787   1.081   9.361 -2.4657  2.7337  0.7779
   11CHL1  H16B  763   2.929   1.189   9.386 -0.2216 -0.9417 -1.7201
   11CHL1   C17  764   2.922   1.009   9.525 -0.2120 -0.2954  0.4034
   11CHL1   H17  765   3.005   1.054   9.584  0.7983  0.6181 -1.6891
   11CHL1   C13  766   2.822   0.982   9.639 -1.3282 -0.9034  1.3565
   11CHL1   C18  767   2.710   0.895   9.592 -0.1560 -0.4438  1.3467
   11CHL1  H18A  768   2.672   0.839   9.680 -0.8659 -1.6291  0.2883
   11CHL1  H18B  769   2.628   0.951   9.543 -0.5344  0.6535  3.1941
   11CHL1  H18C  770   2.736   0.811   9.525 -0.0460 -0.1813  1.0562
   11CHL1   C12  771   2.894   0.936   9.772  0.6408  0.3855 -0.0448
   11CHL1  H12A  772   2.946   0.838   9.768 -1.4477 -0.7419 -0.2561
   11CHL1  H12B  773   2.980   1.005   9.788  0.3796  0.9663 -1.0975
   11CHL1   C11  774   2.802   0.956   9.889  0.6467  0.0999 -0.4075
   11CHL1  H11A  775   2.729   0.873   9.893  0.0520  0.5775 -1.3421
   11CHL1  H11B  776   2.873   0.954   9.975  2.6756 -1.4779 -2.0787
   11CHL1    C9  777   2.734   1.101   9.899  0.0661  0.9301  0.4846
   11CHL1    H9  778   2.825   1.160   9.925  0.5299  1.8826 -3.0673
   11CHL1   C10  779   2.633   1.125  10.016 -0.2344  0.2333  0.0353
   11CHL1   C19  780   2.525   1.013  10.013 -0.1518 -0.1377  0.2283
   11CHL1  H19A  781   2.574   0.914  10.027  0.6912  0.3122  0.4711
   11CHL1  H19B  782   2.457   1.011  10.101 -0.6034 -2.0969 -0.1383
   11CHL1  H19C  783   2.467   1.001   9.919 -2.3321 -0.9265  1.6168
   11CHL1    C1  784   2.705   1.103  10.151  0.2133  0.3681 -0.0847
   11CHL1   H1A  785   2.746   1.000  10.164 -1.8854 -0.4309  0.2970
   11CHL1   H1B  786   2.802   1.157  10.151 -0.0395  0.8605 -3.0066
   11CHL1    C2  787   2.619   1.139  10.275 -0.1954  0.1344 -0.2611
   11CHL1   H2A  788   2.683   1.116  10.362 -1.0069 -0.9296  0.0639
   11CHL1   H2B  789   2.533   1.070  10.289 -0.2820  0.6416  1.7771
   11CHL1   C20  790   2.979   0.906   9.427 -1.0758 -0.0682 -0.6604
   11CHL1   H20  791   2.899   0.874   9.357 -1.5227  1.0118 -0.6666
   11CHL1   C21  792   3.028   0.782   9.500  0.3239  0.0916 -0.3762
   11CHL1  H21A  793   2.952   0.747   9.573 -0.3547 -0.6317 -1.4084
   11CHL1  H21B  794   3.123   0.799   9.554  0.5784 -1.4038 -0.3439
   11CHL1  H21C  795   3.051   0.694   9.437  2.2572 -0.3032  0.8637
   11CHL1   C22  796   3.089   0.958   9.329  0.2595 -0.3610  0.0830
   11CHL1  H22A  797   3.048   1.039   9.265  1.6954  0.0551 -0.3413
   11CHL1  H22B  798   3.174   1.005   9.384  2.0154 -0.8533 -2.1271
   11CHL1   C23  799   3.133   0.848   9.237 -0.3040  0.8354 -0.3577
   11CHL1  H23A  800   3.188   0.771   9.296  0.7121  0.1627 -2.1355
   11CHL1  H23B  801   3.041   0.800   9.199  1.2515  0.2234 -3.5078
   11CHL1   C24  802   3.226   0.894   9.123 -0.2759  0.1689  0.2693
   11CHL1  H24A  803   3.308   0.946   9.176  1.3734 -1.7112 -0.3618
   11CHL1  H24B  804   3.267   0.806   9.068 -0.8900  0.1964 -0.2337
   11CHL1   C25  805   3.175   0.988   9.014 -0.5706 -0.2972 -0.4366
   11CHL1   H25  806   3.132   1.082   9.054 -0.9504 -0.6364 -0.0423
   11CHL1   C26  807   3.284   1.033   8.914  0.1938  0.0412 -0.0900
   11CHL1  H26A  808   3.333   0.946   8.867  2.5286  0.3047  1.7592
   11CHL1  H26B  809   3.238   1.101   8.839 -1.3766  1.0940  1.7475
   11CHL1  H26C  810   3.358   1.089   8.975  0.0356 -2.1441  2.2233
   11CHL1   C27  811   3.068   0.922   8.934 -0.0412  0.7516  0.6539
   11CHL1  H27A  812   2.990   0.879   9.000 -0.1931  0.7212  0.4503
   11CHL1  H27B  813   3.021   0.998   8.869 -1.7502 -0.7218  0.1562
   11CHL1  H27C  814   3.105   0.830   8.883 -1.0356  1.8785 -2.1951
   12CHL1    C3  815   5.929   4.373  10.486 -0.2711 -0.3217  0.9203
   12CHL1    H3  816   6.001   4.457  10.475 -1.0138  0.5610  2.6548
   12CHL1    O3  817   5.945   4.349  10.627 -0.0577  0.2752  0.5560
   12CHL1   H3'  818   5.916   4.259  10.641 -1.4297  0.6590  0.2403
   12CHL1    C4  819   5.793   4.422  10.471 -0.1147  0.3692  0.4893
   12CHL1   H4A  820   5.728   4.337  10.498 -2.2619  1.3317 -1.4751
   12CHL1   H4B  821   5.768   4.497  10.550  0.1507 -0.9721  1.8721
   12CHL1    C5  822   5.772   4.453  10.329 -0.1880  0.0274 -1.0423
   12CHL1    C6  823   5.721   4.573  10.298 -0.0557  0.6433  0.1846
   12CHL1    H6  824   5.684   4.642  10.375 -0.1558 -1.5416  2.1625
   12CHL1    C7  825   5.696   4.612  10.157  0.4729 -0.6531 -0.8183
   12CHL1   H7A  826   5.601   4.668  10.149  1.0133  0.2351 -1.1757
   12CHL1   H7B  827   5.775   4.687  10.134  0.8758 -0.4780  1.0933
   12CHL1    C8  828   5.701   4.498  10.055  0.2535 -0.0200  0.7807
   12CHL1    H8  829   5.609   4.435  10.064 -0.5800  0.8744 -1.1468
   12CHL1   C14  830   5.713   4.553   9.912 -0.1705 -0.1494 -0.0025
   12CHL1   H14  831   5.814   4.600   9.905  0.3220 -1.3535 -1.2728
   12CHL1   C15  832   5.630   4.684   9.867  0.0291  0.1736  0.0644
   12CHL1  H15A  833   5.525   4.665   9.899 -0.0002  0.3788  0.0931
   12CHL1  H15B  834   5.667   4.781   9.907  0.7794 -0.3856  0.7399
   12CHL1   C16  835   5.643   4.685   9.715  0.3328  0.3304  0.1597
   12CHL1  H16A  836   5.544   4.665   9.669  0.8816  1.3876 -1.5559
   12CHL1  H16B  837   5.690   4.776   9.670  1.4480  0.0785  0.7984
   12CHL1   C17  838   5.738   4.566   9.682 -0.3376  0.2890  0.3790
   12CHL1   H17  839   5.842   4.603   9.697 -0.7973  0.6203  3.0032
   12CHL1   C13  840   5.719   4.458   9.793  0.0994  0.3522 -0.5256
   12CHL1   C18  841   5.591   4.375   9.781 -0.5792  0.2314  0.5673
   12CHL1  H18A  842   5.515   4.442   9.736  1.0595  1.2978 -0.7008
   12CHL1  H18B  843   5.603   4.289   9.712  1.8276  0.6153  0.4504
   12CHL1  H18C  844   5.561   4.339   9.881 -2.3737  0.3543  0.0805
   12CHL1   C12  845   5.841   4.356   9.824  0.5158 -0.9737 -0.2258
   12CHL1  H12A  846   5.846   4.268   9.756  0.1212 -2.2809  1.3963
   12CHL1  H12B  847   5.926   4.427   9.817  0.4247 -0.5362  2.4291
   12CHL1   C11  848   5.839   4.298   9.972  0.1310 -0.4131  0.7917
   12CHL1  H11A  849   5.763   4.216   9.970 -0.4981  0.1575  1.0815
   12CHL1  H11B  850   5.930   4.236   9.987 -0.1449 -0.8247  0.7660
   12CHL1    C9  851   5.822   4.403  10.085 -0.2594 -0.5345 -0.2874
   12CHL1    H9  852   5.913   4.467  10.085 -0.3416 -0.3668  2.1028
   12CHL1   C10  853   5.819   4.343  10.230  0.7331 -0.0394 -0.3858
   12CHL1   C19  854   5.708   4.235  10.229  0.2480 -0.5150 -0.3541
   12CHL1  H19A  855   5.605   4.274  10.211  0.4355  0.0153 -0.2777
   12CHL1  H19B  856   5.729   4.159  10.150  0.5303  0.2548 -1.0303
   12CHL1  H19C  857   5.703   4.186  10.328 -0.6539  0.1786 -0.0496
   12CHL1    C1  858   5.959   4.273  10.267  0.5166 -0.4036 -0.0397
   12CHL1   H1A  859   5.978   4.174  10.222  1.6545 -0.3728  0.3610
   12CHL1   H1B  860   6.045   4.327  10.223  0.8306 -0.5032  0.4524
   12CHL1    C2  861   5.975   4.254  10.412  0.9575 -0.0980  0.0050
   12CHL1   H2A  862   6.082   4.227  10.425  1.3963  0.8883 -1.4188
   12CHL1   H2B  863   5.922   4.161  10.440 -0.4779  0.3650 -1.0810
   12CHL1   C20  864   5.726   4.522   9.536  0.2486 -0.6102  0.5758
   12CHL1   H20  865   5.625   4.481   9.516 -0.2055  0.8481 -0.1725
   12CHL1   C21  866   5.828   4.415   9.505  0.2750  0.1702  0.4965
   12CHL1  H21A  867   5.835   4.390   9.397 -3.7367 -0.6121  0.3281
   12CHL1  H21B  868   5.800   4.316   9.547 -1.4406  0.3567 -0.1464
   12CHL1  H21C  869   5.930   4.446   9.536  0.1378  0.7913  0.3316
   12CHL1   C22  870   5.747   4.643   9.436 -0.0154  0.1131 -0.4029
   12CHL1  H22A  871   5.668   4.720   9.445  1.0277  0.9888  1.4456
   12CHL1  H22B  872   5.840   4.696   9.465  2.1610 -2.3967 -2.4841
   12CHL1   C23  873   5.777   4.610   9.279 -0.2226 -0.2737  0.3558
   12CHL1  H23A  874   5.870   4.552   9.259 -0.1357 -1.2004  3.1293
   12CHL1  H23B  875   5.695   4.545   9.241  1.3614 -1.0540 -1.8005
   12CHL1   C24  876   5.785   4.733   9.189 -0.6344 -1.0197  0.0568
   12CHL1  H24A  877   5.705   4.803   9.221 -0.0840 -0.5063  0.3191
   12CHL1  H24B  878   5.878   4.793   9.204  0.2798 -1.9002 -1.9066
   12CHL1   C25  879   5.761   4.697   9.045 -0.4634 -0.0669  0.6579
   12CHL1   H25  880   5.664   4.642   9.043 -2.0066  2.5540  0.6170
   12CHL1   C26  881   5.745   4.826   8.962 -0.5308  0.4053  0.4817
   12CHL1  H26A  882   5.826   4.898   8.982  2.6213 -2.3425 -1.8120
   12CHL1  H26B  883   5.761   4.787   8.859  0.7989  0.6180  0.6068
   12CHL1  H26C  884   5.659   4.886   8.999 -0.1122 -0.0535  2.2465
   12CHL1   C27  885   5.875   4.611   8.978 -0.7454 -0.3648  0.1415
   12CHL1  H27A  886   5.885   4.520   9.040 -0.8953  0.2456  1.0729
   12CHL1  H27B  887   5.831   4.569   8.885 -0.7623  1.1231 -0.5308
   12CHL1  H27C  888   5.963   4.673   8.949  0.5968 -2.4919 -0.4258
   13CHL1    C3  889   4.451   5.861   9.895 -0.5577 -0.2153 -0.4173
   13CHL1    H3  890   4.554   5.819   9.904 -1.3294 -2.1040 -0.0406
   13CHL1    O3  891   4.394   5.836  10.019 -0.3841  0.0701  0.6906
   13CHL1   H3'  892   4.303   5.864  10.009 -0.2077  0.3984 -0.0630
   13CHL1    C4  893   4.449   6.016   9.874  0.4135 -0.7802  0.2163
   13CHL1   H4A  894   4.348   6.061   9.883  0.2210 -1.0821 -0.4246
   13CHL1   H4B  895   4.505   6.064   9.958  0.3131 -1.5084  0.7088
   13CHL1    C5  896   4.509   6.053   9.742  0.4314  0.0830  0.1521
   13CHL1    C6  897   4.616   6.140   9.717  0.1832  0.1345 -0.6453
   13CHL1    H6  898   4.658   6.198   9.801  0.0317 -1.6708  0.7289
   13CHL1    C7  899   4.683   6.161   9.588 -0.3385 -0.3135 -0.4182
   13CHL1   H7A  900   4.713   6.266   9.569 -0.7480 -0.2859 -0.9356
   13CHL1   H7B  901   4.778   6.105   9.580 -0.6768 -1.0814  0.7507
   13CHL1    C8  902   4.589   6.124   9.469 -0.4087 -0.2943  0.5851
   13CHL1    H8  903   4.505   6.197   9.460 -0.1276  0.2524  2.2126
   13CHL1   C14  904   4.657   6.127   9.333 -0.4437 -0.1770  0.1536
   13CHL1   H14  905   4.749   6.066   9.341  0.0621  0.2320 -2.2301
   13CHL1   C15  906   4.714   6.266   9.295 -0.6530 -0.4201 -0.2882
   13CHL1  H15A  907   4.645   6.351   9.312 -0.9693 -0.6354 -0.5110
   13CHL1  H15B  908   4.805   6.295   9.353 -0.7112  0.4642 -0.6256
   13CHL1   C16  909   4.747   6.253   9.144  0.0552 -0.2773 -0.0437
   13CHL1  H16A  910   4.684   6.326   9.088 -0.9601  0.9763  2.6362
   13CHL1  H16B  911   4.855   6.276   9.132  0.3960 -0.1055  2.9560
   13CHL1   C17  912   4.696   6.114   9.094 -0.5980  0.5624  0.7788
   13CHL1   H17  913   4.788   6.052   9.102  0.2185  1.6670  0.0339
   13CHL1   C13  914   4.590   6.075   9.204  0.2655  0.5678 -0.1686
   13CHL1   C18  915   4.458   6.153   9.171  0.6854  0.4526  0.1330
   13CHL1  H18A  916   4.422   6.125   9.070  0.2089 -1.6882  0.8850
   13CHL1  H18B  917   4.381   6.129   9.247  1.5644 -0.6488  0.6805
   13CHL1  H18C  918   4.481   6.262   9.178 -2.6200  1.1630  0.8733
   13CHL1   C12  919   4.555   5.929   9.223  0.2096  0.1491  0.6102
   13CHL1  H12A  920   4.485   5.891   9.145 -0.5497  0.8754  0.9260
   13CHL1  H12B  921   4.651   5.873   9.224 -0.8830 -1.7716  0.3177
   13CHL1   C11  922   4.475   5.915   9.362  0.1746  0.1635  0.5991
   13CHL1  H11A  923   4.369   5.944   9.353  0.3367  0.3793 -0.7606
   13CHL1  H11B  924   4.462   5.809   9.394  0.1590  0.5471  1.8802
   13CHL1    C9  925   4.534   5.982   9.489  0.1615 -0.9490 -0.3670
   13CHL1    H9  926   4.626   5.924   9.510  0.9644  0.5584  0.3547
   13CHL1   C10  927   4.450   5.971   9.625  0.4362  0.3374 -0.1905
   13CHL1   C19  928   4.313   6.044   9.600 -0.4453  0.1982 -0.8346
   13CHL1  H19A  929   4.252   6.000   9.518 -0.5767  0.2194 -0.7499
   13CHL1  H19B  930   4.252   6.041   9.693 -1.7456  0.3217 -1.6681
   13CHL1  H19C  931   4.330   6.148   9.565 -0.0734  0.7719  1.0081
   13CHL1    C1  932   4.430   5.819   9.651 -0.4902 -0.8958  0.4443
   13CHL1   H1A  933   4.357   5.788   9.573 -0.2228  0.5626 -0.4085
   13CHL1   H1B  934   4.524   5.763   9.633 -0.3764 -0.2726 -0.9514
   13CHL1    C2  935   4.371   5.789   9.783  0.0641 -0.3378 -0.1676
   13CHL1   H2A  936   4.363   5.681   9.804 -0.8032 -0.1865  0.3229
   13CHL1   H2B  937   4.270   5.832   9.798  0.8957  1.1973  1.3109
   13CHL1   C20  938   4.650   6.125   8.946  0.3132  0.0052 -0.4304
   13CHL1   H20  939   4.567   6.200   8.946 -1.4272 -1.8567  0.8567
   13CHL1   C21  940   4.601   5.989   8.894 -0.5454  0.8052 -0.2749
   13CHL1  H21A  941   4.527   5.944   8.963  1.9993 -3.2405  0.0090
   13CHL1  H21B  942   4.680   5.913   8.876 -0.7495  0.8926 -1.5798
   13CHL1  H21C  943   4.541   6.011   8.803 -0.7326  0.4874 -0.2288
   13CHL1   C22  944   4.757   6.189   8.853  0.6291  0.0015  0.9845
   13CHL1  H22A  945   4.797   6.282   8.898 -0.7114  0.7792  0.6043
   13CHL1  H22B  946   4.844   6.121   8.839  2.8559  3.0644 -0.8382
   13CHL1   C23  947   4.716   6.228   8.710 -0.3640 -0.1284 -0.6531
   13CHL1  H23A  948   4.688   6.137   8.653 -1.1092  0.1266 -0.6987
   13CHL1  H23B  949   4.629   6.297   8.708 -2.2896 -2.4736 -2.0157
   13CHL1   C24  950   4.844   6.278   8.634  0.0202 -0.1058  0.2409
   13CHL1  H24A  951   4.897   6.357   8.691  0.2116 -1.4913  2.0358
   13CHL1  H24B  952   4.909   6.191   8.612  1.0617  0.1020  2.4017
   13CHL1   C25  953   4.794   6.344   8.496 -0.2505  0.3302 -0.3116
   13CHL1   H25  954   4.887   6.384   8.452  0.3640  0.8150  1.3737
   13CHL1   C26  955   4.730   6.233   8.408  0.0792 -0.5814 -0.8546
   13CHL1  H26A  956   4.727   6.262   8.301  0.0591  1.2281 -0.3808
   13CHL1  H26B  957   4.791   6.141   8.416 -0.9638 -1.2427 -0.3461
   13CHL1  H26C  958   4.625   6.211   8.438  0.8721 -3.6636 -0.1077
   13CHL1   C27  959   4.711   6.464   8.514  0.4400  0.0017 -0.2574
   13CHL1  H27A  960   4.702   6.518   8.417 -2.2515  1.2089  0.6161
   13CHL1  H27B  961   4.610   6.434   8.551  0.9532  1.9835  2.9832
   13CHL1  H27C  962   4.758   6.535   8.585  1.5422 -0.3339 -0.6516
   14CHL1    C3  963   4.095   2.810  10.364 -0.5258  0.4196  0.0136
   14CHL1    H3  964   3.984   2.796  10.361 -0.5226  0.1471  0.9510
   14CHL1    O3  965   4.137   2.820  10.498 -0.5401  0.1539  0.0401
   14CHL1   H3'  966   4.229   2.845  10.487 -0.8874  0.3720 -2.7484
   14CHL1    C4  967   4.160   2.690  10.297 -0.2309  0.1052 -0.6092
   14CHL1   H4A  968   4.270   2.693  10.311 -0.3518 -0.3698  0.5629
   14CHL1   H4B  969   4.127   2.595  10.345 -1.4036  0.3188 -0.9796
   14CHL1    C5  970   4.138   2.676  10.152 -0.3410 -0.2952  0.2070
   14CHL1    C6  971   4.093   2.563  10.088 -0.8234  0.5458  0.2876
   14CHL1    H6  972   4.058   2.481  10.152 -0.4638 -0.5910 -0.9396
   14CHL1    C7  973   4.102   2.546   9.935  0.1766 -1.0389 -0.3446
   14CHL1   H7A  974   4.152   2.449   9.914  1.6830 -0.3992  0.2275
   14CHL1   H7B  975   4.001   2.540   9.890  0.0382  0.2217 -0.2194
   14CHL1    C8  976   4.162   2.665   9.854 -1.1030 -0.1761  0.6577
   14CHL1    H8  977   4.272   2.650   9.858 -1.0941  0.2566  2.4913
   14CHL1   C14  978   4.123   2.655   9.709  0.9331 -0.1182  0.1989
   14CHL1   H14  979   4.015   2.679   9.712  1.3315  1.7187  0.3286
   14CHL1   C15  980   4.127   2.521   9.634 -0.3402  0.2866  0.2922
   14CHL1  H15A  981   4.235   2.496   9.633  0.0070  1.7933 -1.6588
   14CHL1  H15B  982   4.073   2.437   9.683 -0.2524 -0.2792 -0.5702
   14CHL1   C16  983   4.090   2.568   9.493  0.0174 -0.4669  0.1025
   14CHL1  H16A  984   4.146   2.506   9.420 -1.1096 -1.7803  0.3289
   14CHL1  H16B  985   3.981   2.554   9.480 -0.2836  0.4777  1.4685
   14CHL1   C17  986   4.107   2.725   9.489 -0.8842 -0.9651  0.0076
   14CHL1   H17  987   4.011   2.779   9.504  0.2792  0.3334  3.0688
   14CHL1   C13  988   4.178   2.767   9.621 -0.8013  0.5202 -0.5147
   14CHL1   C18  989   4.335   2.757   9.613  0.4960 -0.0665  0.1124
   14CHL1  H18A  990   4.360   2.827   9.531 -1.2705 -0.4056 -0.7368
   14CHL1  H18B  991   4.390   2.787   9.705  0.5381  0.8966 -0.2239
   14CHL1  H18C  992   4.367   2.654   9.586  0.3124  0.6694 -3.1139
   14CHL1   C12  993   4.133   2.903   9.679  0.1818 -0.3343  0.1377
   14CHL1  H12A  994   4.171   2.993   9.625 -0.9445  0.0200 -0.0667
   14CHL1  H12B  995   4.024   2.913   9.660 -0.1601 -0.5915  1.9159
   14CHL1   C11  996   4.168   2.917   9.824  0.0449  0.1440 -0.4528
   14CHL1  H11A  997   4.274   2.949   9.824  1.1024 -3.1668  0.9448
   14CHL1  H11B  998   4.108   3.004   9.860 -0.7843 -0.9115  0.7943
   14CHL1    C9  999   4.127   2.795   9.915  0.1675 -0.0617  0.6546
   14CHL1    H9 1000   4.016   2.798   9.912  0.1921  0.4865  0.2261
   14CHL1   C10 1001   4.178   2.800  10.068  0.5000  0.1285 -0.3391
   14CHL1   C19 1002   4.333   2.808  10.064  0.4829 -0.1552  0.0769
   14CHL1  H19A 1003   4.365   2.826  10.169  0.6449  1.7121 -0.2723
   14CHL1  H19B 1004   4.362   2.705  10.033 -2.8384 -0.8698 -0.8305
   14CHL1  H19C 1005   4.386   2.885  10.004 -0.3943  0.7401  0.4296
   14CHL1    C1 1006   4.120   2.923  10.141  0.1584  0.4598 -0.3921
   14CHL1   H1A 1007   4.144   3.021  10.096  0.7564  0.7338  0.5064
   14CHL1   H1B 1008   4.010   2.911  10.141 -0.1770  2.9805  2.0045
   14CHL1    C2 1009   4.140   2.934  10.291 -0.4990 -0.4414 -0.1675
   14CHL1   H2A 1010   4.071   3.010  10.333 -1.8498 -1.1049 -1.1561
   14CHL1   H2B 1011   4.244   2.968  10.309 -0.3739 -1.6040  1.4323
   14CHL1   C20 1012   4.151   2.761   9.349 -0.0745 -0.0631  0.1830
   14CHL1   H20 1013   4.254   2.718   9.341 -0.3244 -0.7270  0.5133
   14CHL1   C21 1014   4.157   2.916   9.331 -0.7367 -0.1579 -0.6289
   14CHL1  H21A 1015   4.216   2.964   9.412 -0.8939 -0.5085 -0.3075
   14CHL1  H21B 1016   4.050   2.942   9.324 -0.2084  3.0787  1.7113
   14CHL1  H21C 1017   4.219   2.929   9.239  0.4704 -0.6636  0.0947
   14CHL1   C22 1018   4.076   2.689   9.230  0.6411 -0.1792 -0.6904
   14CHL1  H22A 1019   4.070   2.579   9.238 -0.6680  0.0038  1.1842
   14CHL1  H22B 1020   3.975   2.728   9.208  0.4571  0.1909  0.7213
   14CHL1   C23 1021   4.158   2.719   9.099 -0.2481  0.0423 -0.3483
   14CHL1  H23A 1022   4.130   2.822   9.070 -1.1434 -0.0131  0.3258
   14CHL1  H23B 1023   4.267   2.699   9.090 -0.1695  0.0366  0.6246
   14CHL1   C24 1024   4.093   2.642   8.982  1.0840 -0.0864 -0.3094
   14CHL1  H24A 1025   4.125   2.537   8.998  2.1491  0.2409 -0.2237
   14CHL1  H24B 1026   3.983   2.650   8.998  1.1753  0.5915  0.0157
   14CHL1   C25 1027   4.102   2.701   8.843  0.2932 -0.3920 -0.2466
   14CHL1   H25 1028   4.032   2.786   8.837 -1.7009 -2.1124 -2.3721
   14CHL1   C26 1029   4.242   2.758   8.803 -0.8882  0.3804 -0.2688
   14CHL1  H26A 1030   4.276   2.829   8.882 -0.3721  0.0087 -0.1513
   14CHL1  H26B 1031   4.319   2.678   8.794 -2.2581 -1.0026  0.1650
   14CHL1  H26C 1032   4.239   2.813   8.707 -0.6127  0.3995 -0.2703
   14CHL1   C27 1033   4.068   2.600   8.734  0.2229 -0.6182 -0.2472
   14CHL1  H27A 1034   4.150   2.526   8.721  1.0548  0.2045  0.2600
   14CHL1  H27B 1035   3.978   2.535   8.744 -0.8992  0.6143 -1.9573
   14CHL1  H27C 1036   4.055   2.658   8.640  1.8314  0.6530  0.2931
   15CHL1    C3 1037   4.123   1.475  10.092  0.5806  0.2285  0.2342
   15CHL1    H3 1038   4.227   1.440  10.071  1.1841  2.3801 -0.5006
   15CHL1    O3 1039   4.074   1.437  10.219  0.4417 -0.7592  0.7934
   15CHL1   H3' 1040   3.997   1.492  10.234  0.3006 -0.7009 -0.1401
   15CHL1    C4 1041   4.111   1.629  10.073 -0.2892 -0.1225  0.1771
   15CHL1   H4A 1042   4.012   1.660  10.114 -1.4116 -0.8024 -1.9760
   15CHL1   H4B 1043   4.183   1.674  10.146 -0.3924 -1.1556  0.9236
   15CHL1    C5 1044   4.143   1.681   9.934  0.5385  0.1118 -0.5999
   15CHL1    C6 1045   4.247   1.763   9.906  0.9171 -0.5814 -0.0387
   15CHL1    H6 1046   4.310   1.808   9.985  0.2058  0.2405  0.0634
   15CHL1    C7 1047   4.282   1.806   9.761 -0.1000  0.2771  0.0314
   15CHL1   H7A 1048   4.296   1.916   9.760 -1.6524  0.4787 -0.5357
   15CHL1   H7B 1049   4.378   1.755   9.740 -0.9555 -1.5967  0.5727
   15CHL1    C8 1050   4.170   1.759   9.657 -0.5465 -0.6892 -0.2691
   15CHL1    H8 1051   4.090   1.836   9.660  0.2706  0.1314  1.2904
   15CHL1   C14 1052   4.247   1.763   9.524 -0.5028  0.2209 -0.2182
   15CHL1   H14 1053   4.325   1.684   9.532 -0.4033  0.2487 -0.8731
   15CHL1   C15 1054   4.340   1.879   9.497 -0.7480 -0.6541 -0.4553
   15CHL1  H15A 1055   4.278   1.970   9.513  1.1642  0.4849  0.6413
   15CHL1  H15B 1056   4.433   1.877   9.558 -1.3061  2.1439  0.5870
   15CHL1   C16 1057   4.366   1.865   9.347  0.1205  0.1292 -0.5067
   15CHL1  H16A 1058   4.362   1.964   9.297  0.7913  0.6657  0.4996
   15CHL1  H16B 1059   4.469   1.828   9.329  0.7756  0.4242  2.3388
   15CHL1   C17 1060   4.273   1.750   9.293  0.2356  0.4176 -0.0099
   15CHL1   H17 1061   4.342   1.663   9.290 -1.8460 -1.3022  0.3405
   15CHL1   C13 1062   4.166   1.726   9.401 -0.2410 -0.3279  0.5212
   15CHL1   C18 1063   4.059   1.838   9.388 -0.4223 -0.0983  0.2763
   15CHL1  H18A 1064   4.110   1.935   9.365 -1.0987  0.3769  0.7412
   15CHL1  H18B 1065   3.991   1.817   9.304  0.8784 -1.1489 -0.5416
   15CHL1  H18C 1066   3.995   1.860   9.476  0.6262  0.2070  0.9851
   15CHL1   C12 1067   4.098   1.591   9.418 -0.3044  0.1453 -0.0213
   15CHL1  H12A 1068   4.030   1.563   9.335  1.1857  0.0319 -1.2245
   15CHL1  H12B 1069   4.188   1.527   9.407 -0.1094  0.4996 -0.5066
   15CHL1   C11 1070   4.032   1.575   9.561 -0.0549  0.3440  0.0298
   15CHL1  H11A 1071   3.946   1.646   9.567 -0.2060  0.1653 -0.0089
   15CHL1  H11B 1072   3.986   1.474   9.561 -0.3369  0.4714 -0.3672
   15CHL1    C9 1073   4.118   1.619   9.677  0.6535  0.4433 -0.5833
   15CHL1    H9 1074   4.212   1.561   9.682 -0.7559 -1.9283 -0.8541
   15CHL1   C10 1075   4.059   1.603   9.822  0.2111  0.1962  0.1735
   15CHL1   C19 1076   3.920   1.669   9.825  0.1534  0.4903  0.5129
   15CHL1  H19A 1077   3.939   1.778   9.814 -0.8465  0.6017 -0.1045
   15CHL1  H19B 1078   3.859   1.627   9.743  0.4800  1.6328 -0.3224
   15CHL1  H19C 1079   3.870   1.647   9.922 -0.2479 -1.0189 -0.0216
   15CHL1    C1 1080   4.060   1.453   9.848  0.1834  0.1684 -0.1819
   15CHL1   H1A 1081   3.995   1.402   9.775  1.2387  0.1884 -1.1528
   15CHL1   H1B 1082   4.164   1.416   9.831  0.5154  1.2775 -0.5672
   15CHL1    C2 1083   4.034   1.407   9.991  0.7354 -0.6308 -0.3792
   15CHL1   H2A 1084   4.042   1.296   9.985 -2.3252 -1.0976  2.6376
   15CHL1   H2B 1085   3.924   1.422  10.005  1.3188  0.8269  3.1753
   15CHL1   C20 1086   4.230   1.782   9.143 -0.3692  0.2862  0.3366
   15CHL1   H20 1087   4.171   1.876   9.140 -0.4242  0.2191 -1.7462
   15CHL1   C21 1088   4.136   1.663   9.097 -0.0049  0.1694  0.7410
   15CHL1  H21A 1089   4.041   1.677   9.154 -0.2747 -0.5821  0.4781
   15CHL1  H21B 1090   4.173   1.560   9.116 -0.8190 -0.4693 -1.0190
   15CHL1  H21C 1091   4.116   1.659   8.988  1.8529 -1.5517  0.4414
   15CHL1   C22 1092   4.354   1.804   9.045 -0.3359  0.2876 -0.3523
   15CHL1  H22A 1093   4.415   1.888   9.083  1.5238 -0.7627 -0.9508
   15CHL1  H22B 1094   4.419   1.715   9.056 -0.3672  0.3135  0.0175
   15CHL1   C23 1095   4.322   1.840   8.893 -0.2076  0.1363  0.0089
   15CHL1  H23A 1096   4.246   1.773   8.849  0.8161 -2.4418  2.0730
   15CHL1  H23B 1097   4.285   1.945   8.888 -1.1137 -0.2723 -2.9808
   15CHL1   C24 1098   4.452   1.809   8.810 -0.2760  0.4122 -0.4731
   15CHL1  H24A 1099   4.531   1.886   8.827  0.0741 -0.2919  1.1893
   15CHL1  H24B 1100   4.492   1.713   8.848 -2.0176 -1.0775 -2.2847
   15CHL1   C25 1101   4.441   1.784   8.656  0.0391  0.4297 -0.1938
   15CHL1   H25 1102   4.391   1.874   8.613 -1.9231 -1.1367 -1.2959
   15CHL1   C26 1103   4.580   1.769   8.596 -0.2219 -0.4274 -0.1499
   15CHL1  H26A 1104   4.639   1.863   8.588  0.2015 -0.4853  1.9916
   15CHL1  H26B 1105   4.631   1.675   8.628 -0.4832 -1.8565 -3.7156
   15CHL1  H26C 1106   4.557   1.754   8.488 -1.7629  1.5857 -0.1254
   15CHL1   C27 1107   4.351   1.660   8.621 -0.6934  0.0591 -0.5746
   15CHL1  H27A 1108   4.341   1.640   8.512  0.0701 -0.4349 -0.5581
   15CHL1  H27B 1109   4.396   1.568   8.663 -2.2683 -0.9951 -1.1462
   15CHL1  H27C 1110   4.251   1.677   8.667  0.9172 -0.7959  3.4110
   16CHL1    C3 1111   5.182   2.227  10.261  0.7083  0.1430  0.3885
   16CHL1    H3 1112   5.183   2.329  10.215  1.4553  0.2095  0.5350
   16CHL1    O3 1113   5.154   2.228  10.401  0.1492 -0.3966 -0.0604
   16CHL1   H3' 1114   5.230   2.273  10.437  0.3405 -1.7472  1.2878
   16CHL1    C4 1115   5.072   2.144  10.193  0.4812  0.2186  0.1144
   16CHL1   H4A 1116   5.084   2.041  10.233  1.5090 -0.1511 -1.0947
   16CHL1   H4B 1117   4.976   2.189  10.226  0.5974  0.1722  0.5283
   16CHL1    C5 1118   5.095   2.143  10.041 -0.1043 -0.2036 -0.1086
   16CHL1    C6 1119   4.999   2.190   9.957  0.4223  0.8171  0.3596
   16CHL1    H6 1120   4.911   2.233  10.007 -2.2042 -2.7247 -1.0743
   16CHL1    C7 1121   5.013   2.206   9.808  0.4709  0.9008 -0.9002
   16CHL1   H7A 1122   4.921   2.174   9.756  0.2655  2.0621 -1.2703
   16CHL1   H7B 1123   5.040   2.311   9.785 -0.2217  1.3452  0.2502
   16CHL1    C8 1124   5.135   2.127   9.755  0.4449  0.0101 -0.0941
   16CHL1    H8 1125   5.098   2.022   9.751 -1.8611  0.7766  0.1410
   16CHL1   C14 1126   5.164   2.163   9.613  0.0008  0.3055 -0.7385
   16CHL1   H14 1127   5.193   2.270   9.612 -0.1486  0.3455 -0.7085
   16CHL1   C15 1128   5.038   2.156   9.519  0.3054 -0.2011  0.2870
   16CHL1  H15A 1129   4.983   2.061   9.531  0.9795 -0.8074 -1.3175
   16CHL1  H15B 1130   4.966   2.240   9.530  1.3217  0.8613 -0.9482
   16CHL1   C16 1131   5.103   2.162   9.383 -0.8537  0.2425  0.2274
   16CHL1  H16A 1132   5.068   2.087   9.308  1.2941  0.5003 -1.0985
   16CHL1  H16B 1133   5.108   2.259   9.328  1.0930  0.0830  0.0776
   16CHL1   C17 1134   5.254   2.134   9.400 -0.0381  0.4786 -0.2247
   16CHL1   H17 1135   5.308   2.230   9.392  0.0335  0.6672  2.2075
   16CHL1   C13 1136   5.276   2.080   9.545  0.3432 -0.5643  0.0876
   16CHL1   C18 1137   5.231   1.934   9.533 -0.1037  0.3558 -0.0864
   16CHL1  H18A 1138   5.205   1.894   9.634  1.9203 -1.0710 -0.1072
   16CHL1  H18B 1139   5.140   1.911   9.473  0.0839 -2.1495  0.5094
   16CHL1  H18C 1140   5.308   1.864   9.496 -2.3443 -1.2332 -1.9310
   16CHL1   C12 1141   5.404   2.108   9.627 -0.0883 -0.3605 -0.0808
   16CHL1  H12A 1142   5.496   2.066   9.580  0.6409 -0.3801  1.3562
   16CHL1  H12B 1143   5.416   2.218   9.618 -0.7201 -0.4335 -1.9750
   16CHL1   C11 1144   5.385   2.065   9.773 -0.7929 -0.5220 -0.3451
   16CHL1  H11A 1145   5.349   1.960   9.773 -0.3348 -0.6994  1.6927
   16CHL1  H11B 1146   5.478   2.074   9.833 -1.7275  1.4785  0.8802
   16CHL1    C9 1147   5.266   2.145   9.838 -0.0997  0.4348 -0.4254
   16CHL1    H9 1148   5.305   2.249   9.836  1.6735 -0.2102 -0.0210
   16CHL1   C10 1149   5.239   2.107   9.989 -0.0912 -0.0521  0.0434
   16CHL1   C19 1150   5.235   1.951  10.001 -0.0913  0.2553 -0.3797
   16CHL1  H19A 1151   5.337   1.909   9.991  0.4283  0.1892  4.2025
   16CHL1  H19B 1152   5.202   1.908  10.098  0.1842  0.3123 -0.2615
   16CHL1  H19C 1153   5.169   1.909   9.921  1.3774  0.3741 -1.6907
   16CHL1    C1 1154   5.346   2.171  10.082 -0.4040  0.5692  0.0871
   16CHL1   H1A 1155   5.446   2.124  10.066 -0.9453  0.2470 -2.6948
   16CHL1   H1B 1156   5.355   2.280  10.063  1.3893  0.3615 -0.3509
   16CHL1    C2 1157   5.317   2.155  10.227  0.3053  0.0682  0.1378
   16CHL1   H2A 1158   5.394   2.184  10.301  1.4094  0.6482 -1.2179
   16CHL1   H2B 1159   5.302   2.048  10.250  2.4695 -0.3079 -0.1253
   16CHL1   C20 1160   5.317   2.046   9.284 -0.9663  0.1378 -0.3719
   16CHL1   H20 1161   5.272   1.946   9.302  0.1164 -0.0711  1.2378
   16CHL1   C21 1162   5.471   2.026   9.299  0.8692 -0.2807 -0.4675
   16CHL1  H21A 1163   5.486   1.960   9.387 -1.1214 -1.4710 -0.9987
   16CHL1  H21B 1164   5.524   2.121   9.319  1.2738 -1.1304  2.7778
   16CHL1  H21C 1165   5.514   1.970   9.213 -0.8405  1.6340 -2.6658
   16CHL1   C22 1166   5.277   2.101   9.140 -0.0392 -0.6469  0.5731
   16CHL1  H22A 1167   5.288   2.029   9.056 -0.9825  0.6583 -0.7102
   16CHL1  H22B 1168   5.168   2.113   9.119  0.0055 -1.9612 -0.5095
   16CHL1   C23 1169   5.347   2.229   9.106 -0.1453 -0.2662 -0.0821
   16CHL1  H23A 1170   5.328   2.323   9.162 -0.8404  0.5709 -1.6655
   16CHL1  H23B 1171   5.455   2.206   9.093 -0.4369 -0.5256 -2.4101
   16CHL1   C24 1172   5.301   2.287   8.967  0.1596  0.3032  0.6629
   16CHL1  H24A 1173   5.385   2.349   8.931  0.6700 -0.8854 -0.2272
   16CHL1  H24B 1174   5.298   2.200   8.898 -0.5038 -1.2947  2.6367
   16CHL1   C25 1175   5.175   2.368   8.953  0.4558 -0.2522  0.2752
   16CHL1   H25 1176   5.093   2.295   8.966 -1.3902  1.7981  0.4787
   16CHL1   C26 1177   5.153   2.482   9.055 -0.1946  0.8486 -0.0069
   16CHL1  H26A 1178   5.051   2.524   9.044 -0.1128  0.7183 -1.3505
   16CHL1  H26B 1179   5.159   2.431   9.153  0.2716 -0.7055 -0.8165
   16CHL1  H26C 1180   5.226   2.565   9.049  2.0459 -0.8179  2.8988
   16CHL1   C27 1181   5.162   2.420   8.809  0.1634  0.1528 -1.2631
   16CHL1  H27A 1182   5.128   2.344   8.736 -2.9633  0.3567 -0.0853
   16CHL1  H27B 1183   5.087   2.501   8.812 -1.0463 -0.9628  2.5598
   16CHL1  H27C 1184   5.254   2.468   8.769 -0.0148  0.0890 -1.7491
   17CHL1    C3 1185   1.049   5.654  10.420 -0.0190  0.0434 -0.8645
   17CHL1    H3 1186   1.110   5.744  10.398  1.9462 -1.4386 -1.5991
   17CHL1    O3 1187   1.051   5.619  10.554 -0.2663 -0.9733 -0.0302
   17CHL1   H3' 1188   1.009   5.696  10.594  2.5885  0.2481  0.6757
   17CHL1    C4 1189   0.904   5.690  10.389  0.9297  0.4078  0.8408
   17CHL1   H4A 1190   0.847   5.598  10.415  0.6039 -0.2140 -1.9094
   17CHL1   H4B 1191   0.864   5.775  10.449  1.3316  2.4755 -1.7281
   17CHL1    C5 1192   0.883   5.714  10.240 -0.3905 -1.0005  0.7621
   17CHL1    C6 1193   0.827   5.822  10.187 -0.5675  0.1013 -0.6652
   17CHL1    H6 1194   0.792   5.891  10.266 -0.7165 -0.3029 -0.3771
   17CHL1    C7 1195   0.799   5.848  10.043  0.2541 -0.7567 -0.1158
   17CHL1   H7A 1196   0.695   5.878  10.019  0.4501  0.5297  0.6043
   17CHL1   H7B 1197   0.862   5.936  10.016 -0.0494 -0.1390  1.1532
   17CHL1    C8 1198   0.826   5.726   9.952  0.2771 -1.0297  0.3546
   17CHL1    H8 1199   0.741   5.655   9.962 -1.1905  0.5153 -0.8017
   17CHL1   C14 1200   0.817   5.765   9.805  0.5494  0.0018 -0.1873
   17CHL1   H14 1201   0.897   5.840   9.787  0.1390  0.4596 -0.1145
   17CHL1   C15 1202   0.694   5.838   9.734  0.0519 -0.3591 -0.3217
   17CHL1  H15A 1203   0.598   5.794   9.770  0.9012 -0.9300  1.3134
   17CHL1  H15B 1204   0.685   5.948   9.742  0.7492 -0.3310  0.1827
   17CHL1   C16 1205   0.708   5.801   9.582  0.3118 -0.4644 -0.2770
   17CHL1  H16A 1206   0.615   5.748   9.554  0.5806 -1.3238  0.4492
   17CHL1  H16B 1207   0.743   5.896   9.535  1.5214 -1.2746 -1.0260
   17CHL1   C17 1208   0.830   5.708   9.568  1.0005  0.2926  0.1301
   17CHL1   H17 1209   0.925   5.764   9.559  1.5027 -0.6890 -0.9618
   17CHL1   C13 1210   0.848   5.649   9.710 -0.3494 -0.4978 -0.7898
   17CHL1   C18 1211   0.741   5.531   9.727 -0.3639 -0.3188 -0.4231
   17CHL1  H18A 1212   0.641   5.568   9.697 -0.6299 -2.5863 -2.5125
   17CHL1  H18B 1213   0.763   5.449   9.655 -0.3736 -0.6307 -0.0679
   17CHL1  H18C 1214   0.745   5.487   9.828 -2.9497 -0.9318 -0.5658
   17CHL1   C12 1215   0.999   5.606   9.751  0.2174 -0.1851  0.0958
   17CHL1  H12A 1216   1.042   5.527   9.686  1.4741  0.3314  0.2850
   17CHL1  H12B 1217   1.057   5.699   9.737  0.7169 -0.6583 -1.0162
   17CHL1   C11 1218   1.009   5.560   9.897  0.3088 -0.7930 -0.7829
   17CHL1  H11A 1219   0.963   5.459   9.896  0.5439 -0.9014 -0.6232
   17CHL1  H11B 1220   1.118   5.556   9.918  0.2102 -0.8866 -0.2766
   17CHL1    C9 1221   0.954   5.659  10.003  0.6677  0.3418  0.5060
   17CHL1    H9 1222   1.029   5.741  10.011 -0.7754  1.7604 -0.3120
   17CHL1   C10 1223   0.945   5.601  10.146 -0.3336  0.8999 -0.1210
   17CHL1   C19 1224   0.851   5.481  10.153  0.0711 -0.2670 -0.1192
   17CHL1  H19A 1225   0.822   5.458  10.258 -0.0043  0.9084  0.1284
   17CHL1  H19B 1226   0.761   5.489  10.089  1.2683  0.5414 -1.7547
   17CHL1  H19C 1227   0.906   5.393  10.112 -0.5370 -0.6078 -0.1993
   17CHL1    C1 1228   1.090   5.566  10.186  0.4252  0.3606  0.2501
   17CHL1   H1A 1229   1.133   5.485  10.123  2.5723  0.2849  1.7793
   17CHL1   H1B 1230   1.158   5.650  10.164  1.4378 -0.4227  0.3477
   17CHL1    C2 1231   1.102   5.534  10.331  0.2582  0.9092  0.4664
   17CHL1   H2A 1232   1.208   5.521  10.360  0.3005  2.4582  1.0495
   17CHL1   H2B 1233   1.040   5.445  10.355 -0.0712  0.9113 -0.3873
   17CHL1   C20 1234   0.828   5.609   9.448 -0.6971  0.2367 -0.2998
   17CHL1   H20 1235   0.743   5.538   9.460  0.2009 -1.2384 -2.3569
   17CHL1   C21 1236   0.955   5.523   9.447  0.6725 -0.0841 -0.2884
   17CHL1  H21A 1237   1.046   5.587   9.454  0.8517  0.0194 -2.9674
   17CHL1  H21B 1238   0.970   5.461   9.356 -1.6588 -0.9780 -0.0814
   17CHL1  H21C 1239   0.950   5.444   9.525 -1.0101 -1.2603 -1.5530
   17CHL1   C22 1240   0.798   5.683   9.315  0.7391  0.0943  0.2949
   17CHL1  H22A 1241   0.689   5.698   9.326  0.7365 -0.5244  1.1016
   17CHL1  H22B 1242   0.850   5.781   9.303 -1.5601  1.1375 -1.3378
   17CHL1   C23 1243   0.816   5.600   9.183  0.3817  0.9536 -0.2283
   17CHL1  H23A 1244   0.920   5.559   9.186  0.0101 -0.0359 -0.5509
   17CHL1  H23B 1245   0.743   5.517   9.178  1.7322 -0.1931 -1.5310
   17CHL1   C24 1246   0.809   5.690   9.059 -0.0856  0.4811 -0.1675
   17CHL1  H24A 1247   0.717   5.751   9.061 -2.0467 -2.3919  0.4886
   17CHL1  H24B 1248   0.898   5.756   9.058 -0.5275  1.1236  2.1696
   17CHL1   C25 1249   0.831   5.619   8.931 -0.5106  0.1159 -0.1313
   17CHL1   H25 1250   0.930   5.569   8.926  0.2086  1.3333  1.4792
   17CHL1   C26 1251   0.719   5.513   8.916 -0.6290  0.2174  0.0142
   17CHL1  H26A 1252   0.621   5.539   8.962  0.3078  2.2889  0.9482
   17CHL1  H26B 1253   0.701   5.491   8.809  0.0776  2.4447 -0.5974
   17CHL1  H26C 1254   0.760   5.421   8.962  0.3017 -0.4610 -2.1427
   17CHL1   C27 1255   0.816   5.714   8.812  0.0749 -0.3071 -0.0480
   17CHL1  H27A 1256   0.851   5.652   8.728 -0.3139 -1.3237  0.5291
   17CHL1  H27B 1257   0.708   5.738   8.804  0.3348  0.8483 -0.1619
   17CHL1  H27C 1258   0.877   5.806   8.802 -1.5317  0.5445 -2.5139
   18CHL1    C3 1259   0.015   4.129   9.962 -0.1287  0.4579  0.1472
   18CHL1    H3 1260  -0.090   4.113   9.932  0.4754 -1.5993 -0.9113
   18CHL1    O3 1261   0.019   4.153  10.108  0.1090 -1.0009  0.0271
   18CHL1   H3' 1262   0.111   4.141  10.133 -0.3309  0.4728  2.4535
   18CHL1    C4 1263   0.107   4.006   9.925 -0.6166  0.2453 -0.4904
   18CHL1   H4A 1264   0.205   4.034   9.969 -0.3059 -0.9895 -0.3673
   18CHL1   H4B 1265   0.062   3.918   9.977 -2.4683  1.7066  0.4384
   18CHL1    C5 1266   0.119   3.990   9.776 -0.3256 -0.0259 -0.2104
   18CHL1    C6 1267   0.086   3.876   9.714 -0.0533  0.6239  0.0732
   18CHL1    H6 1268   0.045   3.793   9.774 -0.5728  0.3668 -0.6239
   18CHL1    C7 1269   0.096   3.842   9.567 -0.4698 -0.0031  0.5735
   18CHL1   H7A 1270   0.139   3.746   9.530  0.1517  0.9094 -1.1234
   18CHL1   H7B 1271  -0.003   3.864   9.522 -1.2558 -1.3737  1.5994
   18CHL1    C8 1272   0.188   3.952   9.499 -0.0465  0.1676 -0.0862
   18CHL1    H8 1273   0.289   3.925   9.535  0.1141  1.1210  0.1962
   18CHL1   C14 1274   0.171   3.939   9.352 -0.3457  0.2901  0.2059
   18CHL1   H14 1275   0.063   3.941   9.328 -0.5461 -3.5867  0.4016
   18CHL1   C15 1276   0.215   3.801   9.283 -0.4729 -0.5111  0.6612
   18CHL1  H15A 1277   0.302   3.754   9.335 -0.6766  0.3946  1.8555
   18CHL1  H15B 1278   0.132   3.729   9.266 -0.5117 -0.6955  1.6136
   18CHL1   C16 1279   0.254   3.839   9.132  0.0465 -0.1641 -0.2483
   18CHL1  H16A 1280   0.357   3.802   9.116 -0.0701 -0.3876 -0.4816
   18CHL1  H16B 1281   0.185   3.785   9.064 -1.1773  1.2935 -0.1899
   18CHL1   C17 1282   0.228   3.990   9.128  0.4069 -0.0231  0.3096
   18CHL1   H17 1283   0.119   3.995   9.107  0.6141 -2.7734 -1.6336
   18CHL1   C13 1284   0.248   4.045   9.273  0.1456  0.3947  0.2240
   18CHL1   C18 1285   0.404   4.050   9.314 -0.0661 -0.3868  0.0239
   18CHL1  H18A 1286   0.450   4.137   9.264 -3.5950  1.8063  0.4054
   18CHL1  H18B 1287   0.413   4.062   9.424 -0.3490  2.1601 -0.1918
   18CHL1  H18C 1288   0.445   3.950   9.289  0.3255 -0.4552  0.9300
   18CHL1   C12 1289   0.171   4.172   9.309 -0.2986  0.6986 -0.1014
   18CHL1  H12A 1290   0.214   4.254   9.247  0.2622  0.2565 -0.3108
   18CHL1  H12B 1291   0.063   4.168   9.285  0.7094 -0.1185 -5.1630
   18CHL1   C11 1292   0.191   4.210   9.456  0.9420  0.3469 -0.3389
   18CHL1  H11A 1293   0.292   4.249   9.481  0.5579  1.0201  0.1739
   18CHL1  H11B 1294   0.129   4.301   9.472 -0.3975 -0.5215 -0.4966
   18CHL1    C9 1295   0.141   4.093   9.552 -0.0933  0.0169  0.0886
   18CHL1    H9 1296   0.031   4.099   9.540 -0.1465  2.0649  1.4864
   18CHL1   C10 1297   0.169   4.114   9.702  0.7809  0.2616  0.6623
   18CHL1   C19 1298   0.319   4.131   9.731 -0.0447 -0.4160 -0.5316
   18CHL1  H19A 1299   0.333   4.152   9.840  3.8511  0.5651 -1.1501
   18CHL1  H19B 1300   0.375   4.037   9.716  2.1113  0.4071  1.9462
   18CHL1  H19C 1301   0.368   4.200   9.659  0.0794  0.1341  0.0719
   18CHL1    C1 1302   0.094   4.242   9.749  0.5470  0.1817  0.1489
   18CHL1   H1A 1303   0.148   4.327   9.703 -0.5296  0.3905 -0.7525
   18CHL1   H1B 1304  -0.006   4.250   9.699  0.6457 -0.0323 -0.0838
   18CHL1    C2 1305   0.066   4.258   9.896  0.0703  0.1717  0.2152
   18CHL1   H2A 1306  -0.017   4.332   9.904  1.5074  1.6431  1.7143
   18CHL1   H2B 1307   0.156   4.285   9.954 -0.7854 -0.0333  1.6690
   18CHL1   C20 1308   0.302   4.072   9.025 -0.8056  0.0507  0.0339
   18CHL1   H20 1309   0.379   4.139   9.068  0.1176  0.1296 -1.6990
   18CHL1   C21 1310   0.197   4.162   8.955  0.1683 -0.1069 -0.4301
   18CHL1  H21A 1311   0.129   4.211   9.028  0.4425 -0.8725  0.3522
   18CHL1  H21B 1312   0.138   4.100   8.884 -0.5317  1.2777 -1.0779
   18CHL1  H21C 1313   0.248   4.228   8.882  0.9460  1.5596  1.5871
   18CHL1   C22 1314   0.389   3.990   8.926 -0.1431 -0.1895  0.3583
   18CHL1  H22A 1315   0.342   3.893   8.901 -1.4259  0.1145  1.5483
   18CHL1  H22B 1316   0.394   4.037   8.826  2.5278  1.3595  1.1672
   18CHL1   C23 1317   0.532   3.983   8.975  0.8235  0.2167  0.8099
   18CHL1  H23A 1318   0.568   4.087   8.994 -0.2309  0.6837  0.3021
   18CHL1  H23B 1319   0.533   3.925   9.070 -3.3828 -0.7398  0.3702
   18CHL1   C24 1320   0.626   3.931   8.869  0.3126 -0.5621 -0.4900
   18CHL1  H24A 1321   0.604   3.826   8.840 -3.6125  0.1198 -0.2629
   18CHL1  H24B 1322   0.643   3.988   8.775  2.3463 -0.8914 -0.3403
   18CHL1   C25 1323   0.775   3.912   8.925 -0.1495 -0.2077 -0.0938
   18CHL1   H25 1324   0.807   4.016   8.948  0.5325 -0.6826  1.1040
   18CHL1   C26 1325   0.789   3.815   9.040 -0.5546  0.1705  0.5086
   18CHL1  H26A 1326   0.717   3.853   9.116 -0.2374  2.7682 -0.4515
   18CHL1  H26B 1327   0.760   3.710   9.016  1.8822 -0.8145  1.6967
   18CHL1  H26C 1328   0.894   3.812   9.076 -0.0204 -0.2078 -1.0448
   18CHL1   C27 1329   0.871   3.873   8.804 -1.3340  0.6016 -0.3410
   18CHL1  H27A 1330   0.973   3.881   8.848 -1.5982  0.4199  0.3129
   18CHL1  H27B 1331   0.854   3.767   8.777  2.4368 -0.0975 -0.2104
   18CHL1  H27C 1332   0.864   3.942   8.718  1.3515 -1.6782 -2.4776
   19CHL1    C3 1333   3.820   0.503  10.084 -0.7604 -0.3517  0.3437
   19CHL1    H3 1334   3.710   0.492  10.094 -0.7274 -0.5785  0.4626
   19CHL1    O3 1335   3.891   0.510  10.211 -0.0334 -0.1940 -0.0558
   19CHL1   H3' 1336   3.985   0.519  10.194 -0.7013  2.3333 -2.7964
   19CHL1    C4 1337   3.880   0.377  10.000  0.4728  0.0363  0.7141
   19CHL1   H4A 1338   3.989   0.396   9.997  0.1325  1.7560 -2.0495
   19CHL1   H4B 1339   3.864   0.289  10.066 -0.1014  1.2120  2.1694
   19CHL1    C5 1340   3.822   0.370   9.861 -0.5253 -0.8383  0.2829
   19CHL1    C6 1341   3.763   0.259   9.812  0.0204 -0.4252  0.0112
   19CHL1    H6 1342   3.772   0.165   9.869 -3.7829 -0.7042  0.2824
   19CHL1    C7 1343   3.707   0.241   9.672  0.2004  0.5062  0.4912
   19CHL1   H7A 1344   3.753   0.157   9.616  2.0231  1.2564  0.8301
   19CHL1   H7B 1345   3.596   0.232   9.669  0.2752 -0.2467 -3.2271
   19CHL1    C8 1346   3.745   0.366   9.585 -0.9055  0.8271 -0.2713
   19CHL1    H8 1347   3.850   0.357   9.552 -1.7695 -0.8546 -2.6362
   19CHL1   C14 1348   3.659   0.363   9.462  0.5112 -0.2206  0.0386
   19CHL1   H14 1349   3.554   0.371   9.498  1.3724 -1.6074  2.9229
   19CHL1   C15 1350   3.671   0.230   9.378  0.3234 -1.0607  0.0894
   19CHL1  H15A 1351   3.781   0.224   9.368  0.4086  0.7480 -0.2420
   19CHL1  H15B 1352   3.628   0.140   9.426 -0.7184 -0.3926  0.4307
   19CHL1   C16 1353   3.595   0.268   9.249  0.3487 -0.8487  0.0479
   19CHL1  H16A 1354   3.665   0.240   9.167  0.1800  1.0613 -0.7762
   19CHL1  H16B 1355   3.501   0.210   9.238  1.1639 -1.8902 -1.6634
   19CHL1   C17 1356   3.583   0.428   9.248 -0.2621 -0.2334  0.5824
   19CHL1   H17 1357   3.484   0.452   9.293  0.6178  1.3874  1.6889
   19CHL1   C13 1358   3.682   0.473   9.356 -0.0123 -0.3827 -0.0811
   19CHL1   C18 1359   3.824   0.473   9.298 -0.3729 -0.5977  0.3858
   19CHL1  H18A 1360   3.843   0.374   9.252  0.1639 -1.0965  1.6752
   19CHL1  H18B 1361   3.843   0.544   9.215  0.1764  0.5481  1.4716
   19CHL1  H18C 1362   3.892   0.498   9.382 -0.4738 -0.0750  0.3132
   19CHL1   C12 1363   3.658   0.609   9.439 -0.3821 -0.1864  0.0763
   19CHL1  H12A 1364   3.663   0.694   9.367 -0.3937  0.1387  0.4560
   19CHL1  H12B 1365   3.553   0.604   9.473  0.1072 -0.4172  1.5926
   19CHL1   C11 1366   3.748   0.618   9.565  0.1137 -0.5107  0.2717
   19CHL1  H11A 1367   3.848   0.641   9.523 -0.5957 -0.4925 -1.4396
   19CHL1  H11B 1368   3.712   0.703   9.628  1.0991 -0.5711  0.9373
   19CHL1    C9 1369   3.727   0.499   9.661 -0.7298  0.4536 -0.0229
   19CHL1    H9 1370   3.618   0.495   9.685 -1.1414  1.9079 -1.5574
   19CHL1   C10 1371   3.819   0.509   9.786 -0.1861  0.0963  0.8372
   19CHL1   C19 1372   3.968   0.532   9.742  0.0892  0.2837 -1.0424
   19CHL1  H19A 1373   3.986   0.623   9.681  0.5687  1.7181  1.1797
   19CHL1  H19B 1374   4.033   0.549   9.830 -2.9941  2.4198  0.9704
   19CHL1  H19C 1375   4.008   0.447   9.684 -2.1802  0.8477 -3.5649
   19CHL1    C1 1376   3.772   0.625   9.874  0.0304  0.4571  0.0865
   19CHL1   H1A 1377   3.806   0.716   9.819  1.6385 -0.8413 -1.1158
   19CHL1   H1B 1378   3.661   0.631   9.883 -0.0800  1.1655 -1.5596
   19CHL1    C2 1379   3.834   0.637  10.012  0.1021 -0.5663 -0.2027
   19CHL1   H2A 1380   3.789   0.715  10.076 -0.0493 -0.7032 -0.1437
   19CHL1   H2B 1381   3.943   0.655   9.996  0.4895 -0.3513  2.5364
   19CHL1   C20 1382   3.577   0.499   9.110 -0.1579  0.0270 -0.6968
   19CHL1   H20 1383   3.671   0.478   9.054  0.8531  1.5222  0.3884
   19CHL1   C21 1384   3.573   0.650   9.126  0.1296  0.0112  0.8801
   19CHL1  H21A 1385   3.497   0.694   9.194  0.3971  0.6956  0.7441
   19CHL1  H21B 1386   3.554   0.707   9.032  1.6671  0.3593  0.7584
   19CHL1  H21C 1387   3.674   0.685   9.156  2.2451 -2.2454 -3.1839
   19CHL1   C22 1388   3.465   0.442   9.028 -0.2899 -0.7529 -0.6010
   19CHL1  H22A 1389   3.486   0.334   9.014  1.2200 -0.6593  0.8200
   19CHL1  H22B 1390   3.367   0.435   9.079  1.2723 -1.0934  2.4727
   19CHL1   C23 1391   3.458   0.505   8.882  0.0504 -0.8112  0.2612
   19CHL1  H23A 1392   3.388   0.590   8.886  1.1032  0.0794  0.0236
   19CHL1  H23B 1393   3.553   0.550   8.846 -0.9881  2.3179  1.3267
   19CHL1   C24 1394   3.399   0.407   8.770  0.8790  0.2795  0.0563
   19CHL1  H24A 1395   3.408   0.461   8.674 -0.9324 -0.4933 -0.5719
   19CHL1  H24B 1396   3.457   0.313   8.781  1.7787  0.8807  0.4623
   19CHL1   C25 1397   3.248   0.381   8.781 -0.3717  0.6843 -0.0800
   19CHL1   H25 1398   3.228   0.359   8.888 -3.5590 -2.9594 -1.3093
   19CHL1   C26 1399   3.174   0.510   8.739  0.1917  0.7171  0.2836
   19CHL1  H26A 1400   3.172   0.528   8.629 -1.2916  0.7132  0.3016
   19CHL1  H26B 1401   3.066   0.499   8.762 -0.1786 -1.8776 -2.3811
   19CHL1  H26C 1402   3.212   0.598   8.795  1.7260  0.3852 -0.2065
   19CHL1   C27 1403   3.202   0.253   8.704 -0.3005 -0.2459 -0.1813
   19CHL1  H27A 1404   3.235   0.245   8.599  1.9141 -2.2615  0.6148
   19CHL1  H27B 1405   3.249   0.172   8.764 -1.0882 -0.4087  0.2159
   19CHL1  H27C 1406   3.093   0.241   8.718 -0.1666  0.4589  1.7299
   20CHL1    C3 1407   5.892   1.470  10.425 -0.0184 -1.3336 -0.5532
   20CHL1    H3 1408   5.791   1.461  10.382  0.8440 -2.1691 -2.4625
   20CHL1    O3 1409   5.892   1.452  10.565 -0.1130 -0.7996  0.7241
   20CHL1   H3' 1410   5.985   1.455  10.587 -0.3722  0.5476  1.7389
   20CHL1    C4 1411   5.978   1.362  10.364 -0.0650 -0.0493 -0.1005
   20CHL1   H4A 1412   6.062   1.347  10.434  0.8682  0.3573 -1.1269
   20CHL1   H4B 1413   5.922   1.266  10.369 -0.2394  0.1440  1.7536
   20CHL1    C5 1414   6.020   1.388  10.222 -0.2722 -0.5615 -0.5386
   20CHL1    C6 1415   6.002   1.291  10.133 -0.2319  0.1935  0.5762
   20CHL1    H6 1416   5.960   1.195  10.168  2.0198 -1.0457 -0.0221
   20CHL1    C7 1417   6.028   1.300   9.984 -0.2241 -0.1873 -0.4035
   20CHL1   H7A 1418   6.068   1.201   9.952 -1.0560 -0.6026 -0.1837
   20CHL1   H7B 1419   5.934   1.322   9.930  0.5488  2.5684 -0.6809
   20CHL1    C8 1420   6.131   1.412   9.956 -0.2739 -0.3279 -0.1805
   20CHL1    H8 1421   6.232   1.384   9.991 -0.2381  0.8169  0.6783
   20CHL1   C14 1422   6.129   1.448   9.811  0.4530  0.7370  0.0360
   20CHL1   H14 1423   6.030   1.493   9.790 -0.4162 -1.2465 -0.2671
   20CHL1   C15 1424   6.151   1.337   9.707 -0.0662 -0.1294  0.4353
   20CHL1  H15A 1425   6.216   1.255   9.742  2.2019  1.8654  1.0314
   20CHL1  H15B 1426   6.054   1.287   9.689 -0.2249 -0.9140  3.2196
   20CHL1   C16 1427   6.210   1.402   9.579 -0.1867  1.2394 -0.0931
   20CHL1  H16A 1428   6.308   1.352   9.567  0.0211  2.2329 -2.8560
   20CHL1  H16B 1429   6.146   1.383   9.490  0.4392  2.0440 -0.7206
   20CHL1   C17 1430   6.222   1.554   9.618 -0.5418  0.5342  0.0436
   20CHL1   H17 1431   6.126   1.600   9.585 -1.5234 -0.0128  2.0429
   20CHL1   C13 1432   6.232   1.553   9.773  0.8666  0.8339  0.3538
   20CHL1   C18 1433   6.377   1.512   9.804  0.3676  0.5666  0.4699
   20CHL1  H18A 1434   6.400   1.490   9.910  0.6526  0.0862  0.3050
   20CHL1  H18B 1435   6.408   1.421   9.749  0.6021  0.3343  0.9818
   20CHL1  H18C 1436   6.442   1.591   9.760 -0.4817  0.8195 -0.3495
   20CHL1   C12 1437   6.181   1.684   9.839  0.0478  0.5327  0.3364
   20CHL1  H12A 1438   6.246   1.772   9.817 -0.5428  0.9342  0.1664
   20CHL1  H12B 1439   6.077   1.708   9.808  0.2232  1.1694  0.2181
   20CHL1   C11 1440   6.168   1.665   9.993 -0.4393  0.3063 -0.1140
   20CHL1  H11A 1441   6.273   1.660  10.029 -0.3043 -0.5291 -0.5911
   20CHL1  H11B 1442   6.127   1.755  10.043 -0.0969  0.4729 -0.1289
   20CHL1    C9 1443   6.086   1.537  10.035 -1.3604 -0.5572  0.0491
   20CHL1    H9 1444   5.980   1.547  10.003 -1.7216 -0.5639  1.2354
   20CHL1   C10 1445   6.077   1.529  10.189 -0.4178  0.1557  0.4870
   20CHL1   C19 1446   6.225   1.528  10.250 -0.1334  0.3801  0.0991
   20CHL1  H19A 1447   6.244   1.514  10.358  0.4478 -0.3835 -0.0937
   20CHL1  H19B 1448   6.281   1.455  10.186  0.2354 -0.2008  1.0790
   20CHL1  H19C 1449   6.279   1.621  10.222 -0.4272 -0.0463 -1.9673
   20CHL1    C1 1450   5.991   1.628  10.254  0.2766 -0.8442  0.0860
   20CHL1   H1A 1451   6.047   1.724  10.244 -1.1608  0.1675  1.4364
   20CHL1   H1B 1452   5.898   1.634  10.194  0.0344 -2.7535  0.2494
   20CHL1    C2 1453   5.957   1.609  10.403  0.0796  0.4883 -0.1285
   20CHL1   H2A 1454   5.904   1.692  10.455 -1.2132  0.3272 -1.1610
   20CHL1   H2B 1455   6.057   1.592  10.450 -0.6349  0.2787  1.3625
   20CHL1   C20 1456   6.329   1.621   9.531  0.4014  0.1479  0.1035
   20CHL1   H20 1457   6.432   1.584   9.552  0.8587  1.0732 -0.4867
   20CHL1   C21 1458   6.313   1.770   9.548 -0.0751  0.8963  0.3216
   20CHL1  H21A 1459   6.372   1.830   9.475 -2.9000  1.1373 -1.8380
   20CHL1  H21B 1460   6.351   1.799   9.648  2.9408  0.4428 -0.6294
   20CHL1  H21C 1461   6.206   1.796   9.536 -0.7764 -1.5291  1.0364
   20CHL1   C22 1462   6.319   1.590   9.381 -0.3032 -1.0198  0.2200
   20CHL1  H22A 1463   6.331   1.483   9.353 -1.9372 -1.4469  1.1517
   20CHL1  H22B 1464   6.218   1.614   9.341  0.6245  1.0725 -0.9626
   20CHL1   C23 1465   6.427   1.669   9.294  0.4247  0.1930  0.0993
   20CHL1  H23A 1466   6.423   1.780   9.302 -2.0679  0.3426 -2.2275
   20CHL1  H23B 1467   6.529   1.637   9.324  0.3658  0.6226  0.7697
   20CHL1   C24 1468   6.404   1.648   9.143 -0.1499  0.2133  0.0518
   20CHL1  H24A 1469   6.376   1.541   9.132 -1.3620  0.4440  0.8079
   20CHL1  H24B 1470   6.322   1.714   9.110  0.9156  0.7711 -1.5599
   20CHL1   C25 1471   6.528   1.661   9.051 -0.4518  0.0876 -0.1781
   20CHL1   H25 1472   6.606   1.595   9.095  2.0531  2.7321 -0.4755
   20CHL1   C26 1473   6.486   1.616   8.912  0.2982 -0.0357  0.1975
   20CHL1  H26A 1474   6.407   1.684   8.875  0.0554  1.1781  2.7980
   20CHL1  H26B 1475   6.571   1.620   8.842  0.5751  0.2538  0.5466
   20CHL1  H26C 1476   6.446   1.512   8.908 -2.5990  1.0759 -0.6958
   20CHL1   C27 1477   6.588   1.804   9.037 -0.0759 -0.6780 -0.1721
   20CHL1  H27A 1478   6.522   1.877   8.985 -1.3648 -1.7748 -0.0974
   20CHL1  H27B 1479   6.598   1.853   9.136  0.9050 -1.0962 -0.0572
   20CHL1  H27C 1480   6.692   1.809   8.997 -1.0302 -1.1516 -2.8268
   21CHL1    C3 1481   6.196   4.751  10.312  0.0297 -0.3794 -0.4559
   21CHL1    H3 1482   6.299   4.712  10.302  0.6207  0.5023  1.9840
   21CHL1    O3 1483   6.154   4.748  10.449  0.0626  0.4944  0.2378
   21CHL1   H3' 1484   6.064   4.782  10.455 -1.4167 -3.0642 -0.1612
   21CHL1    C4 1485   6.194   4.895  10.254 -0.4996 -0.2858 -0.4255
   21CHL1   H4A 1486   6.088   4.928  10.258 -1.6339 -3.6000 -1.8870
   21CHL1   H4B 1487   6.258   4.959  10.319 -0.9982 -0.0610 -0.1571
   21CHL1    C5 1488   6.227   4.907  10.111 -0.2757 -0.1628  0.5310
   21CHL1    C6 1489   6.327   4.983  10.067 -0.0636  0.3145  0.2433
   21CHL1    H6 1490   6.371   5.051  10.141 -1.2054 -1.8421  3.0107
   21CHL1    C7 1491   6.366   5.001   9.919 -0.2839 -0.2296 -0.5076
   21CHL1   H7A 1492   6.372   5.104   9.878  2.0193  0.3973  1.2915
   21CHL1   H7B 1493   6.468   4.964   9.895 -0.1033  1.3827 -2.3941
   21CHL1    C8 1494   6.264   4.936   9.816  0.7182  0.1383  0.2335
   21CHL1    H8 1495   6.186   5.013   9.802  1.5757  1.4200  2.1901
   21CHL1   C14 1496   6.318   4.885   9.685 -0.1854 -0.3600 -0.6790
   21CHL1   H14 1497   6.378   4.794   9.709  1.6705  1.4445  1.7313
   21CHL1   C15 1498   6.419   4.978   9.618 -0.5391 -0.3514  0.3042
   21CHL1  H15A 1499   6.376   5.080   9.631  1.2347  0.2328  1.6782
   21CHL1  H15B 1500   6.523   4.970   9.657 -0.2379  3.7936  0.5381
   21CHL1   C16 1501   6.421   4.943   9.466 -0.0633 -0.4173 -0.3681
   21CHL1  H16A 1502   6.398   5.034   9.407  0.5314  0.2326  0.3853
   21CHL1  H16B 1503   6.523   4.914   9.431  0.1285 -0.6124  0.3453
   21CHL1   C17 1504   6.322   4.826   9.453 -0.2173  0.1068 -0.7870
   21CHL1   H17 1505   6.386   4.737   9.471 -0.1778  0.1724 -0.6044
   21CHL1   C13 1506   6.226   4.843   9.569  0.2957  0.1299 -0.2736
   21CHL1   C18 1507   6.138   4.959   9.527 -0.3546 -0.8607 -0.4157
   21CHL1  H18A 1508   6.075   4.990   9.614  1.9724  1.6415  0.4567
   21CHL1  H18B 1509   6.189   5.047   9.481  1.2797 -1.5780  0.0121
   21CHL1  H18C 1510   6.059   4.937   9.452  0.8470 -0.9587 -1.6598
   21CHL1   C12 1511   6.172   4.716   9.628  0.2674 -0.8264 -0.4391
   21CHL1  H12A 1512   6.085   4.678   9.570 -0.8848 -0.7854  1.2179
   21CHL1  H12B 1513   6.253   4.641   9.641  0.3625 -0.9023 -1.4165
   21CHL1   C11 1514   6.112   4.739   9.770 -0.2809  0.1525  0.2466
   21CHL1  H11A 1515   6.026   4.808   9.756 -0.3336 -0.1828 -1.2045
   21CHL1  H11B 1516   6.069   4.646   9.813  0.2083 -0.5240 -0.6950
   21CHL1    C9 1517   6.204   4.810   9.878  0.0845  0.6587  0.6729
   21CHL1    H9 1518   6.287   4.740   9.900 -0.2453 -0.2726 -0.9826
   21CHL1   C10 1519   6.142   4.822  10.013  1.0075 -0.9142  0.1823
   21CHL1   C19 1520   6.001   4.881  10.012  0.3240 -0.5477 -0.1044
   21CHL1  H19A 1521   5.952   4.878  10.111  1.9758  0.4498  0.7631
   21CHL1  H19B 1522   6.015   4.987   9.983  1.6162 -0.6028  0.2851
   21CHL1  H19C 1523   5.926   4.834   9.945  0.4369 -0.7432 -0.0960
   21CHL1    C1 1524   6.132   4.684  10.079  0.0534 -0.4794  0.1067
   21CHL1   H1A 1525   6.060   4.631  10.013 -0.0550  0.9097 -0.9133
   21CHL1   H1B 1526   6.229   4.633  10.067  1.5707  2.4251 -0.4821
   21CHL1    C2 1527   6.101   4.667  10.228  0.1176 -0.4530  0.3481
   21CHL1   H2A 1528   6.103   4.561  10.261  1.4764 -0.1747  1.2154
   21CHL1   H2B 1529   5.997   4.701  10.246 -0.0429 -1.0568  0.5536
   21CHL1   C20 1530   6.265   4.818   9.307 -0.4341  0.6154  1.0655
   21CHL1   H20 1531   6.203   4.908   9.287 -1.6583 -0.4347  0.0506
   21CHL1   C21 1532   6.175   4.686   9.292 -0.4414 -0.0151 -0.3980
   21CHL1  H21A 1533   6.252   4.607   9.298 -0.5141 -0.1478 -1.2155
   21CHL1  H21B 1534   6.119   4.677   9.197  0.8473 -1.8249 -1.0010
   21CHL1  H21C 1535   6.103   4.680   9.377 -1.3304  1.4148 -1.0172
   21CHL1   C22 1536   6.370   4.819   9.194 -0.4785  0.3447 -0.0833
   21CHL1  H22A 1537   6.416   4.919   9.177  0.8316 -0.2564 -0.0678
   21CHL1  H22B 1538   6.454   4.750   9.215 -0.3683  0.8853  1.3219
   21CHL1   C23 1539   6.317   4.787   9.059  0.4249  0.6834 -0.7311
   21CHL1  H23A 1540   6.304   4.677   9.048 -0.4707  0.8825 -1.7571
   21CHL1  H23B 1541   6.218   4.835   9.041  0.1005  0.6795  0.9312
   21CHL1   C24 1542   6.409   4.822   8.943 -0.1845  0.1392 -0.2759
   21CHL1  H24A 1543   6.457   4.921   8.955  2.4889 -1.0488 -0.8087
   21CHL1  H24B 1544   6.494   4.750   8.947 -0.4257 -0.3554 -2.8576
   21CHL1   C25 1545   6.336   4.806   8.807 -0.3638 -0.0743  0.0620
   21CHL1   H25 1546   6.287   4.706   8.807 -0.0602 -0.2579 -2.3401
   21CHL1   C26 1547   6.242   4.928   8.781  0.5123  0.2034 -0.0809
   21CHL1  H26A 1548   6.191   4.915   8.683 -0.1493 -3.1155  0.6191
   21CHL1  H26B 1549   6.155   4.940   8.850  1.0318 -0.6840  0.7497
   21CHL1  H26C 1550   6.307   5.018   8.789 -0.7652  1.0570  0.9857
   21CHL1   C27 1551   6.443   4.812   8.694  0.8303  0.0195 -0.1821
   21CHL1  H27A 1552   6.491   4.912   8.690 -0.4137  0.5703 -1.9263
   21CHL1  H27B 1553   6.520   4.736   8.718  0.8238  0.6484  1.9092
   21CHL1  H27C 1554   6.395   4.785   8.597 -0.4480 -2.3274  1.0603
   22CHL1    C3 1555   5.418   5.539   9.942 -0.3298  0.2554  0.2462
   22CHL1    H3 1556   5.466   5.440   9.926 -0.7761  0.1947 -0.7430
   22CHL1    O3 1557   5.400   5.572  10.078 -0.1413 -0.4184 -0.2903
   22CHL1   H3' 1558   5.491   5.559  10.106 -0.3121  0.4510  0.7142
   22CHL1    C4 1559   5.517   5.643   9.878  0.2683  0.6222  0.5532
   22CHL1   H4A 1560   5.479   5.745   9.899 -2.4903  0.0229 -1.2342
   22CHL1   H4B 1561   5.610   5.620   9.933 -0.7210 -2.4786  1.0408
   22CHL1    C5 1562   5.531   5.635   9.732  0.1514  0.2253 -0.7490
   22CHL1    C6 1563   5.652   5.626   9.682  0.5749 -0.3422  0.0974
   22CHL1    H6 1564   5.737   5.636   9.751  0.3937  4.2044 -0.1800
   22CHL1    C7 1565   5.690   5.602   9.539  0.4825 -0.1411 -0.8461
   22CHL1   H7A 1566   5.758   5.688   9.518 -1.2438  1.1638 -1.1850
   22CHL1   H7B 1567   5.741   5.507   9.511  1.6597 -0.1203  1.0858
   22CHL1    C8 1568   5.564   5.629   9.454 -0.2849 -0.0016 -0.4862
   22CHL1    H8 1569   5.552   5.739   9.455  1.3480  0.1971  1.3299
   22CHL1   C14 1570   5.588   5.575   9.307  0.0485  0.0878 -0.5626
   22CHL1   H14 1571   5.609   5.468   9.326  1.8688  0.6494  0.6282
   22CHL1   C15 1572   5.716   5.624   9.227  0.3656 -0.1442  0.9858
   22CHL1  H15A 1573   5.751   5.729   9.238  3.6106 -1.1354  0.6465
   22CHL1  H15B 1574   5.807   5.569   9.260 -0.2140 -1.3983  0.5099
   22CHL1   C16 1575   5.678   5.602   9.080  1.1368 -0.2151 -0.2520
   22CHL1  H16A 1576   5.683   5.699   9.025  0.6724 -0.0182  0.0447
   22CHL1  H16B 1577   5.748   5.533   9.029  1.8538 -0.6843  1.3493
   22CHL1   C17 1578   5.533   5.546   9.082 -0.1660  0.1109 -0.2599
   22CHL1   H17 1579   5.535   5.435   9.073  1.9185  0.2160 -1.3885
   22CHL1   C13 1580   5.470   5.593   9.217  0.2221 -0.3578 -0.4358
   22CHL1   C18 1581   5.435   5.740   9.211  0.6401 -0.2150 -0.3847
   22CHL1  H18A 1582   5.354   5.768   9.139 -0.3980  0.7731  1.1375
   22CHL1  H18B 1583   5.396   5.781   9.306  2.7049  0.9594 -0.0132
   22CHL1  H18C 1584   5.519   5.812   9.201  0.0938  0.9557  2.8546
   22CHL1   C12 1585   5.349   5.510   9.273 -0.6483  0.0170  0.4638
   22CHL1  H12A 1586   5.254   5.524   9.219  0.4398 -0.9687 -1.7509
   22CHL1  H12B 1587   5.370   5.401   9.268 -1.2549 -0.1028  0.5480
   22CHL1   C11 1588   5.318   5.545   9.416  1.1697  0.2027  0.1945
   22CHL1  H11A 1589   5.262   5.640   9.405  1.1631 -0.0891 -2.5805
   22CHL1  H11B 1590   5.252   5.460   9.442  1.7610 -1.6718 -4.0095
   22CHL1    C9 1591   5.441   5.558   9.513  0.0020  0.2827  0.3756
   22CHL1    H9 1592   5.473   5.451   9.514 -2.1956 -0.4248 -1.2840
   22CHL1   C10 1593   5.403   5.614   9.647  0.1146  0.0153 -0.3750
   22CHL1   C19 1594   5.348   5.753   9.639  0.7167 -0.2990 -0.0510
   22CHL1  H19A 1595   5.244   5.749   9.599 -0.1184 -2.1720  2.2016
   22CHL1  H19B 1596   5.335   5.801   9.739  0.2521  0.0923 -0.2942
   22CHL1  H19C 1597   5.411   5.820   9.576  0.9671  1.3351  1.8907
   22CHL1    C1 1598   5.301   5.523   9.723  0.2450  0.3165 -0.0748
   22CHL1   H1A 1599   5.202   5.529   9.671 -0.5574  0.2701  1.4367
   22CHL1   H1B 1600   5.339   5.420   9.703 -0.1619  0.0258  0.6147
   22CHL1    C2 1601   5.277   5.548   9.869 -0.7430 -0.1742 -0.1626
   22CHL1   H2A 1602   5.227   5.464   9.921 -1.3973 -0.9020 -1.9123
   22CHL1   H2B 1603   5.232   5.646   9.895 -1.8460 -1.2805  2.2123
   22CHL1   C20 1604   5.464   5.588   8.947  0.0700  0.4750 -0.2909
   22CHL1   H20 1605   5.451   5.699   8.942 -1.2103  0.3832  0.7322
   22CHL1   C21 1606   5.314   5.529   8.932  0.4199 -0.0863  0.3176
   22CHL1  H21A 1607   5.239   5.571   9.002 -0.7011 -1.4603 -0.0338
   22CHL1  H21B 1608   5.320   5.418   8.944 -0.3129 -0.1623 -0.0008
   22CHL1  H21C 1609   5.281   5.551   8.829 -2.5766 -2.5465  0.6557
   22CHL1   C22 1610   5.544   5.550   8.823 -0.6720 -0.0324  0.3290
   22CHL1  H22A 1611   5.496   5.585   8.729 -1.1812 -2.8113 -0.4955
   22CHL1  H22B 1612   5.642   5.601   8.824 -1.5969  1.8310  2.2944
   22CHL1   C23 1613   5.581   5.402   8.815  0.0088  0.2701 -0.7741
   22CHL1  H23A 1614   5.626   5.362   8.909  2.4594  1.8123 -1.2403
   22CHL1  H23B 1615   5.486   5.347   8.802  0.2706  0.4057 -3.3892
   22CHL1   C24 1616   5.654   5.359   8.688  0.2187 -0.1266 -0.7095
   22CHL1  H24A 1617   5.642   5.249   8.677 -1.6741 -0.2732  2.1795
   22CHL1  H24B 1618   5.601   5.412   8.606 -0.5323  0.7105  0.3028
   22CHL1   C25 1619   5.803   5.399   8.694 -0.3447 -0.1010 -0.2160
   22CHL1   H25 1620   5.821   5.499   8.741  2.8080 -1.3927  1.4875
   22CHL1   C26 1621   5.880   5.286   8.759 -0.1323  0.8829 -0.2492
   22CHL1  H26A 1622   5.991   5.289   8.755 -0.1276  0.3015 -0.6141
   22CHL1  H26B 1623   5.850   5.273   8.865  0.8159 -0.5752 -0.1447
   22CHL1  H26C 1624   5.856   5.197   8.698  1.7987  0.2447 -0.1230
   22CHL1   C27 1625   5.835   5.420   8.549 -0.3454 -0.1824  0.5422
   22CHL1  H27A 1626   5.772   5.501   8.505 -0.7118 -0.2646  0.9161
   22CHL1  H27B 1627   5.939   5.456   8.530 -0.7171  0.9434  0.6125
   22CHL1  H27C 1628   5.814   5.335   8.481 -1.3123 -1.1071  1.9638
   23CHL1    C3 1629   1.462   0.192  10.409 -0.6670 -0.1410  0.3589
   23CHL1    H3 1630   1.454   0.294  10.365 -0.9146 -1.5203 -2.8824
   23CHL1    O3 1631   1.467   0.225  10.545  0.4025 -0.5312  0.6328
   23CHL1   H3' 1632   1.555   0.248  10.578  0.9231  0.3142 -1.3171
   23CHL1    C4 1633   1.347   0.103  10.366 -0.2712 -0.5603  0.1054
   23CHL1   H4A 1634   1.352   0.009  10.425  0.6160 -2.5436 -3.0087
   23CHL1   H4B 1635   1.247   0.141  10.396 -0.7765 -0.3074 -1.8177
   23CHL1    C5 1636   1.351   0.076  10.213 -1.0179  0.4811  0.0245
   23CHL1    C6 1637   1.243   0.109  10.143 -0.6986 -0.7976  0.0267
   23CHL1    H6 1638   1.159   0.162  10.191 -0.3785 -0.0860 -0.1973
   23CHL1    C7 1639   1.242   0.072  10.000  0.2913  0.0378 -0.8079
   23CHL1   H7A 1640   1.149   0.026   9.960  0.0947  0.0056 -0.3155
   23CHL1   H7B 1641   1.258   0.159   9.933  0.3378 -0.5064 -1.5079
   23CHL1    C8 1642   1.351  -0.030   9.959 -0.0257  0.1716 -0.3013
   23CHL1    H8 1643   1.327  -0.136   9.979  1.6132 -0.3757 -1.1924
   23CHL1   C14 1644   1.358  -0.022   9.805 -0.3314 -0.0922  0.6203
   23CHL1   H14 1645   1.375   0.083   9.774  4.5543 -0.7544  0.5952
   23CHL1   C15 1646   1.224  -0.054   9.732 -0.4331  0.0537  0.0264
   23CHL1  H15A 1647   1.175  -0.142   9.778 -0.2811  0.8743  1.8168
   23CHL1  H15B 1648   1.154   0.032   9.730  1.5118  1.7208  1.4178
   23CHL1   C16 1649   1.278  -0.083   9.592 -0.2804  0.0572  0.0646
   23CHL1  H16A 1650   1.249  -0.184   9.557  0.3573  0.6801 -2.3423
   23CHL1  H16B 1651   1.236  -0.006   9.524  2.6213  2.3947  0.8078
   23CHL1   C17 1652   1.434  -0.064   9.590 -0.2732  0.2280  0.4383
   23CHL1   H17 1653   1.460   0.043   9.572 -0.7429  0.5159  1.4025
   23CHL1   C13 1654   1.472  -0.098   9.737 -0.4318 -0.5793  0.4698
   23CHL1   C18 1655   1.462  -0.253   9.759  0.2117  0.0879 -0.0692
   23CHL1  H18A 1656   1.373  -0.300   9.713  0.9971 -1.8438  0.3201
   23CHL1  H18B 1657   1.563  -0.288   9.729 -0.0225 -1.7372  1.2041
   23CHL1  H18C 1658   1.456  -0.281   9.866 -0.9539  0.2272 -0.0993
   23CHL1   C12 1659   1.605  -0.042   9.791  0.3874  0.2220  0.4271
   23CHL1  H12A 1660   1.689  -0.093   9.739 -0.9585 -1.6756  0.0985
   23CHL1  H12B 1661   1.590   0.067   9.776  2.1688  0.6331  1.4359
   23CHL1   C11 1662   1.608  -0.057   9.939  0.4412  0.0685 -0.8971
   23CHL1  H11A 1663   1.610  -0.166   9.962 -0.0596  0.2427  0.0326
   23CHL1  H11B 1664   1.706  -0.015   9.968  0.5998 -0.8481 -0.0672
   23CHL1    C9 1665   1.481   0.013  10.008  0.1122 -0.6403  0.5665
   23CHL1    H9 1666   1.493   0.117   9.972 -1.6827 -0.1963  1.1908
   23CHL1   C10 1667   1.484   0.014  10.167 -0.0996 -0.1433  0.3147
   23CHL1   C19 1668   1.495  -0.137  10.216 -0.1365 -0.5546 -0.5296
   23CHL1  H19A 1669   1.479  -0.138  10.326  2.9764  2.6262  0.0444
   23CHL1  H19B 1670   1.417  -0.200  10.168 -0.8757 -0.0307 -0.0219
   23CHL1  H19C 1671   1.597  -0.171  10.187  0.6104  1.9419 -0.8888
   23CHL1    C1 1672   1.604   0.100  10.219  0.4451 -0.3552 -0.4361
   23CHL1   H1A 1673   1.704   0.058  10.193  0.9924 -0.3787  1.6251
   23CHL1   H1B 1674   1.597   0.203  10.179 -1.1070  0.7272  2.4706
   23CHL1    C2 1675   1.587   0.124  10.370 -0.4022  0.4373  0.3803
   23CHL1   H2A 1676   1.686   0.163  10.404 -0.5603 -0.0761  1.4596
   23CHL1   H2B 1677   1.589   0.027  10.424 -2.4016  0.8334  1.2076
   23CHL1   C20 1678   1.497  -0.146   9.484  0.1257 -0.5849  0.0604
   23CHL1   H20 1679   1.486  -0.254   9.507 -2.2623 -0.9337 -2.4894
   23CHL1   C21 1680   1.648  -0.117   9.475  0.2077  0.1081  0.6038
   23CHL1  H21A 1681   1.706  -0.180   9.546 -0.1007 -0.2546  0.5323
   23CHL1  H21B 1682   1.671  -0.010   9.495  0.4274 -0.1391  1.7515
   23CHL1  H21C 1683   1.697  -0.145   9.379 -0.3166  0.8430  0.1198
   23CHL1   C22 1684   1.438  -0.109   9.343 -0.6968  0.1351  0.1996
   23CHL1  H22A 1685   1.327  -0.110   9.341 -0.7086  0.6417  0.4594
   23CHL1  H22B 1686   1.482  -0.013   9.307  0.4208 -1.1636 -2.0372
   23CHL1   C23 1687   1.479  -0.197   9.225 -0.3562  0.1092  0.3512
   23CHL1  H23A 1688   1.589  -0.183   9.213 -0.5798  3.9423  1.9161
   23CHL1  H23B 1689   1.460  -0.302   9.256 -0.5309 -0.1521 -0.6007
   23CHL1   C24 1690   1.404  -0.161   9.098 -0.0625  0.6621 -0.0342
   23CHL1  H24A 1691   1.297  -0.186   9.115  0.1027  0.6198  0.9653
   23CHL1  H24B 1692   1.409  -0.052   9.081  1.1493  0.5231 -0.6886
   23CHL1   C25 1693   1.457  -0.235   8.973  0.4949  0.0868 -0.1176
   23CHL1   H25 1694   1.568  -0.240   8.983  0.3331 -2.0164  0.8595
   23CHL1   C26 1695   1.408  -0.382   8.986 -0.3096 -0.9922  0.5604
   23CHL1  H26A 1696   1.297  -0.378   8.993 -0.1772  1.1823  1.9726
   23CHL1  H26B 1697   1.438  -0.454   8.907 -3.2649  0.2331 -1.7446
   23CHL1  H26C 1698   1.447  -0.430   9.079 -1.3048 -0.3733  1.3069
   23CHL1   C27 1699   1.413  -0.176   8.840  0.4012 -0.3422  0.2072
   23CHL1  H27A 1700   1.320  -0.218   8.797  2.4962 -1.5469 -3.3577
   23CHL1  H27B 1701   1.411  -0.065   8.848  0.4265 -0.4826  2.5335
   23CHL1  H27C 1702   1.491  -0.197   8.763  2.0440  0.5410  1.5744
   24CHL1    C3 1703   3.346   0.765   9.945 -0.1115  0.1172 -0.8921
   24CHL1    H3 1704   3.423   0.684   9.939  1.0595  1.1587 -0.1842
   24CHL1    O3 1705   3.254   0.726  10.048  0.6273 -0.1303 -0.2615
   24CHL1   H3' 1706   3.192   0.799  10.044  0.2005 -0.4114  1.1287
   24CHL1    C4 1707   3.410   0.899   9.965 -0.0096 -0.4457 -0.0300
   24CHL1   H4A 1708   3.324   0.965   9.989 -0.8602 -1.5098 -0.1044
   24CHL1   H4B 1709   3.473   0.896  10.057 -0.3604 -0.1459  0.2203
   24CHL1    C5 1710   3.504   0.951   9.847 -0.0239  0.6015 -0.3637
   24CHL1    C6 1711   3.628   0.995   9.871  0.3533  0.0623  0.6783
   24CHL1    H6 1712   3.668   0.988   9.973 -1.7131  2.0702  1.6700
   24CHL1    C7 1713   3.708   1.054   9.759  0.0554  0.4152  0.2483
   24CHL1   H7A 1714   3.742   1.152   9.799 -0.3105 -0.4616  2.8233
   24CHL1   H7B 1715   3.789   0.995   9.710  2.0426  1.5601  2.0858
   24CHL1    C8 1716   3.618   1.088   9.633 -0.4095  0.4379 -0.4988
   24CHL1    H8 1717   3.571   1.186   9.655 -0.9822  0.3033 -1.1282
   24CHL1   C14 1718   3.699   1.116   9.507  0.4733 -0.1526 -0.2396
   24CHL1   H14 1719   3.756   1.022   9.495 -0.9172 -1.1133  0.5827
   24CHL1   C15 1720   3.806   1.227   9.518 -0.3256  0.1142 -0.3245
   24CHL1  H15A 1721   3.763   1.313   9.575 -1.5767 -0.8427  0.2067
   24CHL1  H15B 1722   3.900   1.196   9.569  0.3089 -0.1261 -1.6226
   24CHL1   C16 1723   3.853   1.246   9.378  0.0732  0.3839 -0.0531
   24CHL1  H16A 1724   3.849   1.355   9.357 -2.2579  0.0613 -1.4973
   24CHL1  H16B 1725   3.953   1.201   9.362  0.4131  2.2183 -3.2717
   24CHL1   C17 1726   3.757   1.170   9.282  0.4914 -0.2693  0.1766
   24CHL1   H17 1727   3.799   1.069   9.263 -0.8034 -0.4585 -1.8269
   24CHL1   C13 1728   3.633   1.147   9.372  0.0116  0.1415  0.1406
   24CHL1   C18 1729   3.542   1.278   9.377 -0.4924  0.0349  0.9567
   24CHL1  H18A 1730   3.471   1.280   9.292 -0.9929  2.1734  1.4141
   24CHL1  H18B 1731   3.479   1.269   9.468 -0.9530 -0.3107  0.6040
   24CHL1  H18C 1732   3.595   1.375   9.373 -0.2331 -0.1766 -1.0009
   24CHL1   C12 1733   3.541   1.018   9.340 -0.3145  0.3544 -0.0163
   24CHL1  H12A 1734   3.476   1.047   9.255 -0.0018 -1.0084 -0.7415
   24CHL1  H12B 1735   3.600   0.928   9.312  0.0055  0.9293 -1.1706
   24CHL1   C11 1736   3.451   0.980   9.460 -0.3675 -0.1659  0.2617
   24CHL1  H11A 1737   3.376   1.061   9.464 -1.2109 -0.9756  1.3951
   24CHL1  H11B 1738   3.412   0.876   9.457  1.2703 -0.8151  0.7628
   24CHL1    C9 1739   3.526   0.969   9.599 -0.3469  0.2953 -0.2960
   24CHL1    H9 1740   3.590   0.880   9.585 -0.1809  0.1047  1.5485
   24CHL1   C10 1741   3.429   0.944   9.719 -0.9512  0.7501  0.5515
   24CHL1   C19 1742   3.317   1.050   9.723  0.0749 -0.5427 -0.2298
   24CHL1  H19A 1743   3.353   1.155   9.718 -2.3113  0.2602 -1.5677
   24CHL1  H19B 1744   3.233   1.023   9.655 -0.3132  0.2346 -0.0647
   24CHL1  H19C 1745   3.264   1.045   9.821 -0.3349 -0.4262 -0.4449
   24CHL1    C1 1746   3.367   0.800   9.701 -0.2532 -0.2214  0.4888
   24CHL1   H1A 1747   3.310   0.784   9.607 -1.9218  0.8179  1.3141
   24CHL1   H1B 1748   3.453   0.730   9.701  0.4092  0.5524  2.3758
   24CHL1    C2 1749   3.278   0.757   9.815 -0.0609 -0.4623 -0.4933
   24CHL1   H2A 1750   3.244   0.653   9.794  0.8451 -0.5413 -1.6349
   24CHL1   H2B 1751   3.191   0.825   9.816 -0.1499 -0.5905  0.9911
   24CHL1   C20 1752   3.739   1.248   9.152  0.3273  0.2245 -0.2402
   24CHL1   H20 1753   3.681   1.341   9.169 -0.4679 -0.5092  1.1496
   24CHL1   C21 1754   3.645   1.172   9.066  0.1941 -0.1431  0.6903
   24CHL1  H21A 1755   3.540   1.179   9.101 -0.2158  0.1491 -0.5873
   24CHL1  H21B 1756   3.667   1.065   9.085 -0.0915 -0.0639  1.5027
   24CHL1  H21C 1757   3.643   1.187   8.956 -0.8059  1.2821  0.8904
   24CHL1   C22 1758   3.873   1.283   9.080  0.0294  0.2889  0.7089
   24CHL1  H22A 1759   3.944   1.346   9.138  1.1747 -0.4568  0.1431
   24CHL1  H22B 1760   3.939   1.195   9.066  0.4388  0.8519 -1.1879
   24CHL1   C23 1761   3.855   1.351   8.940  0.2695  0.4780 -0.3053
   24CHL1  H23A 1762   3.820   1.276   8.866 -0.3655  0.0663  0.4066
   24CHL1  H23B 1763   3.781   1.434   8.943 -1.2010 -0.8399  1.2568
   24CHL1   C24 1764   3.986   1.399   8.871  0.0473  0.1309  0.1763
   24CHL1  H24A 1765   4.002   1.506   8.896 -0.5062  0.3138 -0.2430
   24CHL1  H24B 1766   4.066   1.333   8.909 -1.0107 -1.0172  0.4281
   24CHL1   C25 1767   3.951   1.397   8.720  0.1207  0.3624 -0.2670
   24CHL1   H25 1768   3.897   1.311   8.674 -1.5565 -0.0474  2.3807
   24CHL1   C26 1769   3.859   1.517   8.697 -0.1821  0.2765  0.3483
   24CHL1  H26A 1770   3.759   1.476   8.721  0.3366 -0.3889  1.4346
   24CHL1  H26B 1771   3.888   1.612   8.748  3.3572 -0.0594 -0.9099
   24CHL1  H26C 1772   3.848   1.539   8.589 -1.4636  3.5054  1.0760
   24CHL1   C27 1773   4.075   1.396   8.638  0.5803  0.6619 -0.3717
   24CHL1  H27A 1774   4.041   1.414   8.533 -1.7000  0.1788  0.2433
   24CHL1  H27B 1775   4.143   1.479   8.666  0.4936  0.2495  1.0793
   24CHL1  H27C 1776   4.130   1.300   8.647 -0.4517  0.4207  5.1210
   25CHL1    C3 1777   5.004   2.600  10.437 -0.7826 -0.3034  1.0947
   25CHL1    H3 1778   5.108   2.595  10.397 -0.9427  2.0053  0.2914
   25CHL1    O3 1779   4.989   2.594  10.580 -0.8379 -0.2874 -0.2096
   25CHL1   H3' 1780   5.042   2.665  10.618 -0.9995 -0.6154  0.6328
   25CHL1    C4 1781   4.955   2.734  10.387  0.0810  0.4697 -0.1234
   25CHL1   H4A 1782   4.852   2.758  10.419 -1.2809 -3.3047 -1.4951
   25CHL1   H4B 1783   5.002   2.823  10.434  0.3803  1.2773 -1.9026
   25CHL1    C5 1784   4.973   2.743  10.237 -0.1509 -0.5969  0.5360
   25CHL1    C6 1785   5.054   2.835  10.180  0.3750  0.1401 -0.2081
   25CHL1    H6 1786   5.115   2.905  10.239  0.1513  0.8412 -0.8153
   25CHL1    C7 1787   5.067   2.848  10.028 -0.5725 -0.5823 -0.2649
   25CHL1   H7A 1788   5.060   2.956  10.002 -0.4213 -0.6053 -0.3991
   25CHL1   H7B 1789   5.167   2.811   9.998  0.3133  0.6631  1.0970
   25CHL1    C8 1790   4.947   2.780   9.953 -0.3491 -0.2361  0.5821
   25CHL1    H8 1791   4.859   2.846   9.971 -0.5990 -0.4198  0.0219
   25CHL1   C14 1792   4.976   2.776   9.798 -0.4053  0.4907  0.2033
   25CHL1   H14 1793   5.060   2.703   9.792 -0.8264  0.0955 -0.9025
   25CHL1   C15 1794   5.029   2.904   9.731  0.5858  0.5350 -1.4696
   25CHL1  H15A 1795   4.971   2.989   9.773  2.6286  0.2318  2.1421
   25CHL1  H15B 1796   5.135   2.926   9.756  0.1043 -0.1396  1.3496
   25CHL1   C16 1797   4.988   2.875   9.578 -0.6239 -0.1057 -0.0654
   25CHL1  H16A 1798   4.916   2.955   9.550  0.0223  0.4775 -0.0739
   25CHL1  H16B 1799   5.077   2.872   9.512  0.9563 -0.4225  2.0317
   25CHL1   C17 1800   4.917   2.735   9.574 -0.1738  0.2233  0.1231
   25CHL1   H17 1801   4.998   2.660   9.564 -1.1477 -1.1191  1.9641
   25CHL1   C13 1802   4.864   2.715   9.713  0.3878  0.8842  0.2471
   25CHL1   C18 1803   4.736   2.800   9.729  0.7643 -0.1676 -0.1324
   25CHL1  H18A 1804   4.680   2.787   9.825  0.9629 -2.3828 -0.2839
   25CHL1  H18B 1805   4.767   2.907   9.726  1.1299 -0.2866 -0.6058
   25CHL1  H18C 1806   4.662   2.775   9.650  0.7737 -1.1121  0.1567
   25CHL1   C12 1807   4.844   2.570   9.759  0.3986 -1.0667 -0.2079
   25CHL1  H12A 1808   4.760   2.515   9.709 -1.0644  0.4837  0.5092
   25CHL1  H12B 1809   4.935   2.516   9.726  2.5273  1.2161  1.7784
   25CHL1   C11 1810   4.823   2.566   9.915  0.4361  0.3762 -1.0528
   25CHL1  H11A 1811   4.719   2.600   9.932 -0.0855 -2.0832  0.9118
   25CHL1  H11B 1812   4.820   2.459   9.944  0.1764  0.8774  0.8830
   25CHL1    C9 1813   4.927   2.643  10.006  0.0402  0.2991 -0.1335
   25CHL1    H9 1814   5.017   2.578   9.995  0.1508  0.6164 -1.1438
   25CHL1   C10 1815   4.895   2.640  10.156 -0.4219 -0.1222 -0.8868
   25CHL1   C19 1816   4.739   2.650  10.179  0.1926 -0.1600 -0.0002
   25CHL1  H19A 1817   4.667   2.574  10.142 -2.3510  1.8374  0.6923
   25CHL1  H19B 1818   4.712   2.652  10.287  2.3828 -0.0102  0.5624
   25CHL1  H19C 1819   4.723   2.757  10.152  1.6955 -0.0522 -0.4930
   25CHL1    C1 1820   4.920   2.503  10.208 -0.1861  1.0451  0.7633
   25CHL1   H1A 1821   4.838   2.435  10.176 -1.0885  2.5238 -0.1403
   25CHL1   H1B 1822   5.017   2.471  10.166 -0.7437 -0.1214  0.3423
   25CHL1    C2 1823   4.924   2.485  10.364  0.0955  1.0558  0.1631
   25CHL1   H2A 1824   4.973   2.391  10.398  3.6052  2.7187 -0.0534
   25CHL1   H2B 1825   4.819   2.490  10.398 -0.9396  0.5647 -2.7625
   25CHL1   C20 1826   4.831   2.707   9.446 -0.2639  0.5991 -0.2502
   25CHL1   H20 1827   4.726   2.689   9.478 -0.8655 -0.9935 -2.9648
   25CHL1   C21 1828   4.874   2.567   9.381  0.5737 -0.2642 -0.6701
   25CHL1  H21A 1829   4.860   2.499   9.468 -3.4912  1.3122  0.0434
   25CHL1  H21B 1830   4.979   2.560   9.345  2.4528 -0.3488  4.3943
   25CHL1  H21C 1831   4.803   2.538   9.301 -1.9933  1.2228  0.9854
   25CHL1   C22 1832   4.818   2.821   9.337  0.3417  0.1894 -0.0712
   25CHL1  H22A 1833   4.775   2.916   9.375 -1.3190 -0.3596 -0.5637
   25CHL1  H22B 1834   4.914   2.850   9.288 -0.0706  0.8822 -0.4678
   25CHL1   C23 1835   4.725   2.788   9.223  0.4956  0.2292 -0.0414
   25CHL1  H23A 1836   4.773   2.721   9.148  2.2505  1.6265 -0.1928
   25CHL1  H23B 1837   4.629   2.751   9.264 -0.2831  3.7666  1.4924
   25CHL1   C24 1838   4.687   2.906   9.132 -0.2353 -0.8068 -0.0641
   25CHL1  H24A 1839   4.645   2.973   9.210 -1.4644  1.7336 -2.8476
   25CHL1  H24B 1840   4.780   2.956   9.097 -1.2594  1.4363  0.3337
   25CHL1   C25 1841   4.580   2.879   9.022  0.4267 -0.0405 -0.4245
   25CHL1   H25 1842   4.497   2.815   9.057 -0.1393  0.8272 -0.1704
   25CHL1   C26 1843   4.532   3.013   8.981  0.1462 -0.3524 -0.0169
   25CHL1  H26A 1844   4.454   3.008   8.902  1.0742 -2.3660 -0.8451
   25CHL1  H26B 1845   4.489   3.066   9.069 -0.7382  0.0932 -0.7118
   25CHL1  H26C 1846   4.620   3.066   8.940  0.0186 -0.0266  0.1287
   25CHL1   C27 1847   4.648   2.793   8.909  0.5677 -0.0083  0.3840
   25CHL1  H27A 1848   4.681   2.694   8.947 -0.5347 -1.0714 -1.3426
   25CHL1  H27B 1849   4.595   2.776   8.813  1.5345  0.2018 -0.1982
   25CHL1  H27C 1850   4.740   2.852   8.888  0.1297  0.4635 -0.2277
   26CHL1    C3 1851   6.266   5.961  10.181 -0.2918  0.0637 -0.3689
   26CHL1    H3 1852   6.341   6.040  10.161 -1.0427  0.3800 -2.0214
   26CHL1    O3 1853   6.278   5.948  10.323  0.2243 -0.1272 -0.2620
   26CHL1   H3' 1854   6.204   5.995  10.362  0.2379 -1.6943  1.6909
   26CHL1    C4 1855   6.131   6.006  10.124  0.1956 -0.1606 -0.5188
   26CHL1   H4A 1856   6.053   5.932  10.150 -0.1566 -0.4707 -2.3728
   26CHL1   H4B 1857   6.107   6.097  10.182 -0.2183 -1.2559  1.0513
   26CHL1    C5 1858   6.127   6.037   9.977 -0.4052  0.8282  0.2452
   26CHL1    C6 1859   6.092   6.157   9.929 -0.3869 -0.6985 -0.3576
   26CHL1    H6 1860   6.063   6.237   9.999  0.6601  0.1837 -0.9089
   26CHL1    C7 1861   6.094   6.196   9.787  0.7859 -0.3175  0.2989
   26CHL1   H7A 1862   6.005   6.252   9.751  2.3541  0.6953 -2.1667
   26CHL1   H7B 1863   6.188   6.252   9.772  0.5953 -0.1727 -0.3779
   26CHL1    C8 1864   6.101   6.074   9.697  0.3279  0.6148  0.1717
   26CHL1    H8 1865   6.000   6.030   9.699  0.5163  0.1877  0.5982
   26CHL1   C14 1866   6.145   6.119   9.560  0.0381  0.0694 -0.4219
   26CHL1   H14 1867   6.241   6.172   9.579  0.1731 -0.7130  1.1536
   26CHL1   C15 1868   6.063   6.227   9.489  0.1471  0.2307 -0.1205
   26CHL1  H15A 1869   5.957   6.196   9.479 -0.7292  2.6829  1.0822
   26CHL1  H15B 1870   6.068   6.323   9.545  0.3737  0.2050 -0.0946
   26CHL1   C16 1871   6.133   6.240   9.358 -0.0485 -0.0126 -0.1031
   26CHL1  H16A 1872   6.048   6.224   9.288  0.5707 -0.1111 -0.8287
   26CHL1  H16B 1873   6.190   6.334   9.346  1.1436 -0.3044  2.7990
   26CHL1   C17 1874   6.222   6.112   9.346  0.6058  0.4266  0.3564
   26CHL1   H17 1875   6.316   6.151   9.392  0.5004  0.5484  0.4704
   26CHL1   C13 1876   6.166   6.015   9.453  0.1031  0.3706 -0.1436
   26CHL1   C18 1877   6.039   5.946   9.414  0.2367  0.3775 -0.3641
   26CHL1  H18A 1878   5.955   6.013   9.385  0.2290  1.4609  2.0223
   26CHL1  H18B 1879   6.049   5.878   9.327 -0.5592  1.0419 -0.9833
   26CHL1  H18C 1880   5.996   5.889   9.499 -0.9416 -0.7886 -1.7129
   26CHL1   C12 1881   6.267   5.917   9.506  1.1039  0.9474 -0.7563
   26CHL1  H12A 1882   6.284   5.841   9.427  1.6363  1.9195 -1.5871
   26CHL1  H12B 1883   6.359   5.977   9.511 -0.0568  2.6628  0.4058
   26CHL1   C11 1884   6.227   5.863   9.641  0.1556  0.0410 -0.6378
   26CHL1  H11A 1885   6.145   5.788   9.638 -0.1800  0.3316  0.8669
   26CHL1  H11B 1886   6.318   5.806   9.669  1.1367  0.9537 -1.9342
   26CHL1    C9 1887   6.205   5.974   9.748 -0.3575 -0.0376  0.2866
   26CHL1    H9 1888   6.300   6.031   9.752  0.1554 -0.9112  0.5741
   26CHL1   C10 1889   6.184   5.921   9.894 -0.7148 -0.2025 -0.4500
   26CHL1   C19 1890   6.084   5.808   9.893  0.4155  0.4919  0.2152
   26CHL1  H19A 1891   6.126   5.719   9.841  0.7238  0.2216  0.9243
   26CHL1  H19B 1892   6.053   5.780   9.996 -1.3205  1.0246 -0.1377
   26CHL1  H19C 1893   5.988   5.841   9.848 -0.1561  0.0693  1.0946
   26CHL1    C1 1894   6.318   5.874   9.958  0.0834  0.4424  1.1380
   26CHL1   H1A 1895   6.355   5.790   9.895 -0.6721  2.2490 -1.7747
   26CHL1   H1B 1896   6.391   5.957   9.947  1.7722 -1.1429  0.1148
   26CHL1    C2 1897   6.309   5.841  10.102 -0.0683  0.1300 -0.7040
   26CHL1   H2A 1898   6.408   5.814  10.145 -0.3813  1.4565  0.9350
   26CHL1   H2B 1899   6.238   5.757  10.123 -0.8359  1.0632  0.5404
   26CHL1   C20 1900   6.244   6.050   9.211  0.0236  0.1924 -0.0419
   26CHL1   H20 1901   6.266   5.943   9.228 -1.1128  0.2639  2.0452
   26CHL1   C21 1902   6.359   6.116   9.141 -1.3143 -0.5713  0.3392
   26CHL1  H21A 1903   6.338   6.225   9.132 -1.0225 -0.7048 -2.3696
   26CHL1  H21B 1904   6.384   6.069   9.044 -0.0975  0.2398  0.2509
   26CHL1  H21C 1905   6.454   6.106   9.199 -1.3235 -1.9888  0.1319
   26CHL1   C22 1906   6.121   6.052   9.122 -0.2916 -1.3690 -0.3115
   26CHL1  H22A 1907   6.026   6.024   9.173  0.3009 -0.6880  1.1874
   26CHL1  H22B 1908   6.104   6.152   9.077 -0.0053 -1.1444  0.0848
   26CHL1   C23 1909   6.135   5.959   9.002  0.4190 -0.0063 -0.1394
   26CHL1  H23A 1910   6.209   5.997   8.929 -0.3850 -1.2853 -1.6372
   26CHL1  H23B 1911   6.170   5.860   9.039  0.5847  0.0309 -0.1972
   26CHL1   C24 1912   6.004   5.926   8.925 -0.5382 -0.5769 -0.4980
   26CHL1  H24A 1913   5.930   5.890   8.999  0.6899  1.5660  1.8483
   26CHL1  H24B 1914   5.967   6.022   8.882  1.3465  0.6642  0.5362
   26CHL1   C25 1915   6.027   5.813   8.820 -0.5838 -0.7415 -0.2193
   26CHL1   H25 1916   6.130   5.835   8.784 -0.8373  0.5639 -0.1654
   26CHL1   C26 1917   6.018   5.678   8.891 -0.0851  0.4862  0.4798
   26CHL1  H26A 1918   5.917   5.676   8.937 -0.1757 -0.0387  0.2593
   26CHL1  H26B 1919   6.028   5.594   8.819  1.6359 -0.6734  2.0469
   26CHL1  H26C 1920   6.085   5.653   8.975  1.1839 -2.1441 -1.2462
   26CHL1   C27 1921   5.926   5.820   8.704  0.6359 -0.6186 -0.0906
   26CHL1  H27A 1922   5.944   5.913   8.646 -0.8183 -0.1119  0.2515
   26CHL1  H27B 1923   5.944   5.732   8.638  2.5342 -2.3334  2.6269
   26CHL1  H27C 1924   5.821   5.821   8.741  1.6565 -0.2163  2.9152
   27CHL1    C3 1925   5.538   2.625  10.296 -0.1716 -0.7266 -0.3592
   27CHL1    H3 1926   5.504   2.730  10.291 -1.4170 -1.0411  1.1576
   27CHL1    O3 1927   5.537   2.588  10.434  0.1887 -0.2065 -0.4053
   27CHL1   H3' 1928   5.594   2.651  10.480 -0.5621  1.1435 -1.2770
   27CHL1    C4 1929   5.442   2.536  10.217 -0.0227  0.4296 -0.5876
   27CHL1   H4A 1930   5.461   2.432  10.252 -3.1234  0.0100 -0.0586
   27CHL1   H4B 1931   5.343   2.554  10.264  0.6432  0.6712  0.7529
   27CHL1    C5 1932   5.445   2.563  10.072 -0.0423  0.7733 -0.3615
   27CHL1    C6 1933   5.337   2.605  10.001 -0.2751  0.0974  0.1553
   27CHL1    H6 1934   5.243   2.630  10.054 -0.2220  2.0259 -0.6313
   27CHL1    C7 1935   5.340   2.625   9.853  0.5554 -0.0114 -0.6763
   27CHL1   H7A 1936   5.253   2.574   9.807  0.5066 -0.8949  0.3615
   27CHL1   H7B 1937   5.332   2.734   9.835  0.0864  0.2817  1.1890
   27CHL1    C8 1938   5.466   2.567   9.782 -0.0377 -0.5868 -0.0944
   27CHL1    H8 1939   5.450   2.457   9.783  0.6958 -0.6919  0.5350
   27CHL1   C14 1940   5.483   2.616   9.637  0.1491 -0.0255 -0.5664
   27CHL1   H14 1941   5.501   2.725   9.649  1.0171 -0.3141  0.9723
   27CHL1   C15 1942   5.359   2.592   9.542 -0.4232  0.8552  0.4271
   27CHL1  H15A 1943   5.308   2.496   9.564 -1.9341  1.3902 -0.5599
   27CHL1  H15B 1944   5.281   2.670   9.558 -1.5031 -0.6149  2.4363
   27CHL1   C16 1945   5.418   2.602   9.401  0.0093 -0.2032  0.1613
   27CHL1  H16A 1946   5.392   2.508   9.347  0.9405 -0.4767  0.1880
   27CHL1  H16B 1947   5.373   2.686   9.344  0.4880  0.1997  0.3828
   27CHL1   C17 1948   5.576   2.627   9.413 -0.4155 -0.1520  0.3972
   27CHL1   H17 1949   5.579   2.738   9.420  2.0589  0.0217 -2.3322
   27CHL1   C13 1950   5.602   2.563   9.554 -0.0728  0.4193  0.2934
   27CHL1   C18 1951   5.615   2.405   9.544  1.0625  0.2245  0.3026
   27CHL1  H18A 1952   5.625   2.356   9.643  1.2325 -1.0103 -0.3085
   27CHL1  H18B 1953   5.535   2.366   9.477 -0.1040 -0.4278  2.0248
   27CHL1  H18C 1954   5.713   2.391   9.493  1.7893  3.8715  0.5926
   27CHL1   C12 1955   5.734   2.604   9.629 -0.0105  0.0010  0.5085
   27CHL1  H12A 1956   5.818   2.558   9.573 -2.1046  0.1776 -2.9475
   27CHL1  H12B 1957   5.732   2.715   9.617  0.3480 -0.0371  0.0863
   27CHL1   C11 1958   5.728   2.565   9.776  0.3752  0.4089  0.6527
   27CHL1  H11A 1959   5.743   2.455   9.777 -0.2028  0.3255  0.0957
   27CHL1  H11B 1960   5.820   2.611   9.820 -0.8072  3.5010  0.0052
   27CHL1    C9 1961   5.599   2.602   9.854  0.0110  0.3373  0.3974
   27CHL1    H9 1962   5.599   2.712   9.862 -0.8122  0.2842  1.3804
   27CHL1   C10 1963   5.590   2.550   9.999  0.5195 -0.1612  0.5215
   27CHL1   C19 1964   5.638   2.404  10.012  0.3592 -0.1457  0.2731
   27CHL1  H19A 1965   5.630   2.358  10.113 -0.0556 -2.3050 -0.7152
   27CHL1  H19B 1966   5.580   2.330   9.952  0.3347 -0.1643  0.3195
   27CHL1  H19C 1967   5.747   2.392   9.991  0.1839 -0.7795 -0.2758
   27CHL1    C1 1968   5.679   2.647  10.079 -0.1337  0.6094 -0.2439
   27CHL1   H1A 1969   5.784   2.632  10.048 -0.4548 -1.4730 -0.3992
   27CHL1   H1B 1970   5.656   2.754  10.061  1.8901  1.2273  0.7714
   27CHL1    C2 1971   5.679   2.625  10.233 -0.3241  0.0046  0.5559
   27CHL1   H2A 1972   5.747   2.700  10.280  1.8728 -0.3782 -1.8945
   27CHL1   H2B 1973   5.729   2.528  10.255  0.8339  0.2049 -1.1288
   27CHL1   C20 1974   5.656   2.581   9.286 -0.1460  0.0576  0.2410
   27CHL1   H20 1975   5.664   2.471   9.289 -0.2187 -0.0399 -2.4056
   27CHL1   C21 1976   5.793   2.645   9.282  0.1965 -0.7194 -0.1058
   27CHL1  H21A 1977   5.846   2.613   9.373 -1.7970 -0.7220  1.0845
   27CHL1  H21B 1978   5.781   2.755   9.290 -1.2363 -0.7451 -1.5614
   27CHL1  H21C 1979   5.848   2.618   9.189  0.5623 -0.8306  0.1418
   27CHL1   C22 1980   5.576   2.618   9.156  0.5390  1.0471 -0.7025
   27CHL1  H22A 1981   5.482   2.558   9.154  1.9413 -1.1310 -2.2351
   27CHL1  H22B 1982   5.544   2.724   9.167  0.0245  0.7613  0.7278
   27CHL1   C23 1983   5.652   2.587   9.023  0.5251 -0.4155 -0.4433
   27CHL1  H23A 1984   5.740   2.655   9.012 -0.2318  0.5937 -0.3916
   27CHL1  H23B 1985   5.696   2.486   9.024  0.0286 -0.6464 -1.3914
   27CHL1   C24 1986   5.571   2.611   8.899  0.1027 -0.6165 -0.7802
   27CHL1  H24A 1987   5.477   2.552   8.905 -1.6676  2.2819  1.0234
   27CHL1  H24B 1988   5.540   2.717   8.886 -0.2413 -0.4292  1.3923
   27CHL1   C25 1989   5.639   2.570   8.761 -0.1858 -0.1449  0.2092
   27CHL1   H25 1990   5.693   2.476   8.785 -0.8597 -0.0260  2.2788
   27CHL1   C26 1991   5.544   2.536   8.652  0.8178 -0.0959 -0.3276
   27CHL1  H26A 1992   5.582   2.483   8.561  1.9587 -2.8098  1.6631
   27CHL1  H26B 1993   5.460   2.469   8.680  0.0962  2.0652  2.9157
   27CHL1  H26C 1994   5.509   2.634   8.613  2.4483  0.2764 -0.8955
   27CHL1   C27 1995   5.750   2.669   8.717  0.2450 -0.4397 -0.8498
   27CHL1  H27A 1996   5.707   2.770   8.701  1.5864  0.5920  1.6552
   27CHL1  H27B 1997   5.832   2.678   8.791 -1.5810 -2.7701  1.5658
   27CHL1  H27C 1998   5.797   2.636   8.622  0.3787 -1.7305 -0.3431
   28CHL1    C3 1999   4.483   1.463   9.992  0.0510  0.4919  0.7104
   28CHL1    H3 2000   4.389   1.518   9.971  0.5247  1.0003 -0.1243
   28CHL1    O3 2001   4.512   1.469  10.130  0.3442  0.3488  0.4049
   28CHL1   H3' 2002   4.589   1.411  10.134 -0.5172 -0.8691 -0.2270
   28CHL1    C4 2003   4.461   1.315   9.938  0.0965  0.2045  0.3243
   28CHL1   H4A 2004   4.546   1.252   9.973  0.1217  1.5304  2.7117
   28CHL1   H4B 2005   4.374   1.271   9.990  0.4564 -0.2792  0.5124
   28CHL1    C5 2006   4.458   1.299   9.782 -0.1135  0.7304  0.2987
   28CHL1    C6 2007   4.354   1.229   9.734  0.3293  0.6615 -0.3211
   28CHL1    H6 2008   4.278   1.178   9.795 -0.5167  0.2772 -1.6622
   28CHL1    C7 2009   4.334   1.207   9.587 -0.1353 -0.4501 -0.1480
   28CHL1   H7A 2010   4.330   1.097   9.572  3.3828 -0.4919 -1.1686
   28CHL1   H7B 2011   4.248   1.261   9.543  1.2320  0.3358 -1.9100
   28CHL1    C8 2012   4.452   1.261   9.497 -0.3033  0.0580 -0.0401
   28CHL1    H8 2013   4.532   1.184   9.503 -0.0832  0.3160  0.3635
   28CHL1   C14 2014   4.408   1.293   9.354 -0.1156  0.2853 -0.3632
   28CHL1   H14 2015   4.343   1.383   9.368 -0.1861  0.3392 -1.0148
   28CHL1   C15 2016   4.318   1.191   9.284  0.8032  0.0760  0.6805
   28CHL1  H15A 2017   4.336   1.086   9.314 -0.0333 -0.4704 -0.7024
   28CHL1  H15B 2018   4.217   1.223   9.318  0.1521 -1.1970 -0.0310
   28CHL1   C16 2019   4.339   1.216   9.132 -0.2003  0.6647  0.2126
   28CHL1  H16A 2020   4.387   1.130   9.081  0.6287 -0.4650  2.8095
   28CHL1  H16B 2021   4.240   1.225   9.081 -0.1891 -1.2952 -0.1698
   28CHL1   C17 2022   4.443   1.328   9.112  0.0520  0.4362 -0.1214
   28CHL1   H17 2023   4.384   1.422   9.117 -0.6322 -0.0587  1.5457
   28CHL1   C13 2024   4.518   1.332   9.253 -0.1213  0.0028  0.1249
   28CHL1   C18 2025   4.618   1.215   9.247  0.3275 -0.2567 -0.1534
   28CHL1  H18A 2026   4.664   1.210   9.348  0.0055 -0.3491 -0.0094
   28CHL1  H18B 2027   4.569   1.121   9.213 -1.9680  1.0212 -0.4951
   28CHL1  H18C 2028   4.703   1.247   9.183 -0.7044 -0.6457 -1.7586
   28CHL1   C12 2029   4.586   1.456   9.303  0.5958  0.5355 -0.2816
   28CHL1  H12A 2030   4.682   1.474   9.251  0.0082 -0.8060 -1.8828
   28CHL1  H12B 2031   4.522   1.545   9.284 -2.6673 -1.6907 -0.2856
   28CHL1   C11 2032   4.618   1.442   9.457  0.0434 -0.1480 -0.3013
   28CHL1  H11A 2033   4.704   1.372   9.458 -0.8647 -1.3531 -2.6354
   28CHL1  H11B 2034   4.656   1.542   9.486  1.0768 -0.9773  1.2802
   28CHL1    C9 2035   4.508   1.390   9.550 -0.4044  0.3244 -0.4826
   28CHL1    H9 2036   4.433   1.470   9.536 -0.0126  0.6689 -0.6163
   28CHL1   C10 2037   4.559   1.378   9.700 -0.3738 -1.2077  0.2440
   28CHL1   C19 2038   4.696   1.317   9.709 -0.0892 -0.2808  0.4340
   28CHL1  H19A 2039   4.770   1.366   9.643 -1.8113  0.6112 -0.8803
   28CHL1  H19B 2040   4.730   1.300   9.814  1.4873  0.4401  0.0559
   28CHL1  H19C 2041   4.691   1.209   9.682 -0.9802 -0.0981 -0.1255
   28CHL1    C1 2042   4.560   1.522   9.759  0.3700 -0.4269 -0.7117
   28CHL1   H1A 2043   4.636   1.585   9.708  2.0078  1.3538  3.7158
   28CHL1   H1B 2044   4.455   1.558   9.757  0.5655  0.4463  1.9689
   28CHL1    C2 2045   4.592   1.534   9.910 -0.1625  0.1829  0.0330
   28CHL1   H2A 2046   4.600   1.644   9.923 -1.2001  0.2230  0.4263
   28CHL1   H2B 2047   4.693   1.490   9.917  0.7233  2.3246  1.0843
   28CHL1   C20 2048   4.527   1.319   8.977 -0.5574  0.1474 -0.6801
   28CHL1   H20 2049   4.601   1.237   8.991  0.6548  1.1632 -0.9917
   28CHL1   C21 2050   4.613   1.446   8.964 -0.7104 -0.2523 -0.4010
   28CHL1  H21A 2051   4.686   1.447   9.047 -1.2496 -1.3288  0.0888
   28CHL1  H21B 2052   4.544   1.533   8.974 -1.2085 -0.7542  0.5135
   28CHL1  H21C 2053   4.667   1.456   8.867 -1.5033 -0.0940 -0.8342
   28CHL1   C22 2054   4.438   1.303   8.848 -0.3010  0.1137  0.8912
   28CHL1  H22A 2055   4.366   1.219   8.864 -0.8524  0.2599 -0.7263
   28CHL1  H22B 2056   4.378   1.394   8.831  1.2588  0.7485 -1.4098
   28CHL1   C23 2057   4.518   1.291   8.721 -0.2198  0.3447 -0.0580
   28CHL1  H23A 2058   4.587   1.377   8.704 -1.3858  1.2515 -0.2313
   28CHL1  H23B 2059   4.583   1.201   8.734  0.3700  0.6986 -0.5386
   28CHL1   C24 2060   4.432   1.279   8.599 -0.4963  0.5151  0.4106
   28CHL1  H24A 2061   4.358   1.197   8.607 -0.6701  0.7353  1.0579
   28CHL1  H24B 2062   4.361   1.365   8.595 -1.5239 -0.3308  0.3870
   28CHL1   C25 2063   4.510   1.264   8.463 -0.2458  0.0051 -1.0572
   28CHL1   H25 2064   4.434   1.245   8.385 -1.6891  2.3341 -0.2689
   28CHL1   C26 2065   4.587   1.387   8.421  0.3037  1.0224  0.3521
   28CHL1  H26A 2066   4.525   1.477   8.444  1.8849  1.3723  3.5877
   28CHL1  H26B 2067   4.676   1.398   8.488 -0.9542  1.3468  2.0150
   28CHL1  H26C 2068   4.628   1.389   8.318 -1.3667  1.9639 -0.3128
   28CHL1   C27 2069   4.605   1.141   8.456  0.0657  0.3765 -0.7720
   28CHL1  H27A 2070   4.562   1.063   8.523 -0.8070  1.2156 -0.3410
   28CHL1  H27B 2071   4.636   1.112   8.353 -0.8063  2.0767 -1.5431
   28CHL1  H27C 2072   4.700   1.174   8.502  0.3661 -0.3922 -0.8266
   29CHL1    C3 2073   5.077   5.366   6.682 -0.5238  0.5551  1.3435
   29CHL1    H3 2074   5.163   5.312   6.729 -0.7664 -0.1824  0.9429
   29CHL1    O3 2075   5.098   5.359   6.542  0.3133  0.4077  0.4664
   29CHL1   H3' 2076   5.031   5.416   6.504  0.2667 -0.8803 -1.5100
   29CHL1    C4 2077   4.949   5.285   6.721 -0.0243 -0.3128 -0.8197
   29CHL1   H4A 2078   4.872   5.337   6.661 -1.4782 -2.3761 -0.7970
   29CHL1   H4B 2079   4.968   5.176   6.713 -0.7001 -0.7693  2.8795
   29CHL1    C5 2080   4.902   5.317   6.871  0.1561  0.2785 -0.1371
   29CHL1    C6 2081   4.855   5.217   6.943 -0.0124  0.1580  0.0913
   29CHL1    H6 2082   4.835   5.122   6.891  1.6983 -0.1785  0.0231
   29CHL1    C7 2083   4.806   5.237   7.084 -0.1329 -0.1181 -0.3631
   29CHL1   H7A 2084   4.711   5.183   7.104 -0.2087 -0.4075 -1.5006
   29CHL1   H7B 2085   4.876   5.189   7.156 -0.4682  0.1827  0.1621
   29CHL1    C8 2086   4.798   5.385   7.122  0.4603  0.8603  0.2186
   29CHL1    H8 2087   4.698   5.424   7.093  1.3585  3.5258  0.5544
   29CHL1   C14 2088   4.809   5.391   7.277  0.3736  0.6644  0.7996
   29CHL1   H14 2089   4.916   5.372   7.299  0.0358  0.6272  2.5186
   29CHL1   C15 2090   4.711   5.300   7.351  0.6484  0.6025  0.1652
   29CHL1  H15A 2091   4.611   5.296   7.302  1.2413  1.7679 -1.1393
   29CHL1  H15B 2092   4.746   5.195   7.347 -0.7652  0.0484  1.6166
   29CHL1   C16 2093   4.698   5.373   7.489 -0.3596 -0.9419  0.2485
   29CHL1  H16A 2094   4.591   5.389   7.511 -0.3573  1.1542 -1.0885
   29CHL1  H16B 2095   4.738   5.307   7.569  0.5980 -1.2222 -0.4415
   29CHL1   C17 2096   4.782   5.500   7.484  0.3533  0.3956  0.0036
   29CHL1   H17 2097   4.886   5.489   7.520  0.9439 -1.3245 -2.1165
   29CHL1   C13 2098   4.792   5.531   7.336  0.3514  0.2978 -0.5833
   29CHL1   C18 2099   4.653   5.585   7.290  0.5831 -0.2706 -0.1407
   29CHL1  H18A 2100   4.653   5.595   7.179  1.7411 -3.9654 -0.5409
   29CHL1  H18B 2101   4.562   5.534   7.326  0.8999 -1.5541 -1.1181
   29CHL1  H18C 2102   4.646   5.691   7.323 -0.4780 -0.1634 -0.6724
   29CHL1   C12 2103   4.911   5.617   7.286 -0.3718  0.3892  0.2355
   29CHL1  H12A 2104   4.916   5.722   7.320 -1.3198  0.2239  0.9000
   29CHL1  H12B 2105   5.000   5.572   7.336  0.0995  2.7727  1.6316
   29CHL1   C11 2106   4.915   5.616   7.131  0.0814  0.0836  0.1906
   29CHL1  H11A 2107   4.845   5.690   7.087  1.3256  1.1582 -0.0550
   29CHL1  H11B 2108   5.014   5.664   7.115  0.7242 -1.0511  0.6869
   29CHL1    C9 2109   4.906   5.470   7.070  0.0078  0.0111  0.0757
   29CHL1    H9 2110   4.994   5.411   7.104  0.1071 -0.3873 -0.8687
   29CHL1   C10 2111   4.921   5.469   6.920 -0.6190  0.6741 -0.2188
   29CHL1   C19 2112   4.808   5.559   6.854 -0.6330 -0.0144  0.5589
   29CHL1  H19A 2113   4.800   5.535   6.746  0.7498  0.5733  0.3196
   29CHL1  H19B 2114   4.714   5.531   6.906 -3.2178  1.9865 -2.8017
   29CHL1  H19C 2115   4.818   5.669   6.868 -0.1878  0.0843 -0.5075
   29CHL1    C1 2116   5.063   5.517   6.881 -0.0405 -0.3053  0.3433
   29CHL1   H1A 2117   5.085   5.621   6.912 -1.4276  0.2557 -0.4755
   29CHL1   H1B 2118   5.145   5.458   6.927  0.9274  0.3201 -0.5461
   29CHL1    C2 2119   5.083   5.509   6.728 -0.5554  0.5748 -0.2807
   29CHL1   H2A 2120   5.179   5.554   6.695  0.2913 -0.7799  0.2754
   29CHL1   H2B 2121   4.992   5.551   6.679 -2.2368 -1.1140  1.2991
   29CHL1   C20 2122   4.717   5.597   7.577  0.2555 -0.9335 -0.4335
   29CHL1   H20 2123   4.611   5.616   7.552  0.1852  1.1978  1.3025
   29CHL1   C21 2124   4.775   5.742   7.575 -0.4850 -0.3959  0.7768
   29CHL1  H21A 2125   4.710   5.828   7.601 -0.0124  0.8102 -1.9159
   29CHL1  H21B 2126   4.809   5.773   7.474  1.2376 -1.8518  0.8660
   29CHL1  H21C 2127   4.859   5.739   7.648 -2.0603  0.7617  2.6686
   29CHL1   C22 2128   4.702   5.551   7.723 -0.9119  0.0136  0.0044
   29CHL1  H22A 2129   4.664   5.638   7.780 -1.0044  1.2091 -1.8241
   29CHL1  H22B 2130   4.621   5.475   7.728 -0.5429 -0.2400  2.2449
   29CHL1   C23 2131   4.831   5.491   7.782  0.3235  0.4319  0.7808
   29CHL1  H23A 2132   4.839   5.385   7.751 -2.0427  0.5752 -0.3958
   29CHL1  H23B 2133   4.918   5.549   7.744  1.0674 -0.0628  1.6968
   29CHL1   C24 2134   4.823   5.506   7.939  0.1785 -0.4645 -0.1680
   29CHL1  H24A 2135   4.815   5.613   7.969  2.8759  0.1401 -1.4590
   29CHL1  H24B 2136   4.723   5.464   7.963  0.1595 -0.0931  0.4063
   29CHL1   C25 2137   4.938   5.439   8.019 -0.3941  0.5829 -0.4902
   29CHL1   H25 2138   5.027   5.500   7.996  1.3584 -1.4635  0.6776
   29CHL1   C26 2139   4.902   5.462   8.173 -0.4707 -0.9073  1.3545
   29CHL1  H26A 2140   4.905   5.570   8.200  1.1607 -0.2307 -1.2566
   29CHL1  H26B 2141   4.808   5.404   8.185 -2.3120  1.5091 -0.8402
   29CHL1  H26C 2142   4.983   5.426   8.240  2.1524 -2.0619 -2.2436
   29CHL1   C27 2143   4.955   5.289   7.992 -0.3607  0.0580  0.0418
   29CHL1  H27A 2144   5.002   5.279   7.891 -0.7790  0.8787 -0.2406
   29CHL1  H27B 2145   5.023   5.236   8.063 -0.5217 -1.8240 -1.1582
   29CHL1  H27C 2146   4.853   5.245   7.987 -0.6358  0.7601 -0.5804
   30CHL1    C3 2147   3.067   4.387   7.365  0.4445  0.5455  0.1337
   30CHL1    H3 2148   2.976   4.339   7.407  0.4964 -0.0512 -0.4176
   30CHL1    O3 2149   3.060   4.377   7.222 -0.1077  0.2612 -0.4552
   30CHL1   H3' 2150   3.146   4.411   7.197 -0.5066  2.1183  0.6166
   30CHL1    C4 2151   3.072   4.536   7.400  0.3248  0.4932  0.2268
   30CHL1   H4A 2152   3.163   4.581   7.356  0.7235 -0.2759  0.2460
   30CHL1   H4B 2153   2.981   4.588   7.364  0.2307  1.5813  1.9724
   30CHL1    C5 2154   3.083   4.549   7.554  0.0444 -0.8776 -0.4273
   30CHL1    C6 2155   2.989   4.628   7.622 -0.0601  1.3118 -0.0331
   30CHL1    H6 2156   2.913   4.692   7.576 -0.9359  0.7468  0.6150
   30CHL1    C7 2157   2.983   4.640   7.764  0.3392 -0.5837 -0.3627
   30CHL1   H7A 2158   2.962   4.746   7.791 -1.1304 -0.8322 -0.4869
   30CHL1   H7B 2159   2.892   4.588   7.801  0.9819 -1.2784  0.2638
   30CHL1    C8 2160   3.112   4.597   7.839 -0.7377  0.1969  0.2675
   30CHL1    H8 2161   3.189   4.676   7.822 -1.4527  0.4521 -1.9870
   30CHL1   C14 2162   3.084   4.580   7.991  0.4011 -0.1088  0.0985
   30CHL1   H14 2163   3.007   4.501   7.988 -0.2188  0.3664  2.7372
   30CHL1   C15 2164   3.016   4.698   8.066 -0.4078  0.5671 -0.6940
   30CHL1  H15A 2165   3.059   4.799   8.048  2.1021 -0.4964 -0.9226
   30CHL1  H15B 2166   2.909   4.704   8.036 -0.5327 -0.4084 -0.4578
   30CHL1   C16 2167   3.021   4.657   8.207 -0.1107  0.2054 -0.1357
   30CHL1  H16A 2168   3.071   4.740   8.260 -0.4601 -0.5087  1.3290
   30CHL1  H16B 2169   2.922   4.632   8.249 -1.0381  1.3263 -1.5888
   30CHL1   C17 2170   3.117   4.529   8.210 -0.3446  0.3495  0.2022
   30CHL1   H17 2171   3.064   4.431   8.204  0.8183 -0.3837  1.6934
   30CHL1   C13 2172   3.193   4.539   8.084 -0.1483  0.1115  0.5382
   30CHL1   C18 2173   3.302   4.650   8.082 -0.6132  0.4076  0.4211
   30CHL1  H18A 2174   3.394   4.610   8.129  0.3458 -0.9759 -2.4987
   30CHL1  H18B 2175   3.320   4.693   7.981  1.3957 -1.3538 -0.0262
   30CHL1  H18C 2176   3.252   4.721   8.151 -0.9786 -0.9795  1.6088
   30CHL1   C12 2177   3.252   4.412   8.019  0.4484  0.0996  0.1325
   30CHL1  H12A 2178   3.339   4.373   8.076 -0.8538 -2.2773  0.5329
   30CHL1  H12B 2179   3.181   4.327   8.027  3.0329 -2.3862 -2.4269
   30CHL1   C11 2180   3.285   4.432   7.872  0.0237 -0.0840 -0.7784
   30CHL1  H11A 2181   3.354   4.519   7.870 -0.3248  0.1857 -1.0666
   30CHL1  H11B 2182   3.346   4.344   7.841  0.6275  0.4295 -1.0594
   30CHL1    C9 2183   3.165   4.460   7.783  0.5891  0.1770 -0.3835
   30CHL1    H9 2184   3.089   4.382   7.805 -1.3694  1.9203 -0.8215
   30CHL1   C10 2185   3.193   4.462   7.630 -0.2506  0.7942 -0.4189
   30CHL1   C19 2186   3.319   4.540   7.605 -0.3290  0.9535 -0.0992
   30CHL1  H19A 2187   3.334   4.542   7.495 -0.1592 -1.1641 -0.1361
   30CHL1  H19B 2188   3.307   4.636   7.659  1.9700  0.0020  2.1893
   30CHL1  H19C 2189   3.408   4.491   7.651 -1.8475 -0.0921  1.7796
   30CHL1    C1 2190   3.192   4.315   7.580 -0.0404 -0.5038  0.2670
   30CHL1   H1A 2191   3.284   4.273   7.626 -0.9118 -2.0399  0.6330
   30CHL1   H1B 2192   3.105   4.257   7.616 -0.8837  0.5523 -0.0574
   30CHL1    C2 2193   3.198   4.319   7.423 -0.1589 -0.2181 -0.1743
   30CHL1   H2A 2194   3.221   4.219   7.381  1.7584  1.0267 -2.2303
   30CHL1   H2B 2195   3.286   4.377   7.387  0.5841  0.6922  2.9209
   30CHL1   C20 2196   3.196   4.527   8.341  0.1024  0.1541  0.8062
   30CHL1   H20 2197   3.269   4.611   8.343  0.2251  0.0791 -0.0967
   30CHL1   C21 2198   3.279   4.390   8.356  1.2430  0.1508  0.2459
   30CHL1  H21A 2199   3.371   4.392   8.294 -0.8172  1.8830 -2.8667
   30CHL1  H21B 2200   3.215   4.302   8.333  1.2369  0.6618 -1.7377
   30CHL1  H21C 2201   3.308   4.374   8.462  1.1583 -5.1792 -0.3632
   30CHL1   C22 2202   3.109   4.534   8.467  0.0858 -0.1981  0.0945
   30CHL1  H22A 2203   3.184   4.507   8.545  0.7643  3.3634  0.7698
   30CHL1  H22B 2204   3.077   4.634   8.504 -0.4301 -1.0694  2.1007
   30CHL1   C23 2205   2.985   4.442   8.464 -0.6215  0.1100  0.1430
   30CHL1  H23A 2206   2.916   4.459   8.379 -1.4265 -4.0703 -0.1426
   30CHL1  H23B 2207   3.021   4.338   8.459 -0.4358  0.1287  1.0150
   30CHL1   C24 2208   2.895   4.454   8.593 -0.1422  0.2117 -0.1370
   30CHL1  H24A 2209   2.950   4.393   8.667 -0.4097 -0.2246 -0.2911
   30CHL1  H24B 2210   2.883   4.561   8.616  1.4080  0.6051 -1.0731
   30CHL1   C25 2211   2.767   4.375   8.573 -0.0293 -0.7085 -0.4648
   30CHL1   H25 2212   2.790   4.279   8.522  0.1989 -0.8122 -0.1630
   30CHL1   C26 2213   2.713   4.330   8.712 -0.1067 -0.1001 -0.0200
   30CHL1  H26A 2214   2.624   4.262   8.711 -0.0238 -0.2584  1.3243
   30CHL1  H26B 2215   2.801   4.286   8.764  0.2386  1.9081  1.1683
   30CHL1  H26C 2216   2.687   4.428   8.758  2.0781  0.8987 -0.8514
   30CHL1   C27 2217   2.656   4.450   8.497  0.3639  0.6172 -0.7536
   30CHL1  H27A 2218   2.644   4.555   8.534  1.1399  0.5983 -0.4428
   30CHL1  H27B 2219   2.676   4.459   8.388 -0.2632 -0.6851 -0.9892
   30CHL1  H27C 2220   2.565   4.387   8.504  0.9547 -0.5589 -3.1235
   31CHL1    C3 2221   2.553   6.084   6.794  0.1673 -0.3396 -0.0289
   31CHL1    H3 2222   2.639   6.143   6.758 -1.5427  1.5010 -1.2240
   31CHL1    O3 2223   2.466   6.063   6.684 -0.0128  0.1843  0.4657
   31CHL1   H3' 2224   2.403   5.999   6.719  1.0940 -1.9084 -1.2765
   31CHL1    C4 2225   2.580   5.944   6.863 -0.1102 -0.8182  0.2156
   31CHL1   H4A 2226   2.481   5.901   6.888 -0.0899 -1.2608 -0.4482
   31CHL1   H4B 2227   2.627   5.872   6.792  1.2047 -0.9035  1.1550
   31CHL1    C5 2228   2.657   5.952   6.992  0.3496 -0.4121 -0.2459
   31CHL1    C6 2229   2.770   5.878   7.017  0.0791 -0.2138 -0.8211
   31CHL1    H6 2230   2.802   5.812   6.936  0.6758  0.8858 -1.4967
   31CHL1    C7 2231   2.827   5.879   7.154  0.0531  0.1333 -1.0927
   31CHL1   H7A 2232   2.842   5.778   7.197  2.5554  1.4239  1.2057
   31CHL1   H7B 2233   2.930   5.921   7.150  0.8236 -1.6625 -0.5334
   31CHL1    C8 2234   2.743   5.950   7.265  0.5603 -0.0340 -0.5309
   31CHL1    H8 2235   2.661   5.882   7.297  1.5178 -0.1008  1.9544
   31CHL1   C14 2236   2.828   5.970   7.387 -0.0435 -0.1182 -0.4006
   31CHL1   H14 2237   2.901   6.048   7.358 -0.7283  0.5310 -0.3903
   31CHL1   C15 2238   2.906   5.855   7.439  0.2718 -0.1872 -0.3909
   31CHL1  H15A 2239   2.838   5.767   7.437 -0.2022  0.1861 -1.3662
   31CHL1  H15B 2240   2.990   5.841   7.367  1.5634 -0.4722  1.1553
   31CHL1   C16 2241   2.950   5.887   7.574  0.0057  0.5129 -0.5358
   31CHL1  H16A 2242   2.933   5.807   7.649  1.1528  0.1745 -0.6210
   31CHL1  H16B 2243   3.059   5.906   7.577  0.4710 -1.7813 -1.6586
   31CHL1   C17 2244   2.883   6.017   7.617  0.1418 -0.2224  0.4929
   31CHL1   H17 2245   2.957   6.093   7.586  0.6231 -1.4659 -1.4634
   31CHL1   C13 2246   2.759   6.039   7.514  0.1955  0.2645  0.6020
   31CHL1   C18 2247   2.646   5.951   7.577 -0.1325 -0.0464  0.8456
   31CHL1  H18A 2248   2.557   5.942   7.512  0.1246  0.9344  0.3517
   31CHL1  H18B 2249   2.678   5.848   7.605  1.0392 -0.2836 -1.2947
   31CHL1  H18C 2250   2.614   5.999   7.672 -1.9961  0.2035  0.0994
   31CHL1   C12 2251   2.711   6.178   7.461  0.1848  0.1310 -0.1822
   31CHL1  H12A 2252   2.645   6.227   7.535 -1.6562 -1.6916 -0.5811
   31CHL1  H12B 2253   2.802   6.242   7.457  1.7408 -2.0280 -0.5218
   31CHL1   C11 2254   2.630   6.159   7.330 -0.1216 -0.5079 -0.2917
   31CHL1  H11A 2255   2.538   6.107   7.364  1.9864 -2.4085  2.6486
   31CHL1  H11B 2256   2.587   6.257   7.298 -1.3271 -0.8468  0.2752
   31CHL1    C9 2257   2.690   6.076   7.216 -0.2328 -0.2812 -0.3031
   31CHL1    H9 2258   2.774   6.132   7.169 -0.2004 -0.9547 -1.0655
   31CHL1   C10 2259   2.596   6.055   7.091  0.3884  0.4556 -0.5626
   31CHL1   C19 2260   2.460   6.007   7.144  1.2617  0.3309  0.0535
   31CHL1  H19A 2261   2.477   5.913   7.200 -2.5001 -0.6673 -0.3384
   31CHL1  H19B 2262   2.397   6.084   7.194 -1.8633 -0.1820 -2.9132
   31CHL1  H19C 2263   2.394   5.978   7.060 -0.7934 -2.2772  2.4568
   31CHL1    C1 2264   2.591   6.197   7.019  0.6201  0.8888  0.4289
   31CHL1   H1A 2265   2.546   6.266   7.094  0.1495 -1.2573  2.1906
   31CHL1   H1B 2266   2.695   6.223   6.990  0.4211  0.0828 -1.0505
   31CHL1    C2 2267   2.493   6.190   6.900 -0.3558 -0.1390  0.5097
   31CHL1   H2A 2268   2.485   6.288   6.848 -2.4766 -0.5688 -0.0206
   31CHL1   H2B 2269   2.397   6.141   6.928  0.3344 -1.3256  0.8351
   31CHL1   C20 2270   2.866   6.032   7.768  0.2843 -0.3057  0.3000
   31CHL1   H20 2271   2.782   5.965   7.797 -0.9037  0.4526 -1.3813
   31CHL1   C21 2272   2.836   6.185   7.800 -0.7909  0.2239 -0.0503
   31CHL1  H21A 2273   2.799   6.206   7.903 -1.8752 -1.0371 -0.1664
   31CHL1  H21B 2274   2.743   6.215   7.747  0.3693  0.2461 -2.1495
   31CHL1  H21C 2275   2.926   6.246   7.778  0.4144 -1.6557 -0.4298
   31CHL1   C22 2276   3.000   6.009   7.844  0.7242  0.2923  0.3200
   31CHL1  H22A 2277   3.026   5.904   7.820 -1.0166  0.1547 -1.0087
   31CHL1  H22B 2278   3.075   6.082   7.807 -2.7796  2.8051 -2.1165
   31CHL1   C23 2279   2.983   6.036   7.997 -0.5486  0.2311  0.5604
   31CHL1  H23A 2280   2.960   6.143   8.011 -2.3669 -0.3869  2.5017
   31CHL1  H23B 2281   2.899   5.971   8.030 -0.7514 -0.0497 -0.4971
   31CHL1   C24 2282   3.119   5.995   8.076 -0.2597  0.1422 -0.1548
   31CHL1  H24A 2283   3.153   5.899   8.032  0.9716  0.7969 -0.6754
   31CHL1  H24B 2284   3.204   6.061   8.048 -1.2603  0.4151 -2.6456
   31CHL1   C25 2285   3.099   5.989   8.227 -1.0432  0.2986 -0.2998
   31CHL1   H25 2286   3.003   5.933   8.239 -2.5353  3.2806  2.3538
   31CHL1   C26 2287   3.198   5.895   8.297  0.2591  0.1576  0.4230
   31CHL1  H26A 2288   3.158   5.881   8.399 -2.1558  1.8622 -0.2531
   31CHL1  H26B 2289   3.215   5.795   8.253 -1.4102  0.2587 -0.4913
   31CHL1  H26C 2290   3.297   5.946   8.303  1.5568 -2.2028 -0.2553
   31CHL1   C27 2291   3.081   6.129   8.296  0.2362 -0.1202 -0.2744
   31CHL1  H27A 2292   3.055   6.116   8.403  2.1921  0.5270  0.3024
   31CHL1  H27B 2293   3.015   6.189   8.230  0.5942  0.7594  0.1644
   31CHL1  H27C 2294   3.176   6.184   8.280  0.4652 -1.0200 -2.1877
   32CHL1    C3 2295   3.103   4.889   7.019 -0.0276 -0.0639  0.2991
   32CHL1    H3 2296   3.051   4.987   7.016  0.7161  0.3661  1.1061
   32CHL1    O3 2297   3.077   4.825   6.897  0.6354  0.1873 -0.4249
   32CHL1   H3' 2298   2.983   4.805   6.901  1.0892 -1.8604  0.4211
   32CHL1    C4 2299   3.249   4.915   7.039 -0.8264 -0.1240  0.2395
   32CHL1   H4A 2300   3.305   4.820   7.023  0.6583  0.7072  0.4370
   32CHL1   H4B 2301   3.269   4.975   6.948 -1.4081 -0.5652 -0.1869
   32CHL1    C5 2302   3.284   4.983   7.167 -0.1997 -0.2426  0.2258
   32CHL1    C6 2303   3.346   5.105   7.183  0.7003  0.5763  0.1503
   32CHL1    H6 2304   3.378   5.161   7.094  1.9506  1.4597  1.1348
   32CHL1    C7 2305   3.376   5.173   7.309  0.0261 -0.0969  0.3167
   32CHL1   H7A 2306   3.484   5.193   7.322  0.5760 -1.9647 -1.0893
   32CHL1   H7B 2307   3.319   5.264   7.335  0.5705  0.3579 -0.0849
   32CHL1    C8 2308   3.355   5.072   7.432  0.8238 -0.4744  0.8205
   32CHL1    H8 2309   3.441   5.002   7.429  0.4006 -0.9603 -0.3562
   32CHL1   C14 2310   3.360   5.146   7.572  0.2742 -0.6666  0.8543
   32CHL1   H14 2311   3.271   5.212   7.569  1.4014  0.8328 -0.1037
   32CHL1   C15 2312   3.479   5.239   7.596  0.2631 -0.1889 -0.5506
   32CHL1  H15A 2313   3.581   5.197   7.585  1.1580  1.4219  1.3078
   32CHL1  H15B 2314   3.463   5.335   7.543 -0.3406  1.6416  2.7625
   32CHL1   C16 2315   3.465   5.268   7.752 -0.1123 -0.1967  0.6820
   32CHL1  H16A 2316   3.563   5.229   7.787 -1.0456 -3.7738 -0.4354
   32CHL1  H16B 2317   3.449   5.376   7.773 -1.1957 -0.3753  0.7901
   32CHL1   C17 2318   3.343   5.180   7.802 -0.6927  0.2060 -0.0365
   32CHL1   H17 2319   3.252   5.242   7.792 -0.6492  0.1042 -1.1260
   32CHL1   C13 2320   3.333   5.059   7.695  0.2792  0.2855 -0.2837
   32CHL1   C18 2321   3.445   4.952   7.712  0.3683 -0.2348 -0.8487
   32CHL1  H18A 2322   3.409   4.864   7.771 -2.1240 -0.4281 -2.5557
   32CHL1  H18B 2323   3.467   4.905   7.614 -2.3252 -0.6447 -1.2950
   32CHL1  H18C 2324   3.529   4.994   7.771 -0.2899 -1.3355  0.9502
   32CHL1   C12 2325   3.189   5.004   7.671 -0.1169 -0.2976 -0.3891
   32CHL1  H12A 2326   3.161   4.937   7.755  0.6655  0.7136  0.6927
   32CHL1  H12B 2327   3.122   5.093   7.663  0.3981  0.0437 -1.0788
   32CHL1   C11 2328   3.175   4.924   7.543  0.2987 -0.2651 -0.3100
   32CHL1  H11A 2329   3.217   4.822   7.553 -1.3150 -0.6683  3.0290
   32CHL1  H11B 2330   3.068   4.897   7.550  0.9904 -2.7950  1.1364
   32CHL1    C9 2331   3.222   4.998   7.415  0.0411 -0.2269  0.1014
   32CHL1    H9 2332   3.156   5.086   7.398 -0.3228 -0.6660 -0.7853
   32CHL1   C10 2333   3.221   4.902   7.291 -0.6259  0.3553 -0.9193
   32CHL1   C19 2334   3.330   4.793   7.301  0.4084  0.1048  0.3341
   32CHL1  H19A 2335   3.328   4.713   7.224  1.0601 -0.7820  1.2345
   32CHL1  H19B 2336   3.433   4.829   7.323  1.0102 -1.4051  0.0663
   32CHL1  H19C 2337   3.302   4.737   7.393 -1.0385  0.8581  0.3664
   32CHL1    C1 2338   3.078   4.859   7.271  0.8124  0.1998  0.1218
   32CHL1   H1A 2339   3.034   4.794   7.350 -0.0169  0.2157 -0.3092
   32CHL1   H1B 2340   3.016   4.950   7.281 -1.4535 -1.3081  0.3402
   32CHL1    C2 2341   3.055   4.789   7.134  0.2280 -0.6756 -0.1688
   32CHL1   H2A 2342   2.946   4.772   7.122  0.4056  0.5681 -4.4251
   32CHL1   H2B 2343   3.108   4.692   7.134  0.2285 -0.6757  0.0528
   32CHL1   C20 2344   3.359   5.137   7.947 -0.0573  0.2928 -0.1488
   32CHL1   H20 2345   3.464   5.105   7.962 -0.3250 -0.0987  0.8940
   32CHL1   C21 2346   3.259   5.026   7.985  0.7428  0.1469 -0.0150
   32CHL1  H21A 2347   3.157   5.054   7.952  0.5460 -0.0583  0.4205
   32CHL1  H21B 2348   3.265   5.011   8.095  1.5324 -4.3577 -0.5497
   32CHL1  H21C 2349   3.277   4.923   7.948 -0.6097 -0.8331  1.9663
   32CHL1   C22 2350   3.341   5.248   8.051  1.0124  0.1297 -0.2438
   32CHL1  H22A 2351   3.409   5.327   8.013  0.9951  0.3094  0.0999
   32CHL1  H22B 2352   3.238   5.288   8.059  0.3440 -1.1379 -2.1876
   32CHL1   C23 2353   3.402   5.230   8.190  0.0436  0.5133  0.1733
   32CHL1  H23A 2354   3.324   5.169   8.240 -0.2994  1.8207  1.2759
   32CHL1  H23B 2355   3.499   5.177   8.187 -1.0367 -1.7928  3.4604
   32CHL1   C24 2356   3.417   5.360   8.269  1.0447  0.0319 -0.2187
   32CHL1  H24A 2357   3.493   5.425   8.221  2.0908 -1.4520 -0.5866
   32CHL1  H24B 2358   3.324   5.421   8.265  2.5939  2.3171 -2.4794
   32CHL1   C25 2359   3.458   5.339   8.415 -0.7420  0.2099 -0.6565
   32CHL1   H25 2360   3.555   5.286   8.406  0.3742  2.2964 -1.1664
   32CHL1   C26 2361   3.489   5.475   8.489  0.1733  0.1786 -0.0962
   32CHL1  H26A 2362   3.564   5.534   8.433 -2.9712  2.3059 -2.2700
   32CHL1  H26B 2363   3.394   5.530   8.510 -0.9360 -1.8909  0.4509
   32CHL1  H26C 2364   3.534   5.452   8.588  0.9029  1.3806 -0.1458
   32CHL1   C27 2365   3.364   5.244   8.507  0.2543 -0.3040 -0.7273
   32CHL1  H27A 2366   3.414   5.240   8.606  2.2161  2.0371 -1.5623
   32CHL1  H27B 2367   3.272   5.302   8.532  0.1091 -0.5603 -0.6733
   32CHL1  H27C 2368   3.341   5.147   8.460  0.7675 -1.2035  0.8524
   33CHL1    C3 2369   4.338   4.671   6.798 -0.3315  0.4826 -0.1998
   33CHL1    H3 2370   4.273   4.581   6.782  3.1790 -2.4401  1.2362
   33CHL1    O3 2371   4.369   4.728   6.672  0.2106  0.3908 -0.1471
   33CHL1   H3' 2372   4.419   4.661   6.625 -2.6432 -1.5832 -0.4911
   33CHL1    C4 2373   4.262   4.770   6.885  0.0980 -0.5072 -0.3399
   33CHL1   H4A 2374   4.330   4.858   6.879 -1.7677  0.8568 -2.0773
   33CHL1   H4B 2375   4.169   4.798   6.832 -0.0654 -1.6149 -0.6450
   33CHL1    C5 2376   4.239   4.729   7.027  0.2872 -0.1850 -0.0128
   33CHL1    C6 2377   4.116   4.739   7.083 -0.7020 -0.6952 -0.3961
   33CHL1    H6 2378   4.030   4.778   7.027 -1.2824  2.5631  2.5762
   33CHL1    C7 2379   4.081   4.705   7.229 -0.0638 -0.7297  0.4424
   33CHL1   H7A 2380   4.009   4.778   7.271  0.5260 -0.3360  0.7829
   33CHL1   H7B 2381   4.020   4.613   7.233 -1.6272  0.2568 -0.3452
   33CHL1    C8 2382   4.211   4.689   7.315  0.9859  0.5846  0.0214
   33CHL1    H8 2383   4.266   4.785   7.328  0.3481  1.2359 -1.9148
   33CHL1   C14 2384   4.176   4.633   7.453 -0.1805 -0.0033  0.5621
   33CHL1   H14 2385   4.131   4.532   7.436  1.4107 -0.7747  0.8143
   33CHL1   C15 2386   4.080   4.711   7.528 -0.8550  0.6674 -0.6702
   33CHL1  H15A 2387   4.126   4.811   7.539 -2.2361  1.3119 -0.6851
   33CHL1  H15B 2388   3.975   4.718   7.491 -1.3854 -1.9036  0.2235
   33CHL1   C16 2389   4.101   4.660   7.673  0.0948 -0.0335 -0.5846
   33CHL1  H16A 2390   4.130   4.744   7.741  1.3394 -1.1784  0.3261
   33CHL1  H16B 2391   4.007   4.611   7.707  0.8226 -0.0507  1.5156
   33CHL1   C17 2392   4.230   4.567   7.677 -0.4135  0.3512  0.1045
   33CHL1   H17 2393   4.185   4.467   7.660  0.0998  0.8566 -4.9306
   33CHL1   C13 2394   4.299   4.609   7.545  0.5625  0.4528  0.5975
   33CHL1   C18 2395   4.380   4.739   7.573  0.4945  0.0259 -0.5888
   33CHL1  H18A 2396   4.331   4.820   7.631  2.9815 -0.3754  2.1989
   33CHL1  H18B 2397   4.463   4.709   7.640 -0.0073 -0.5174 -0.1983
   33CHL1  H18C 2398   4.423   4.784   7.481  1.5170 -0.0029 -0.1289
   33CHL1   C12 2399   4.378   4.503   7.473 -0.0501 -0.1304  0.7613
   33CHL1  H12A 2400   4.465   4.461   7.529 -0.6301 -0.2497  1.5868
   33CHL1  H12B 2401   4.312   4.416   7.452 -0.6329  0.4387  0.2296
   33CHL1   C11 2402   4.433   4.547   7.339  0.3432 -0.5538  0.3756
   33CHL1  H11A 2403   4.508   4.624   7.367 -0.0169  0.1678 -0.5764
   33CHL1  H11B 2404   4.484   4.462   7.289 -1.3149 -0.1642 -2.1044
   33CHL1    C9 2405   4.314   4.602   7.247  0.3275  0.1405 -0.4341
   33CHL1    H9 2406   4.259   4.512   7.213  1.2861 -0.2530 -0.9720
   33CHL1   C10 2407   4.361   4.662   7.112 -0.0919 -0.2778 -0.1255
   33CHL1   C19 2408   4.467   4.777   7.138  0.5762  0.2153 -0.3747
   33CHL1  H19A 2409   4.565   4.725   7.138  0.6045  0.2674 -0.0304
   33CHL1  H19B 2410   4.470   4.851   7.056  0.3704 -0.3232 -0.8732
   33CHL1  H19C 2411   4.446   4.826   7.236 -0.2015 -1.4296  0.3175
   33CHL1    C1 2412   4.435   4.567   7.014  0.1980 -0.4590 -0.7141
   33CHL1   H1A 2413   4.522   4.528   7.071 -0.4245 -1.5418 -0.4779
   33CHL1   H1B 2414   4.378   4.474   6.993 -2.2693 -0.2788  4.4558
   33CHL1    C2 2415   4.468   4.619   6.870 -0.3235 -0.1500 -0.0706
   33CHL1   H2A 2416   4.511   4.539   6.804 -2.6133 -1.1693 -0.3699
   33CHL1   H2B 2417   4.538   4.705   6.878 -0.6718  0.0505  0.8684
   33CHL1   C20 2418   4.316   4.548   7.804  0.7916 -0.0485  0.5054
   33CHL1   H20 2419   4.360   4.648   7.823  1.2296  0.3436 -2.3938
   33CHL1   C21 2420   4.421   4.442   7.814  0.4592  0.3574  0.6181
   33CHL1  H21A 2421   4.368   4.344   7.806  1.2054 -0.1192  1.4143
   33CHL1  H21B 2422   4.485   4.458   7.903  1.7149  2.3194 -0.6179
   33CHL1  H21C 2423   4.488   4.447   7.726  2.0227 -0.5182  1.7297
   33CHL1   C22 2424   4.217   4.524   7.923  0.3228  0.3418  0.0585
   33CHL1  H22A 2425   4.122   4.580   7.913  0.4204  1.1634  3.1889
   33CHL1  H22B 2426   4.197   4.415   7.924 -0.6274  0.4735 -1.9868
   33CHL1   C23 2427   4.268   4.578   8.059  0.1058  0.1922  0.6864
   33CHL1  H23A 2428   4.374   4.553   8.077 -0.3413 -3.3232 -1.0455
   33CHL1  H23B 2429   4.262   4.689   8.052 -1.5696  0.1895  1.8162
   33CHL1   C24 2430   4.185   4.532   8.179 -0.6966 -0.1112 -0.3000
   33CHL1  H24A 2431   4.083   4.575   8.168 -0.1071  1.3287 -0.2560
   33CHL1  H24B 2432   4.191   4.422   8.192 -1.0353  0.1622  2.5896
   33CHL1   C25 2433   4.238   4.587   8.314  0.6656  0.5164 -0.2698
   33CHL1   H25 2434   4.232   4.698   8.316 -1.8611  0.4402 -1.1810
   33CHL1   C26 2435   4.145   4.534   8.421  0.3204  0.5440 -0.4925
   33CHL1  H26A 2436   4.114   4.427   8.422 -3.1796  1.4704  0.4597
   33CHL1  H26B 2437   4.197   4.544   8.519  4.0382  0.9781 -2.4537
   33CHL1  H26C 2438   4.048   4.588   8.433 -0.5137 -0.9474 -0.3591
   33CHL1   C27 2439   4.378   4.532   8.352  0.7230  0.0089 -0.1901
   33CHL1  H27A 2440   4.418   4.563   8.451  0.2316 -0.3345  0.1187
   33CHL1  H27B 2441   4.372   4.421   8.350  1.4568 -0.0340 -0.3143
   33CHL1  H27C 2442   4.456   4.570   8.282 -1.4483  0.0190 -2.6756
   34CHL1    C3 2443   5.977   3.345   7.118 -0.3658 -0.5155  0.8269
   34CHL1    H3 2444   6.072   3.403   7.125 -0.3500  0.0129 -3.1304
   34CHL1    O3 2445   5.925   3.368   6.989 -0.0679 -0.1449 -0.3064
   34CHL1   H3' 2446   5.933   3.285   6.941 -1.4781 -0.7469  0.4606
   34CHL1    C4 2447   6.009   3.193   7.142 -0.0494  0.3741 -0.0693
   34CHL1   H4A 2448   5.912   3.143   7.121 -0.0634 -0.4607  1.8243
   34CHL1   H4B 2449   6.065   3.147   7.058  0.6705  1.9578 -0.4677
   34CHL1    C5 2450   6.060   3.165   7.288  0.0671 -0.5204  0.0571
   34CHL1    C6 2451   6.179   3.104   7.314  0.2616  0.3230  0.3684
   34CHL1    H6 2452   6.235   3.067   7.227  1.1632 -1.4406  1.6793
   34CHL1    C7 2453   6.221   3.076   7.453 -0.1033 -0.4720  0.0166
   34CHL1   H7A 2454   6.242   2.967   7.447 -0.0917 -0.5636  1.6207
   34CHL1   H7B 2455   6.310   3.139   7.472 -0.1754 -0.4857  0.3923
   34CHL1    C8 2456   6.112   3.086   7.561 -0.2225  0.9155  0.4536
   34CHL1    H8 2457   6.050   2.995   7.544 -0.6884  1.2242  0.4849
   34CHL1   C14 2458   6.174   3.090   7.700 -1.5700 -0.5674 -0.1507
   34CHL1   H14 2459   6.226   3.188   7.696 -1.8304 -0.4778 -1.3442
   34CHL1   C15 2460   6.283   2.984   7.734  0.1929 -0.1342  0.0146
   34CHL1  H15A 2461   6.240   2.889   7.697 -2.5230  1.0363  0.0239
   34CHL1  H15B 2462   6.386   3.017   7.708 -0.6044  3.6207  1.2474
   34CHL1   C16 2463   6.280   2.981   7.890 -0.0894 -0.4594  0.1098
   34CHL1  H16A 2464   6.250   2.878   7.919  1.5882 -0.6942  1.0934
   34CHL1  H16B 2465   6.378   3.004   7.938 -0.8216  1.9790  0.4837
   34CHL1   C17 2466   6.178   3.089   7.935  0.5945  0.4877 -0.0837
   34CHL1   H17 2467   6.229   3.188   7.938  0.6711  0.5368 -2.1985
   34CHL1   C13 2468   6.078   3.098   7.815  0.4387  0.0968 -0.2634
   34CHL1   C18 2469   5.976   2.978   7.822 -0.3670  0.2414 -0.2763
   34CHL1  H18A 2470   5.918   2.965   7.728  4.4642  0.5976 -3.5332
   34CHL1  H18B 2471   6.019   2.877   7.838  1.9776  1.0416 -1.3114
   34CHL1  H18C 2472   5.898   3.001   7.897  0.8957  3.0137  0.2470
   34CHL1   C12 2473   6.004   3.229   7.808  0.4940 -0.3431  0.5370
   34CHL1  H12A 2474   5.933   3.230   7.894 -2.1250  0.3749 -1.5676
   34CHL1  H12B 2475   6.081   3.308   7.820 -1.2569  1.2335  1.7385
   34CHL1   C11 2476   5.934   3.243   7.667  0.0898 -0.1788  0.4395
   34CHL1  H11A 2477   5.858   3.163   7.677 -0.2003 -0.1433 -1.3102
   34CHL1  H11B 2478   5.878   3.338   7.650 -0.4889 -0.9623 -2.3629
   34CHL1    C9 2479   6.030   3.212   7.544  0.1178 -0.1459  0.3847
   34CHL1    H9 2480   6.105   3.293   7.543 -0.7548  0.6667 -0.2113
   34CHL1   C10 2481   5.970   3.225   7.401  0.0428  0.5479 -0.0978
   34CHL1   C19 2482   5.839   3.151   7.401  0.1378  0.2768  0.0937
   34CHL1  H19A 2483   5.758   3.211   7.447 -3.6752 -4.3513 -0.1297
   34CHL1  H19B 2484   5.796   3.136   7.300 -0.3475  3.1598 -0.1523
   34CHL1  H19C 2485   5.839   3.047   7.441  2.1374  0.2219  0.0298
   34CHL1    C1 2486   5.936   3.383   7.365 -0.1280  0.1750 -0.2933
   34CHL1   H1A 2487   5.849   3.405   7.431  0.1877  2.0571 -0.4775
   34CHL1   H1B 2488   6.029   3.440   7.386  0.7658 -1.5766  0.5780
   34CHL1    C2 2489   5.886   3.410   7.222  0.2170 -0.3620  0.5850
   34CHL1   H2A 2490   5.875   3.518   7.199 -0.2655 -0.2878  1.1590
   34CHL1   H2B 2491   5.783   3.369   7.216 -0.0117  0.1107  1.2059
   34CHL1   C20 2492   6.127   3.049   8.071 -0.4495  0.2423 -0.0138
   34CHL1   H20 2493   6.055   2.964   8.064  2.8469 -2.6997  0.3737
   34CHL1   C21 2494   6.039   3.161   8.118  0.4261 -0.0285 -0.1757
   34CHL1  H21A 2495   6.089   3.260   8.111 -1.9017  1.4833  3.3736
   34CHL1  H21B 2496   6.025   3.150   8.227  5.4171 -1.1407  0.4464
   34CHL1  H21C 2497   5.944   3.176   8.062 -0.9666  1.7351  2.6052
   34CHL1   C22 2498   6.224   3.022   8.181  0.7295 -0.1640  0.3140
   34CHL1  H22A 2499   6.177   2.992   8.277 -0.2212  1.0091  0.2285
   34CHL1  H22B 2500   6.276   2.928   8.152  1.4373 -0.2090  1.6467
   34CHL1   C23 2501   6.320   3.140   8.211 -0.0538  0.2372  0.1766
   34CHL1  H23A 2502   6.378   3.185   8.128 -0.1010  1.2913  0.6999
   34CHL1  H23B 2503   6.278   3.225   8.270  2.0866  1.1452  0.4615
   34CHL1   C24 2504   6.418   3.097   8.324 -0.5609  0.2019  0.6871
   34CHL1  H24A 2505   6.364   3.066   8.417  1.1759  1.0418  2.0105
   34CHL1  H24B 2506   6.465   3.002   8.290 -0.9123  0.5006 -0.6336
   34CHL1   C25 2507   6.527   3.201   8.371  0.5482 -0.6579  0.0684
   34CHL1   H25 2508   6.464   3.292   8.382  0.7461 -0.5629  0.4565
   34CHL1   C26 2509   6.591   3.178   8.504  0.2087 -0.3415  0.7236
   34CHL1  H26A 2510   6.640   3.268   8.545 -0.9999  0.1579  1.1029
   34CHL1  H26B 2511   6.515   3.149   8.580  0.1700 -1.8730  0.1254
   34CHL1  H26C 2512   6.656   3.088   8.498 -1.9406 -1.8791 -0.3758
   34CHL1   C27 2513   6.630   3.221   8.252 -0.1488  0.5061  0.0404
   34CHL1  H27A 2514   6.582   3.267   8.164 -0.1693  0.5861  0.0933
   34CHL1  H27B 2515   6.720   3.274   8.291  1.7454 -2.9576  0.6123
   34CHL1  H27C 2516   6.658   3.120   8.215  0.9500  1.2062 -1.0551
   35CHL1    C3 2517   1.956   4.477   7.072  0.0930 -0.9070 -0.0327
   35CHL1    H3 2518   1.944   4.587   7.084  1.1471 -0.6469 -1.2048
   35CHL1    O3 2519   1.991   4.451   6.934 -0.4890  0.0328  0.0314
   35CHL1   H3' 2520   2.024   4.361   6.935 -1.0814 -0.1943  1.9037
   35CHL1    C4 2521   2.070   4.426   7.151 -0.0873  0.1033 -0.5592
   35CHL1   H4A 2522   2.076   4.318   7.125 -2.7459 -0.4033  0.7852
   35CHL1   H4B 2523   2.167   4.472   7.121  1.7019 -1.4513  2.6725
   35CHL1    C5 2524   2.039   4.441   7.299 -0.6607  0.2360  0.9443
   35CHL1    C6 2525   2.129   4.496   7.386 -0.3326  0.1926 -0.5975
   35CHL1    H6 2526   2.228   4.533   7.353  0.8290 -1.4225  0.9912
   35CHL1    C7 2527   2.107   4.497   7.534  0.4126  0.1023 -0.4176
   35CHL1   H7A 2528   2.195   4.476   7.597  0.2037 -0.1535 -0.2080
   35CHL1   H7B 2529   2.079   4.602   7.554  0.7147  0.1268 -0.1193
   35CHL1    C8 2530   1.981   4.421   7.574  0.2513  0.4320  0.9367
   35CHL1    H8 2531   2.012   4.314   7.577  4.0984  1.4591  2.0076
   35CHL1   C14 2532   1.941   4.460   7.713 -0.2913  0.2268  0.1363
   35CHL1   H14 2533   1.907   4.566   7.715 -1.5467 -0.1438 -0.8921
   35CHL1   C15 2534   2.046   4.470   7.821 -0.4192  0.3172  0.0680
   35CHL1  H15A 2535   2.112   4.381   7.815  1.0837  1.5672 -2.3186
   35CHL1  H15B 2536   2.107   4.562   7.807  0.5195  0.0856  2.3617
   35CHL1   C16 2537   1.975   4.461   7.954 -0.1332 -1.1924 -0.6513
   35CHL1  H16A 2538   2.004   4.359   7.988  0.8467 -0.7683 -0.1977
   35CHL1  H16B 2539   1.993   4.540   8.030 -0.6345 -0.2015 -1.5491
   35CHL1   C17 2540   1.823   4.449   7.919 -0.0856 -0.1424  0.0372
   35CHL1   H17 2541   1.776   4.549   7.908 -0.3074 -0.1388  1.0150
   35CHL1   C13 2542   1.820   4.386   7.778 -0.4049 -0.4650 -0.4286
   35CHL1   C18 2543   1.856   4.240   7.786  0.0515 -0.2218  0.0276
   35CHL1  H18A 2544   1.849   4.200   7.682  1.9682 -1.1810  0.2551
   35CHL1  H18B 2545   1.960   4.215   7.813 -0.6353 -1.5513  1.4725
   35CHL1  H18C 2546   1.795   4.173   7.850  0.4222 -0.3505  0.2443
   35CHL1   C12 2547   1.703   4.413   7.687  0.5937 -0.5978  0.4009
   35CHL1  H12A 2548   1.618   4.347   7.716 -0.1285 -0.0544 -0.4160
   35CHL1  H12B 2549   1.677   4.521   7.691  0.1885 -0.6925  0.3564
   35CHL1   C11 2550   1.730   4.387   7.538  0.3387 -0.5349 -0.0007
   35CHL1  H11A 2551   1.732   4.278   7.521 -0.8889 -0.2740 -1.9377
   35CHL1  H11B 2552   1.642   4.438   7.492 -0.8928 -0.8185  1.9715
   35CHL1    C9 2553   1.866   4.444   7.479 -0.4099 -0.1229 -0.2635
   35CHL1    H9 2554   1.844   4.553   7.474 -1.2633 -0.2612  0.3054
   35CHL1   C10 2555   1.902   4.384   7.345  0.9640  0.2788 -0.5629
   35CHL1   C19 2556   1.914   4.227   7.336 -0.0500  0.0834  0.3678
   35CHL1  H19A 2557   1.957   4.180   7.245 -0.1009 -0.4563  0.6230
   35CHL1  H19B 2558   1.972   4.188   7.423  0.2554  0.0249  0.1367
   35CHL1  H19C 2559   1.811   4.188   7.322  0.1168  0.3962 -1.8044
   35CHL1    C1 2560   1.782   4.435   7.254  0.3098  0.3557 -0.5829
   35CHL1   H1A 2561   1.690   4.376   7.273 -0.5050  1.5395 -0.7776
   35CHL1   H1B 2562   1.752   4.541   7.272 -0.2408  0.1571 -0.3131
   35CHL1    C2 2563   1.815   4.420   7.105 -0.2217  0.4962 -0.1962
   35CHL1   H2A 2564   1.736   4.479   7.054 -1.3857 -1.0978 -0.2900
   35CHL1   H2B 2565   1.811   4.314   7.070 -1.6818  0.4465  0.0746
   35CHL1   C20 2566   1.735   4.384   8.029  0.1378  0.1057  0.0113
   35CHL1   H20 2567   1.727   4.274   8.020  1.0063  0.0920 -0.7199
   35CHL1   C21 2568   1.599   4.451   8.007  0.4270  0.0242  0.0070
   35CHL1  H21A 2569   1.531   4.398   8.077 -0.4123  0.4121 -0.5077
   35CHL1  H21B 2570   1.558   4.453   7.904  0.9950  1.7693 -0.2014
   35CHL1  H21C 2571   1.601   4.552   8.053  0.5923 -0.4044  0.9584
   35CHL1   C22 2572   1.798   4.411   8.169 -0.1940 -0.0085  0.2017
   35CHL1  H22A 2573   1.894   4.355   8.174  0.7763  1.4928 -1.2196
   35CHL1  H22B 2574   1.818   4.519   8.180  0.9239 -0.1954  0.0242
   35CHL1   C23 2575   1.727   4.362   8.290 -0.2073  0.1193  0.3608
   35CHL1  H23A 2576   1.787   4.393   8.378 -1.0021 -1.7858  1.6175
   35CHL1  H23B 2577   1.631   4.417   8.306 -0.4709 -0.7511  1.8793
   35CHL1   C24 2578   1.693   4.212   8.296 -0.3189  0.3757 -0.3003
   35CHL1  H24A 2579   1.612   4.185   8.225  0.7643  1.1355 -1.8545
   35CHL1  H24B 2580   1.782   4.150   8.268 -1.7525 -2.3654  1.0094
   35CHL1   C25 2581   1.672   4.168   8.442  0.6096  0.3798 -0.0650
   35CHL1   H25 2582   1.766   4.158   8.500 -0.3762  0.1803  1.5376
   35CHL1   C26 2583   1.579   4.265   8.511 -0.4125  1.2332  0.0158
   35CHL1  H26A 2584   1.532   4.211   8.595 -2.1070 -0.2973 -1.8702
   35CHL1  H26B 2585   1.625   4.363   8.539 -1.9363  1.5130  1.6729
   35CHL1  H26C 2586   1.499   4.285   8.436  1.3969  2.8567 -1.5292
   35CHL1   C27 2587   1.618   4.024   8.446  0.2275 -0.2837  0.5272
   35CHL1  H27A 2588   1.518   4.021   8.397  0.3920 -1.7282  0.2497
   35CHL1  H27B 2589   1.606   3.986   8.550 -0.7178  2.3179  1.4192
   35CHL1  H27C 2590   1.684   3.948   8.399 -0.7839 -0.8903  0.0717
   36CHL1    C3 2591   2.601   3.384   6.965 -0.4486  0.8755  0.1397
   36CHL1    H3 2592   2.662   3.293   6.984 -0.7058  0.8284  0.7722
   36CHL1    O3 2593   2.549   3.393   6.831  0.1330  0.4639 -0.0390
   36CHL1   H3' 2594   2.499   3.475   6.825 -0.2136  0.0642 -3.2067
   36CHL1    C4 2595   2.482   3.373   7.072  0.1352 -0.4923  0.4111
   36CHL1   H4A 2596   2.417   3.461   7.054 -0.6259 -1.1209  0.0433
   36CHL1   H4B 2597   2.419   3.287   7.040  0.3293 -0.9816  1.3312
   36CHL1    C5 2598   2.536   3.365   7.212 -0.1429 -0.7200 -0.3273
   36CHL1    C6 2599   2.508   3.267   7.297 -0.4120 -0.9987  0.6314
   36CHL1    H6 2600   2.454   3.175   7.271 -2.1439  0.7306 -2.2208
   36CHL1    C7 2601   2.551   3.255   7.440  0.3107  0.3957  0.7383
   36CHL1   H7A 2602   2.461   3.242   7.504 -0.3243  1.7909  0.1354
   36CHL1   H7B 2603   2.617   3.168   7.460 -1.0668 -0.8079  0.1594
   36CHL1    C8 2604   2.618   3.385   7.491  0.2764 -0.0518 -0.2875
   36CHL1    H8 2605   2.540   3.462   7.506 -1.5391 -1.8291 -0.3609
   36CHL1   C14 2606   2.701   3.358   7.616 -0.1327 -0.5491 -0.2749
   36CHL1   H14 2607   2.777   3.278   7.600  1.6450  0.6215  2.0746
   36CHL1   C15 2608   2.629   3.307   7.740 -0.3261 -0.2527  1.0251
   36CHL1  H15A 2609   2.531   3.355   7.761  0.1259  0.6638  1.0585
   36CHL1  H15B 2610   2.619   3.197   7.727  1.4488 -0.3024 -0.1294
   36CHL1   C16 2611   2.727   3.322   7.851  0.2256  0.2527  0.3962
   36CHL1  H16A 2612   2.680   3.378   7.935 -0.8148  0.3511 -0.2560
   36CHL1  H16B 2613   2.771   3.226   7.885 -0.1180  0.2371  0.8024
   36CHL1   C17 2614   2.846   3.414   7.796  0.8831 -0.0076 -0.2897
   36CHL1   H17 2615   2.933   3.355   7.761 -0.5891 -1.6079 -1.3725
   36CHL1   C13 2616   2.779   3.478   7.670  0.1394 -0.0376  0.6068
   36CHL1   C18 2617   2.673   3.591   7.717 -0.2689 -0.3985 -0.6087
   36CHL1  H18A 2618   2.631   3.563   7.816  1.0965 -1.9577 -0.4523
   36CHL1  H18B 2619   2.724   3.688   7.738 -3.6831  1.2405  0.4743
   36CHL1  H18C 2620   2.585   3.603   7.651  0.3448  0.8580 -1.2239
   36CHL1   C12 2621   2.872   3.531   7.559  0.7326  0.9090 -0.1870
   36CHL1  H12A 2622   2.920   3.626   7.590  3.7540 -1.5457  3.0556
   36CHL1  H12B 2623   2.947   3.451   7.541  0.4811  0.3181  1.2858
   36CHL1   C11 2624   2.799   3.564   7.428 -0.8249 -0.8258  0.6801
   36CHL1  H11A 2625   2.726   3.646   7.445 -0.9824 -0.7443 -0.3563
   36CHL1  H11B 2626   2.873   3.582   7.346 -1.4386  4.1607  1.0604
   36CHL1    C9 2627   2.707   3.446   7.375  0.2390 -0.0118  0.2836
   36CHL1    H9 2628   2.774   3.367   7.336 -1.4308  0.0695 -2.9904
   36CHL1   C10 2629   2.642   3.484   7.243  0.4067 -0.0274 -0.3429
   36CHL1   C19 2630   2.550   3.605   7.256  0.1107 -0.1949  0.1000
   36CHL1  H19A 2631   2.478   3.610   7.171  1.0271  1.6064 -0.5968
   36CHL1  H19B 2632   2.502   3.591   7.355  2.9571 -0.0238  1.5687
   36CHL1  H19C 2633   2.613   3.696   7.249 -1.9690  1.1730 -1.4014
   36CHL1    C1 2634   2.744   3.511   7.128 -0.1338  0.2799  0.5824
   36CHL1   H1A 2635   2.804   3.600   7.157  4.2954 -1.5681 -2.2308
   36CHL1   H1B 2636   2.819   3.428   7.125  0.9873  1.2801  0.2534
   36CHL1    C2 2637   2.683   3.512   6.988 -0.1191 -0.1959 -0.8754
   36CHL1   H2A 2638   2.759   3.509   6.906  1.5366 -0.6229  0.6564
   36CHL1   H2B 2639   2.612   3.597   6.978  0.1369 -0.0800 -1.7507
   36CHL1   C20 2640   2.902   3.512   7.910 -0.1905 -0.3858  0.0374
   36CHL1   H20 2641   2.831   3.589   7.946 -2.2103 -2.8419  1.4604
   36CHL1   C21 2642   3.023   3.605   7.866  0.7581  0.7817 -0.3686
   36CHL1  H21A 2643   3.108   3.547   7.823  0.7423  1.6656 -1.6218
   36CHL1  H21B 2644   3.068   3.668   7.946 -2.8739  0.4256  2.0461
   36CHL1  H21C 2645   2.988   3.673   7.785  0.1694  0.0190 -0.7535
   36CHL1   C22 2646   2.961   3.435   8.030 -0.2980 -0.4028  0.0334
   36CHL1  H22A 2647   3.021   3.511   8.085 -0.2919  0.0486 -0.5855
   36CHL1  H22B 2648   2.879   3.401   8.097 -1.6816  2.9629  0.1299
   36CHL1   C23 2649   3.070   3.319   8.014 -0.5221 -0.7361 -0.6580
   36CHL1  H23A 2650   3.035   3.240   7.944 -1.0829 -1.5269  0.4906
   36CHL1  H23B 2651   3.159   3.372   7.973  0.3399 -1.3885  0.3200
   36CHL1   C24 2652   3.113   3.236   8.138  0.2856 -0.9566 -0.2736
   36CHL1  H24A 2653   3.022   3.183   8.175 -2.0500  2.4292 -0.9207
   36CHL1  H24B 2654   3.191   3.164   8.106  2.8061  1.3240  0.6463
   36CHL1   C25 2655   3.144   3.322   8.259 -0.1543  0.5061 -0.1218
   36CHL1   H25 2656   3.066   3.401   8.268 -1.6440 -0.8882 -0.4190
   36CHL1   C26 2657   3.134   3.250   8.394  0.0045 -0.1343 -0.1451
   36CHL1  H26A 2658   3.033   3.206   8.410  0.4029 -0.6857  0.8991
   36CHL1  H26B 2659   3.189   3.154   8.390  1.1153  0.2733  3.1774
   36CHL1  H26C 2660   3.167   3.309   8.483  1.5440 -0.6678 -0.3487
   36CHL1   C27 2661   3.280   3.386   8.241 -0.0913  0.6121  0.1038
   36CHL1  H27A 2662   3.298   3.433   8.142 -0.5044 -0.0709 -0.2977
   36CHL1  H27B 2663   3.299   3.465   8.317 -4.1125  2.6428 -0.8460
   36CHL1  H27C 2664   3.347   3.298   8.243  0.3270  0.9203 -0.2001
   37CHL1    C3 2665   6.020   5.583   7.034 -0.1338  0.4037  0.1726
   37CHL1    H3 2666   6.000   5.476   7.051 -1.6785  0.8423  1.2207
   37CHL1    O3 2667   6.016   5.602   6.894 -0.1759 -0.2689 -0.6952
   37CHL1   H3' 2668   5.954   5.535   6.863  0.2226 -0.6991 -0.5614
   37CHL1    C4 2669   5.905   5.665   7.095 -0.1368  0.1762 -0.5326
   37CHL1   H4A 2670   5.921   5.770   7.062  2.9810 -0.4279 -1.0483
   37CHL1   H4B 2671   5.812   5.620   7.055  1.0369 -2.1007 -0.7902
   37CHL1    C5 2672   5.920   5.644   7.247 -0.5569  0.3449 -0.0239
   37CHL1    C6 2673   5.811   5.595   7.319 -0.9673  0.4332 -0.2885
   37CHL1    H6 2674   5.713   5.579   7.272 -2.1150  2.6158  1.2686
   37CHL1    C7 2675   5.808   5.593   7.472 -0.1574 -0.3468 -0.4255
   37CHL1   H7A 2676   5.715   5.641   7.511 -1.4434 -2.8997 -0.2697
   37CHL1   H7B 2677   5.801   5.486   7.502  0.6852  0.0487  1.2552
   37CHL1    C8 2678   5.937   5.643   7.543  0.3097  0.2817  0.2987
   37CHL1    H8 2679   5.922   5.753   7.555 -0.6155  0.1618  0.2737
   37CHL1   C14 2680   5.958   5.585   7.680  0.2876  0.5541  0.3818
   37CHL1   H14 2681   5.970   5.475   7.676  1.6203  0.5971  2.2962
   37CHL1   C15 2682   5.843   5.601   7.781 -0.4579  0.6883 -0.2868
   37CHL1  H15A 2683   5.816   5.708   7.771  3.3208  1.7073 -0.3289
   37CHL1  H15B 2684   5.751   5.544   7.754  0.4638 -0.7507 -0.4497
   37CHL1   C16 2685   5.905   5.571   7.917  0.1102 -0.6020 -0.4902
   37CHL1  H16A 2686   5.898   5.646   7.999  1.7328  0.3520 -1.2231
   37CHL1  H16B 2687   5.854   5.485   7.966 -0.9601  1.4203  2.0795
   37CHL1   C17 2688   6.055   5.560   7.893  0.3455 -0.2411 -0.4310
   37CHL1   H17 2689   6.079   5.455   7.868  1.4365 -0.3793  1.1132
   37CHL1   C13 2690   6.082   5.628   7.758 -0.1703 -0.1065  0.9180
   37CHL1   C18 2691   6.093   5.776   7.774 -0.1795 -1.5017  0.0892
   37CHL1  H18A 2692   6.083   5.830   7.678 -1.1618 -1.0172  0.4504
   37CHL1  H18B 2693   6.014   5.820   7.839  0.4960 -0.7077  0.3832
   37CHL1  H18C 2694   6.196   5.805   7.801 -0.2183 -0.6945 -0.6002
   37CHL1   C12 2695   6.200   5.572   7.676 -0.0903 -0.1570 -0.5025
   37CHL1  H12A 2696   6.298   5.604   7.717 -0.0726 -1.3238  0.4156
   37CHL1  H12B 2697   6.198   5.461   7.671 -0.6919 -0.0693 -2.8473
   37CHL1   C11 2698   6.196   5.626   7.532 -0.3550  0.3552  0.3466
   37CHL1  H11A 2699   6.224   5.733   7.536  0.7487  0.1118 -0.5138
   37CHL1  H11B 2700   6.275   5.571   7.476 -0.1909  2.0946 -1.1521
   37CHL1    C9 2701   6.056   5.608   7.457  0.6905 -0.9203  0.0703
   37CHL1    H9 2702   6.045   5.499   7.439 -0.9431 -0.6765 -0.5489
   37CHL1   C10 2703   6.057   5.665   7.318  1.0623 -0.4319  0.0990
   37CHL1   C19 2704   6.084   5.821   7.321 -0.2142 -0.4085 -0.3693
   37CHL1  H19A 2705   6.007   5.867   7.387  0.4667  0.6904 -0.3421
   37CHL1  H19B 2706   6.187   5.836   7.361  0.0117 -0.5578 -0.8854
   37CHL1  H19C 2707   6.072   5.878   7.227 -2.1272  2.5977  1.6123
   37CHL1    C1 2708   6.162   5.588   7.233 -0.3664 -0.2547  0.0687
   37CHL1   H1A 2709   6.258   5.610   7.285  0.0067 -0.3140 -0.5940
   37CHL1   H1B 2710   6.141   5.479   7.236  0.0683 -0.3282  0.8534
   37CHL1    C2 2711   6.159   5.632   7.084  0.5267  0.4919 -0.1731
   37CHL1   H2A 2712   6.234   5.568   7.032 -1.3516 -2.7622  0.9674
   37CHL1   H2B 2713   6.183   5.740   7.070 -1.7632  0.9896 -0.3706
   37CHL1   C20 2714   6.141   5.600   8.020 -0.1352  0.1580  0.7500
   37CHL1   H20 2715   6.132   5.709   8.039  2.4314  0.5773 -0.1583
   37CHL1   C21 2716   6.289   5.561   7.991  0.1304  0.3522  0.2755
   37CHL1  H21A 2717   6.349   5.562   8.084  0.1024  0.9265  0.2907
   37CHL1  H21B 2718   6.327   5.641   7.922 -1.3433  1.5679  0.8359
   37CHL1  H21C 2719   6.291   5.461   7.942  0.5543  0.6530 -0.3408
   37CHL1   C22 2720   6.089   5.547   8.153 -0.2215 -0.4804 -0.7718
   37CHL1  H22A 2721   5.990   5.596   8.162 -0.0424 -0.3252  0.4691
   37CHL1  H22B 2722   6.093   5.436   8.154 -1.2857 -0.5347 -1.2232
   37CHL1   C23 2723   6.169   5.599   8.277 -0.1129  0.0673 -0.5970
   37CHL1  H23A 2724   6.128   5.552   8.369  1.6055 -0.3683 -0.0351
   37CHL1  H23B 2725   6.278   5.576   8.273 -0.3386 -1.1074 -0.1147
   37CHL1   C24 2726   6.137   5.745   8.310  0.3832  0.6707 -0.5025
   37CHL1  H24A 2727   6.178   5.808   8.228 -1.3341  0.9183 -1.1991
   37CHL1  H24B 2728   6.026   5.753   8.307  0.3045 -0.6336 -2.3290
   37CHL1   C25 2729   6.188   5.807   8.444 -0.0795 -0.3245 -0.1287
   37CHL1   H25 2730   6.136   5.766   8.533 -0.7161  2.4742  0.8624
   37CHL1   C26 2731   6.331   5.768   8.467 -0.4524 -0.5209 -0.3369
   37CHL1  H26A 2732   6.368   5.790   8.570 -1.4102 -2.1839  0.3808
   37CHL1  H26B 2733   6.339   5.659   8.445 -0.7141 -0.6852  0.3790
   37CHL1  H26C 2734   6.400   5.822   8.399 -0.0991 -0.6189 -0.0591
   37CHL1   C27 2735   6.167   5.959   8.454  0.1114  0.4759 -0.3394
   37CHL1  H27A 2736   6.169   5.998   8.558  0.5032 -0.7610  0.1308
   37CHL1  H27B 2737   6.244   6.013   8.396 -1.0366  0.2746 -2.0960
   37CHL1  H27C 2738   6.065   5.976   8.413 -0.1601  0.5195  0.3589
   38CHL1    C3 2739   2.592   6.742   6.686  0.1550 -0.3486  0.5941
   38CHL1    H3 2740   2.690   6.793   6.680 -0.5258  0.7104 -1.8644
   38CHL1    O3 2741   2.546   6.718   6.552  0.6240  0.7289  0.0060
   38CHL1   H3' 2742   2.462   6.675   6.571  0.9072 -0.2342 -0.9158
   38CHL1    C4 2743   2.610   6.606   6.753  0.0982 -0.1010  0.1586
   38CHL1   H4A 2744   2.518   6.543   6.754 -0.4058  0.5538 -2.5180
   38CHL1   H4B 2745   2.686   6.545   6.699  1.3236  1.5320 -0.0010
   38CHL1    C5 2746   2.640   6.622   6.904  0.5525 -0.3439 -0.2158
   38CHL1    C6 2747   2.739   6.551   6.960 -0.6049  0.2976 -0.0985
   38CHL1    H6 2748   2.798   6.493   6.888  1.2610  0.1297  1.5536
   38CHL1    C7 2749   2.771   6.554   7.106  0.2926  0.0584 -0.5543
   38CHL1   H7A 2750   2.803   6.462   7.160 -1.7626 -0.5607 -0.3308
   38CHL1   H7B 2751   2.854   6.627   7.117  0.0227  0.5370 -1.6525
   38CHL1    C8 2752   2.644   6.607   7.190  0.3865  0.1806 -0.3085
   38CHL1    H8 2753   2.555   6.541   7.187  0.6139 -0.2027  1.1543
   38CHL1   C14 2754   2.689   6.631   7.337 -0.1835 -0.3199  0.4186
   38CHL1   H14 2755   2.776   6.700   7.328  0.6092 -1.4465 -0.7133
   38CHL1   C15 2756   2.746   6.512   7.424 -0.0687 -0.1812 -0.3826
   38CHL1  H15A 2757   2.677   6.429   7.398 -0.2664 -0.7641  1.9674
   38CHL1  H15B 2758   2.850   6.478   7.402 -0.0504  0.6274 -1.6384
   38CHL1   C16 2759   2.734   6.563   7.568 -0.2006 -0.1464 -0.4522
   38CHL1  H16A 2760   2.677   6.488   7.628  0.3860 -1.5862 -1.6551
   38CHL1  H16B 2761   2.838   6.576   7.604 -1.0081 -0.1398  1.9621
   38CHL1   C17 2762   2.656   6.696   7.566 -0.7455 -0.2546  0.5573
   38CHL1   H17 2763   2.734   6.775   7.566  0.9221 -1.8696  0.5845
   38CHL1   C13 2764   2.589   6.712   7.422  0.0468  0.1226  0.0659
   38CHL1   C18 2765   2.450   6.644   7.435 -1.3102  0.0673 -0.0762
   38CHL1  H18A 2766   2.412   6.633   7.331  1.6183 -0.9429 -1.1075
   38CHL1  H18B 2767   2.453   6.550   7.493  3.0079 -0.7713 -1.4887
   38CHL1  H18C 2768   2.376   6.708   7.487 -1.5748 -1.5530  1.6084
   38CHL1   C12 2769   2.573   6.850   7.359 -0.6037  0.5849 -0.1483
   38CHL1  H12A 2770   2.488   6.908   7.402  0.2980  1.8432 -0.0389
   38CHL1  H12B 2771   2.671   6.903   7.364 -0.3318 -0.0360  1.2869
   38CHL1   C11 2772   2.525   6.845   7.215  0.3906 -0.2933 -0.4358
   38CHL1  H11A 2773   2.417   6.820   7.212  0.6990 -1.7332  0.2321
   38CHL1  H11B 2774   2.544   6.947   7.174 -0.3686  0.3118  0.6813
   38CHL1    C9 2775   2.608   6.744   7.125  0.0913 -0.0114  0.7313
   38CHL1    H9 2776   2.703   6.799   7.108 -0.5676  0.4502 -1.5412
   38CHL1   C10 2777   2.551   6.716   6.983 -0.3259 -0.3353  0.5436
   38CHL1   C19 2778   2.410   6.648   6.989  0.3449  0.4780 -0.3220
   38CHL1  H19A 2779   2.335   6.715   7.037  0.5833  1.5130 -1.3782
   38CHL1  H19B 2780   2.368   6.630   6.888  0.9032 -0.7092 -0.3527
   38CHL1  H19C 2781   2.420   6.548   7.038  0.8446  0.1283 -1.1297
   38CHL1    C1 2782   2.539   6.852   6.907  0.0949  0.6315  0.1351
   38CHL1   H1A 2783   2.466   6.915   6.964 -1.3979 -2.0835  1.3324
   38CHL1   H1B 2784   2.631   6.914   6.909  0.4719  0.0941 -0.4984
   38CHL1    C2 2785   2.494   6.831   6.769  0.2596  1.0642 -0.1904
   38CHL1   H2A 2786   2.481   6.927   6.715 -0.4402 -0.3986 -2.6899
   38CHL1   H2B 2787   2.390   6.792   6.764  0.7912 -0.4824  0.3229
   38CHL1   C20 2788   2.578   6.731   7.691  0.4083  0.0406  0.6513
   38CHL1   H20 2789   2.497   6.658   7.710 -0.6491  1.0691  0.1635
   38CHL1   C21 2790   2.519   6.870   7.680  0.2625 -0.8161  0.5029
   38CHL1  H21A 2791   2.465   6.900   7.773 -0.3789  1.7535 -0.6533
   38CHL1  H21B 2792   2.443   6.884   7.601  1.5164 -0.6475 -0.6849
   38CHL1  H21C 2793   2.604   6.937   7.655 -0.8062 -0.0531 -1.1365
   38CHL1   C22 2794   2.658   6.721   7.829 -0.5446  0.1527  0.0655
   38CHL1  H22A 2795   2.724   6.632   7.822 -1.7713 -0.7499 -0.0114
   38CHL1  H22B 2796   2.712   6.816   7.850  3.0943 -1.7791 -0.0638
   38CHL1   C23 2797   2.563   6.693   7.948 -0.3941  0.3245  0.5173
   38CHL1  H23A 2798   2.489   6.775   7.955 -0.5038  0.2504  0.2512
   38CHL1  H23B 2799   2.515   6.596   7.925 -0.1961  0.5010 -0.7030
   38CHL1   C24 2800   2.637   6.675   8.085  0.2770  0.4456  0.5082
   38CHL1  H24A 2801   2.665   6.775   8.124 -2.1318  1.2283  0.3473
   38CHL1  H24B 2802   2.555   6.634   8.148 -1.1844  1.7827 -0.4721
   38CHL1   C25 2803   2.751   6.576   8.083  0.4970 -0.9877 -0.2726
   38CHL1   H25 2804   2.813   6.599   7.993  1.9003 -3.6417 -0.0490
   38CHL1   C26 2805   2.833   6.583   8.205 -0.4323  0.6305  0.3754
   38CHL1  H26A 2806   2.895   6.675   8.206  2.0303 -0.8990 -2.6059
   38CHL1  H26B 2807   2.772   6.574   8.298  0.6515 -0.6662  0.9852
   38CHL1  H26C 2808   2.907   6.500   8.210  2.2764  2.9355 -0.0549
   38CHL1   C27 2809   2.705   6.430   8.079 -0.5731 -0.0556  0.2938
   38CHL1  H27A 2810   2.789   6.361   8.100  1.1535  1.7823 -0.4896
   38CHL1  H27B 2811   2.635   6.401   8.160 -0.9593  0.3948  0.1258
   38CHL1  H27C 2812   2.666   6.403   7.978  0.1729 -0.3272  0.0794
   39CHL1    C3 2813   2.067   5.741   7.000  0.7197  0.2881  0.5530
   39CHL1    H3 2814   2.005   5.649   6.991 -0.9048  1.4383 -0.2249
   39CHL1    O3 2815   2.097   5.769   6.864 -0.2992 -0.5147  0.0951
   39CHL1   H3' 2816   2.035   5.837   6.836  2.3267  2.9570  2.3418
   39CHL1    C4 2817   1.989   5.854   7.068  0.6809 -0.1493  0.0241
   39CHL1   H4A 2818   2.059   5.940   7.063  1.6180 -0.8299  1.0089
   39CHL1   H4B 2819   1.912   5.895   6.999  1.4301  1.8175  0.3394
   39CHL1    C5 2820   1.952   5.822   7.216  0.1422 -0.0922  1.5446
   39CHL1    C6 2821   1.826   5.831   7.258  0.8693 -0.5240  0.2505
   39CHL1    H6 2822   1.748   5.844   7.181  2.3913 -0.1341 -1.2641
   39CHL1    C7 2823   1.785   5.811   7.402 -0.2257  1.1822 -0.5403
   39CHL1   H7A 2824   1.705   5.884   7.428 -0.8706  0.2613  0.1271
   39CHL1   H7B 2825   1.722   5.719   7.398 -0.2731  1.2640 -1.7852
   39CHL1    C8 2826   1.897   5.792   7.500 -0.1770 -0.2987 -0.4070
   39CHL1    H8 2827   1.925   5.897   7.522 -0.1054 -0.5745  0.8399
   39CHL1   C14 2828   1.857   5.728   7.630  0.4199 -0.7630  0.4078
   39CHL1   H14 2829   1.826   5.625   7.602 -0.5209 -0.6832  1.0983
   39CHL1   C15 2830   1.734   5.787   7.711  0.0695  0.7356 -0.1279
   39CHL1  H15A 2831   1.742   5.894   7.740 -0.1935  0.7340 -0.0492
   39CHL1  H15B 2832   1.635   5.762   7.669 -0.3019  1.4608  0.3038
   39CHL1   C16 2833   1.739   5.702   7.840 -0.3787 -0.3142 -0.8062
   39CHL1  H16A 2834   1.715   5.769   7.925  2.8885 -0.2720  0.1653
   39CHL1  H16B 2835   1.676   5.611   7.832 -1.8705  0.6219 -0.0030
   39CHL1   C17 2836   1.884   5.645   7.853  0.4735  0.2931 -0.0135
   39CHL1   H17 2837   1.878   5.534   7.846 -1.5653  0.3694  0.1788
   39CHL1   C13 2838   1.966   5.701   7.734  0.3697 -0.0918  0.0010
   39CHL1   C18 2839   2.017   5.836   7.770  0.1675  0.1332  0.0815
   39CHL1  H18A 2840   2.102   5.837   7.842  0.4455 -0.4076 -0.2421
   39CHL1  H18B 2841   2.064   5.883   7.681 -1.5671  0.1904 -0.8192
   39CHL1  H18C 2842   1.937   5.903   7.808 -0.8640 -0.8357 -0.3509
   39CHL1   C12 2843   2.069   5.603   7.671  0.1601  0.1292 -0.2315
   39CHL1  H12A 2844   2.153   5.593   7.743  1.3343  1.9669 -1.3023
   39CHL1  H12B 2845   2.027   5.501   7.656 -0.4921  0.3541  0.0254
   39CHL1   C11 2846   2.112   5.655   7.532 -0.1860 -0.0826  0.2557
   39CHL1  H11A 2847   2.174   5.740   7.568  0.6333 -2.0374  3.6274
   39CHL1  H11B 2848   2.183   5.586   7.481 -0.9344 -0.8266  0.2022
   39CHL1    C9 2849   2.006   5.708   7.436  0.0427  0.2864  0.1311
   39CHL1    H9 2850   1.949   5.623   7.392  1.2608 -0.6202  0.2745
   39CHL1   C10 2851   2.063   5.770   7.312 -0.3444 -0.1146 -0.1590
   39CHL1   C19 2852   2.146   5.902   7.347 -0.0176  0.0542 -0.6137
   39CHL1  H19A 2853   2.084   5.972   7.406 -0.2385 -0.5404 -0.1332
   39CHL1  H19B 2854   2.224   5.875   7.421  0.4487  1.5927 -0.5375
   39CHL1  H19C 2855   2.201   5.956   7.266  2.6571 -0.0844  1.0446
   39CHL1    C1 2856   2.144   5.668   7.229 -0.4839 -0.0022 -0.0359
   39CHL1   H1A 2857   2.237   5.648   7.286  0.2792 -0.2939 -1.3559
   39CHL1   H1B 2858   2.100   5.566   7.228 -0.2341 -0.1046 -1.1839
   39CHL1    C2 2859   2.189   5.702   7.086 -0.6628  0.6028 -0.3472
   39CHL1   H2A 2860   2.236   5.612   7.041 -0.1581  0.2823  0.8263
   39CHL1   H2B 2861   2.258   5.788   7.080  0.0534  0.0591  0.1292
   39CHL1   C20 2862   1.927   5.661   8.003  0.0118  0.4817 -0.1409
   39CHL1   H20 2863   1.932   5.771   8.017 -3.5633  1.1705 -3.4017
   39CHL1   C21 2864   2.062   5.602   8.027 -0.2837  0.1891  0.0395
   39CHL1  H21A 2865   2.046   5.495   8.001  1.0682 -0.1307  0.4850
   39CHL1  H21B 2866   2.087   5.611   8.135 -1.4881  1.6918  0.2093
   39CHL1  H21C 2867   2.136   5.661   7.968 -0.6278  1.7789  1.1690
   39CHL1   C22 2868   1.824   5.594   8.103 -0.1399  0.5940  0.2321
   39CHL1  H22A 2869   1.716   5.601   8.079 -0.0124 -0.2654 -0.6337
   39CHL1  H22B 2870   1.845   5.484   8.099 -1.1361  0.4199 -0.3860
   39CHL1   C23 2871   1.844   5.645   8.249  0.3344  0.0950  0.0103
   39CHL1  H23A 2872   1.952   5.627   8.271  0.6129  1.6001 -0.0595
   39CHL1  H23B 2873   1.841   5.756   8.242 -2.0631  0.1043  0.7054
   39CHL1   C24 2874   1.745   5.586   8.346 -0.2722  0.2555 -0.1346
   39CHL1  H24A 2875   1.636   5.600   8.328 -0.4759 -1.7601 -0.5934
   39CHL1  H24B 2876   1.775   5.480   8.346  0.1121  0.3519 -1.1994
   39CHL1   C25 2877   1.761   5.638   8.486  0.5225 -0.0512 -1.4482
   39CHL1   H25 2878   1.722   5.741   8.500 -1.0978 -0.7956 -0.2976
   39CHL1   C26 2879   1.674   5.555   8.579 -0.0905  0.0926  0.3658
   39CHL1  H26A 2880   1.568   5.566   8.546  0.0225 -0.3295 -0.1449
   39CHL1  H26B 2881   1.705   5.449   8.576 -0.2545  0.0926 -2.3179
   39CHL1  H26C 2882   1.684   5.589   8.684  0.6481 -0.5672  0.5152
   39CHL1   C27 2883   1.911   5.625   8.533  0.1855  0.3376  0.5280
   39CHL1  H27A 2884   1.980   5.680   8.465  1.3919  1.2888  2.4696
   39CHL1  H27B 2885   1.918   5.667   8.635  0.5432  0.6461  0.3798
   39CHL1  H27C 2886   1.949   5.521   8.536  2.4272  1.1032 -0.0489
   40CHL1    C3 2887   4.855   4.683   6.918 -0.9996 -1.0353  0.6739
   40CHL1    H3 2888   4.745   4.673   6.926 -1.2550 -1.3180 -2.6774
   40CHL1    O3 2889   4.897   4.723   6.788  0.3974  0.5738  0.1215
   40CHL1   H3' 2890   4.992   4.734   6.795  0.6271 -2.0044  1.8353
   40CHL1    C4 2891   4.896   4.796   7.020  0.3016  0.2517  0.3104
   40CHL1   H4A 2892   5.005   4.810   6.999 -0.0630  0.0895 -1.8297
   40CHL1   H4B 2893   4.848   4.888   6.981  0.3946  0.1811  0.0259
   40CHL1    C5 2894   4.860   4.758   7.160 -0.1224 -0.4987  0.0631
   40CHL1    C6 2895   4.784   4.837   7.237 -0.6204  0.1117 -0.2660
   40CHL1    H6 2896   4.738   4.932   7.206 -0.8933  0.0212 -0.1350
   40CHL1    C7 2897   4.750   4.794   7.382 -0.7787 -0.8880 -0.9819
   40CHL1   H7A 2898   4.768   4.891   7.434  1.0087 -0.3857 -2.5069
   40CHL1   H7B 2899   4.643   4.768   7.396 -0.8186 -0.4387 -0.4384
   40CHL1    C8 2900   4.849   4.696   7.437  0.0574 -0.2186 -0.5731
   40CHL1    H8 2901   4.943   4.755   7.442 -0.3197  0.5234 -2.0045
   40CHL1   C14 2902   4.800   4.648   7.576 -0.0096 -0.9221  0.2736
   40CHL1   H14 2903   4.696   4.612   7.556  1.1248 -2.8090 -2.6675
   40CHL1   C15 2904   4.767   4.750   7.691 -0.5850 -1.0953 -0.2111
   40CHL1  H15A 2905   4.842   4.831   7.703  0.5537 -2.0583 -0.7309
   40CHL1  H15B 2906   4.667   4.791   7.664  0.3034  1.1486 -0.2337
   40CHL1   C16 2907   4.761   4.664   7.818 -0.6060  0.0585 -0.1911
   40CHL1  H16A 2908   4.845   4.703   7.879 -0.1708 -0.0004 -0.7408
   40CHL1  H16B 2909   4.660   4.679   7.861  0.0680  0.9360  1.0993
   40CHL1   C17 2910   4.793   4.517   7.776 -0.4154  0.2150 -0.3480
   40CHL1   H17 2911   4.697   4.462   7.767 -0.6594  0.1687  2.1279
   40CHL1   C13 2912   4.873   4.534   7.636  0.3845  0.3240  0.0418
   40CHL1   C18 2913   5.021   4.567   7.671 -0.3556 -0.2708  0.4363
   40CHL1  H18A 2914   5.086   4.487   7.712 -0.0988 -1.7879 -2.7435
   40CHL1  H18B 2915   5.072   4.609   7.582 -0.4442  0.3119  0.6637
   40CHL1  H18C 2916   5.016   4.655   7.738 -1.4549 -0.1189  0.1702
   40CHL1   C12 2917   4.870   4.413   7.539  0.0584  0.0204  0.5616
   40CHL1  H12A 2918   4.934   4.332   7.581 -1.3104 -0.0823  2.5402
   40CHL1  H12B 2919   4.768   4.371   7.529  0.1568  0.2478 -1.6827
   40CHL1   C11 2920   4.940   4.456   7.404  0.1245 -0.1953  0.2182
   40CHL1  H11A 2921   5.050   4.472   7.409  0.1483 -0.7129  1.3764
   40CHL1  H11B 2922   4.929   4.364   7.342 -0.7237 -0.1975  0.3586
   40CHL1    C9 2923   4.865   4.581   7.341  0.5680 -0.0006 -0.8007
   40CHL1    H9 2924   4.760   4.547   7.330  0.2565  1.2364 -1.7889
   40CHL1   C10 2925   4.920   4.619   7.208  1.2613 -0.3934  0.2671
   40CHL1   C19 2926   5.075   4.619   7.198  0.4430 -0.1802  0.5103
   40CHL1  H19A 2927   5.124   4.699   7.258 -0.9107  0.9587  0.1343
   40CHL1  H19B 2928   5.118   4.526   7.240  1.1744 -0.2471 -0.4006
   40CHL1  H19C 2929   5.105   4.635   7.093  1.1097  0.8366  0.8448
   40CHL1    C1 2930   4.875   4.507   7.099 -0.1677 -0.0345 -0.5830
   40CHL1   H1A 2931   4.926   4.410   7.115 -0.4348  0.1395  1.4679
   40CHL1   H1B 2932   4.765   4.494   7.106 -0.0359 -1.2980 -0.7350
   40CHL1    C2 2933   4.900   4.540   6.953  0.5598  0.4350  0.0027
   40CHL1   H2A 2934   4.856   4.473   6.877 -0.5204 -1.1234  1.9492
   40CHL1   H2B 2935   5.009   4.534   6.932  0.5288 -0.0124 -0.0267
   40CHL1   C20 2936   4.857   4.438   7.902  0.1466  0.1094  0.6049
   40CHL1   H20 2937   4.956   4.481   7.928  0.2334 -0.5687  1.3780
   40CHL1   C21 2938   4.882   4.294   7.850  0.1466 -0.2655 -0.0441
   40CHL1  H21A 2939   4.965   4.306   7.776  0.4796  1.0851  0.5232
   40CHL1  H21B 2940   4.802   4.242   7.793  2.0662 -2.6848 -0.6399
   40CHL1  H21C 2941   4.921   4.227   7.929  1.2037 -0.4163 -0.6808
   40CHL1   C22 2942   4.769   4.436   8.022  0.1635 -0.5826 -0.0952
   40CHL1  H22A 2943   4.731   4.535   8.056  0.8273 -0.4469  0.2598
   40CHL1  H22B 2944   4.676   4.384   7.990  1.3938 -2.3291 -0.8983
   40CHL1   C23 2945   4.823   4.369   8.150 -0.1897  0.6192 -0.8775
   40CHL1  H23A 2946   4.857   4.266   8.128 -0.7193  0.6788 -1.9826
   40CHL1  H23B 2947   4.912   4.431   8.175 -0.6119  1.1222 -0.6221
   40CHL1   C24 2948   4.728   4.371   8.268 -0.5777  0.0982  0.2232
   40CHL1  H24A 2949   4.694   4.471   8.302  0.8992 -0.3723  3.1774
   40CHL1  H24B 2950   4.634   4.320   8.236  1.4000 -2.1269 -2.2142
   40CHL1   C25 2951   4.788   4.306   8.393  0.1621  0.2074 -0.6524
   40CHL1   H25 2952   4.895   4.333   8.400  0.2765 -0.5107  0.5657
   40CHL1   C26 2953   4.726   4.350   8.527 -0.3487  0.1972 -0.0506
   40CHL1  H26A 2954   4.724   4.461   8.520 -1.7161  0.1521 -0.5483
   40CHL1  H26B 2955   4.629   4.299   8.547  1.0244 -2.2737  0.5686
   40CHL1  H26C 2956   4.791   4.326   8.614 -0.8891 -1.4630 -0.0693
   40CHL1   C27 2957   4.785   4.152   8.392  0.2198 -0.6173 -0.9554
   40CHL1  H27A 2958   4.837   4.111   8.482 -0.5591  1.2456  0.3873
   40CHL1  H27B 2959   4.677   4.126   8.387  0.0899 -0.4725  0.6708
   40CHL1  H27C 2960   4.826   4.106   8.300  0.2391 -3.8933  0.6014
   41CHL1    C3 2961   5.574   4.613   7.138  0.4238 -0.8087  0.5812
   41CHL1    H3 2962   5.618   4.513   7.158 -1.1472 -2.0161 -1.8113
   41CHL1    O3 2963   5.569   4.651   7.001 -0.2794  0.1714  0.1222
   41CHL1   H3' 2964   5.653   4.609   6.978 -0.0419 -1.0131  2.9844
   41CHL1    C4 2965   5.429   4.622   7.196 -0.2128 -0.0720 -0.5927
   41CHL1   H4A 2966   5.391   4.724   7.176 -0.3106  0.0862  0.3702
   41CHL1   H4B 2967   5.364   4.555   7.136 -1.8217 -0.9595  2.0140
   41CHL1    C5 2968   5.438   4.581   7.348  0.0932 -0.5106  0.5892
   41CHL1    C6 2969   5.364   4.482   7.398 -0.2887 -0.3237  0.4026
   41CHL1    H6 2970   5.298   4.425   7.331 -1.0693  1.3617 -0.2792
   41CHL1    C7 2971   5.369   4.436   7.539  0.4887  0.0402 -0.1734
   41CHL1   H7A 2972   5.270   4.406   7.579  0.1071  0.7923 -0.5442
   41CHL1   H7B 2973   5.436   4.348   7.545  1.1768  0.6342  1.0274
   41CHL1    C8 2974   5.426   4.551   7.631  0.3317 -0.0869  1.0579
   41CHL1    H8 2975   5.348   4.629   7.636  0.8410  0.6288 -1.4529
   41CHL1   C14 2976   5.461   4.489   7.774  0.1547  0.3611  0.0826
   41CHL1   H14 2977   5.534   4.408   7.755 -0.0735  0.1744  0.0038
   41CHL1   C15 2978   5.352   4.423   7.860 -0.1160 -0.1866  0.0841
   41CHL1  H15A 2979   5.262   4.480   7.831  0.2117  0.0916 -0.3781
   41CHL1  H15B 2980   5.342   4.318   7.824  0.0235  0.7406 -2.7616
   41CHL1   C16 2981   5.394   4.431   8.004  0.2438  0.4930  0.0984
   41CHL1  H16A 2982   5.321   4.496   8.056 -1.6268 -1.4659  0.0364
   41CHL1  H16B 2983   5.401   4.333   8.056 -0.3919  0.9499  1.0634
   41CHL1   C17 2984   5.528   4.512   8.006  0.6282 -0.1306  0.0673
   41CHL1   H17 2985   5.601   4.431   7.987  1.2954  0.6473 -0.6855
   41CHL1   C13 2986   5.523   4.594   7.873  0.1673  0.2112 -0.4665
   41CHL1   C18 2987   5.428   4.714   7.900 -0.0753 -1.4273 -0.2012
   41CHL1  H18A 2988   5.420   4.767   7.802  0.0475 -0.7707  0.1468
   41CHL1  H18B 2989   5.328   4.690   7.941 -0.5624  2.8834  1.3737
   41CHL1  H18C 2990   5.470   4.789   7.970  1.7143 -0.7357 -1.9442
   41CHL1   C12 2991   5.659   4.631   7.804 -0.5987 -0.2600  0.5633
   41CHL1  H12A 2992   5.707   4.712   7.865  1.4239  0.6757 -2.1593
   41CHL1  H12B 2993   5.724   4.542   7.790  1.3624  1.4647 -1.8622
   41CHL1   C11 2994   5.638   4.688   7.664  0.3845 -0.2097  0.5200
   41CHL1  H11A 2995   5.583   4.783   7.683 -0.3552 -0.4717 -0.2681
   41CHL1  H11B 2996   5.739   4.708   7.621  1.2836 -2.5470  1.4463
   41CHL1    C9 2997   5.556   4.599   7.571  0.1457 -0.6054 -0.7862
   41CHL1    H9 2998   5.623   4.514   7.547 -0.5002 -0.9386 -1.4407
   41CHL1   C10 2999   5.534   4.665   7.434  0.3180  0.3431 -0.2314
   41CHL1   C19 3000   5.485   4.811   7.446 -0.1344 -0.3602 -0.5882
   41CHL1  H19A 3001   5.550   4.880   7.505 -1.6961  0.0280  0.7223
   41CHL1  H19B 3002   5.477   4.852   7.343 -2.7479  1.0921  0.1270
   41CHL1  H19C 3003   5.386   4.812   7.496  0.7446  0.0678  1.1712
   41CHL1    C1 3004   5.671   4.678   7.363 -0.6467  0.5009  0.4914
   41CHL1   H1A 3005   5.726   4.764   7.406  0.9771 -0.5643  0.5748
   41CHL1   H1B 3006   5.726   4.585   7.387 -1.7129 -0.2108  0.2111
   41CHL1    C2 3007   5.668   4.705   7.213 -0.1947  0.5448 -0.3475
   41CHL1   H2A 3008   5.772   4.694   7.175 -1.1299 -0.0442 -2.8147
   41CHL1   H2B 3009   5.631   4.808   7.193  1.5485  1.1797 -0.3403
   41CHL1   C20 3010   5.555   4.587   8.144  0.2163  0.3581  0.5933
   41CHL1   H20 3011   5.465   4.649   8.165 -0.8504 -1.3800  1.2366
   41CHL1   C21 3012   5.686   4.665   8.147 -0.4963  0.0596 -0.3992
   41CHL1  H21A 3013   5.767   4.592   8.126  0.4109 -0.0029  2.9987
   41CHL1  H21B 3014   5.704   4.716   8.244  3.0802 -0.4658 -0.7144
   41CHL1  H21C 3015   5.685   4.748   8.074  0.2250 -0.1508 -0.6507
   41CHL1   C22 3016   5.571   4.479   8.252 -0.3238  0.5231  0.6707
   41CHL1  H22A 3017   5.468   4.438   8.265 -0.7279  0.9125 -1.1355
   41CHL1  H22B 3018   5.645   4.402   8.221 -0.6503  0.1671  0.7624
   41CHL1   C23 3019   5.601   4.534   8.399 -0.3597  0.3197 -0.5186
   41CHL1  H23A 3020   5.705   4.571   8.391 -0.2051  0.3386  1.3592
   41CHL1  H23B 3021   5.534   4.621   8.421  0.2768  0.5089  0.7464
   41CHL1   C24 3022   5.577   4.426   8.505  0.2272 -0.1757 -0.4223
   41CHL1  H24A 3023   5.467   4.413   8.502  0.2610 -1.9604  3.0058
   41CHL1  H24B 3024   5.632   4.330   8.493  0.7672  0.1058 -0.2250
   41CHL1   C25 3025   5.625   4.473   8.654 -0.2763 -0.8222 -0.3111
   41CHL1   H25 3026   5.734   4.492   8.641 -0.3915 -1.7067 -2.9344
   41CHL1   C26 3027   5.554   4.606   8.694 -0.1485  0.8779 -0.1770
   41CHL1  H26A 3028   5.446   4.587   8.710 -0.0706  0.0388 -0.6581
   41CHL1  H26B 3029   5.605   4.640   8.786  1.6128 -1.9039 -0.0785
   41CHL1  H26C 3030   5.554   4.683   8.614 -1.6968 -0.2811 -1.3248
   41CHL1   C27 3031   5.625   4.372   8.762 -0.5945 -0.3829 -0.1552
   41CHL1  H27A 3032   5.659   4.273   8.725 -0.5050  0.2163 -1.7024
   41CHL1  H27B 3033   5.696   4.399   8.843  1.2034  1.3968 -2.2561
   41CHL1  H27C 3034   5.524   4.373   8.807 -0.0156 -0.2268  1.1491
   42CHL1    C3 3035   0.379   1.935   7.070  0.6427  0.1088  0.0375
   42CHL1    H3 3036   0.293   1.885   7.119  1.7899 -0.4815  1.4874
   42CHL1    O3 3037   0.384   1.896   6.932 -0.1449  0.5156  0.5424
   42CHL1   H3' 3038   0.423   1.971   6.885 -2.0309 -0.5923 -3.0065
   42CHL1    C4 3039   0.379   2.087   7.086 -1.0088  0.3685  0.5173
   42CHL1   H4A 3040   0.467   2.129   7.033 -0.3910 -2.4272 -0.7815
   42CHL1   H4B 3041   0.297   2.137   7.031  1.5781  1.2276 -2.6806
   42CHL1    C5 3042   0.389   2.122   7.237  0.3616  0.3088 -0.3518
   42CHL1    C6 3043   0.293   2.201   7.286  0.0992  0.0403  0.5575
   42CHL1    H6 3044   0.214   2.243   7.221  0.9762  2.4223  0.9637
   42CHL1    C7 3045   0.290   2.236   7.432 -1.0848  0.4886  0.1719
   42CHL1   H7A 3046   0.260   2.343   7.441 -2.2477  0.3371 -1.6681
   42CHL1   H7B 3047   0.223   2.167   7.486 -2.0297 -1.4181 -3.3536
   42CHL1    C8 3048   0.431   2.215   7.511 -0.2008  0.1088  0.4530
   42CHL1    H8 3049   0.500   2.296   7.476 -1.0788  0.8097  0.3374
   42CHL1   C14 3050   0.408   2.223   7.659 -0.4621  0.4517  0.3267
   42CHL1   H14 3051   0.330   2.146   7.677  0.7256 -0.5753  1.0902
   42CHL1   C15 3052   0.341   2.355   7.721  0.7414  0.3793 -0.6341
   42CHL1  H15A 3053   0.384   2.441   7.667  2.7494  0.0474  0.3903
   42CHL1  H15B 3054   0.233   2.341   7.698  0.7676  0.9937 -1.1316
   42CHL1   C16 3055   0.384   2.356   7.866  0.0169  0.0980  0.9739
   42CHL1  H16A 3056   0.442   2.450   7.885  3.2932 -1.7931  0.7524
   42CHL1  H16B 3057   0.303   2.348   7.941 -0.7539 -0.6713  0.0681
   42CHL1   C17 3058   0.473   2.226   7.881 -0.0377 -0.3523 -0.3905
   42CHL1   H17 3059   0.398   2.149   7.909  0.1454 -0.6795 -0.8138
   42CHL1   C13 3060   0.531   2.196   7.741  0.1267 -0.7169  0.1794
   42CHL1   C18 3061   0.642   2.297   7.711  0.0752  0.7966 -0.2437
   42CHL1  H18A 3062   0.733   2.290   7.774 -0.0897 -1.1156 -0.2110
   42CHL1  H18B 3063   0.668   2.291   7.603 -1.2278  1.6396 -0.6325
   42CHL1  H18C 3064   0.608   2.402   7.727  0.2421  0.5984  1.3988
   42CHL1   C12 3065   0.575   2.052   7.707 -0.3116  0.2024 -0.5491
   42CHL1  H12A 3066   0.673   2.058   7.760 -0.2068 -1.0370 -0.5810
   42CHL1  H12B 3067   0.507   1.973   7.746  0.8865  0.3830  2.0104
   42CHL1   C11 3068   0.598   2.028   7.558 -0.5276 -0.2332 -0.5025
   42CHL1  H11A 3069   0.687   2.086   7.525 -0.9713 -0.2197 -1.6947
   42CHL1  H11B 3070   0.618   1.921   7.539  0.7781  0.1522 -1.3525
   42CHL1    C9 3071   0.482   2.074   7.474 -0.3607 -0.5256 -0.0003
   42CHL1    H9 3072   0.401   2.002   7.495  0.4893 -1.1357  1.2597
   42CHL1   C10 3073   0.502   2.052   7.321 -0.3864 -0.0659  1.0600
   42CHL1   C19 3074   0.635   2.109   7.275  0.3921  0.4385  0.0238
   42CHL1  H19A 3075   0.655   2.124   7.167 -1.6172  0.5996 -0.3417
   42CHL1  H19B 3076   0.637   2.212   7.316 -0.0066  0.1449  0.7749
   42CHL1  H19C 3077   0.720   2.061   7.328  0.6537  2.1651  1.2070
   42CHL1    C1 3078   0.509   1.899   7.287 -0.0613 -0.1297 -0.9064
   42CHL1   H1A 3079   0.606   1.856   7.320 -0.6520  0.4656  1.7832
   42CHL1   H1B 3080   0.425   1.855   7.345  1.3156 -0.6248  0.7622
   42CHL1    C2 3081   0.506   1.871   7.134 -0.5758  0.0350  0.5392
   42CHL1   H2A 3082   0.514   1.762   7.119 -0.9964  0.2558 -1.4238
   42CHL1   H2B 3083   0.596   1.904   7.078  0.6349 -2.2090  1.0927
   42CHL1   C20 3084   0.571   2.233   8.007  0.3113  0.2988  0.7737
   42CHL1   H20 3085   0.658   2.295   7.978  1.9032 -2.7047 -1.0189
   42CHL1   C21 3086   0.615   2.090   8.045  0.2784  0.4266 -0.6190
   42CHL1  H21A 3087   0.683   2.055   7.965 -0.8384  0.2869 -1.5322
   42CHL1  H21B 3088   0.523   2.027   8.047 -0.8083  1.9697 -1.1231
   42CHL1  H21C 3089   0.678   2.096   8.136 -0.7597 -2.5768  0.3762
   42CHL1   C22 3090   0.503   2.305   8.125 -0.7241 -0.1036 -0.1303
   42CHL1  H22A 3091   0.468   2.406   8.092  2.8013  1.1661 -0.1724
   42CHL1  H22B 3092   0.407   2.252   8.143 -0.7775 -0.3099 -1.0059
   42CHL1   C23 3093   0.596   2.331   8.244  0.4777  0.1344 -0.1983
   42CHL1  H23A 3094   0.629   2.243   8.304  0.3985  1.9263  2.5519
   42CHL1  H23B 3095   0.685   2.386   8.206  0.9504  0.4323  1.3155
   42CHL1   C24 3096   0.520   2.430   8.343  0.7336 -0.1379  0.5095
   42CHL1  H24A 3097   0.498   2.526   8.293 -1.1932 -0.9703 -0.2787
   42CHL1  H24B 3098   0.419   2.389   8.362  0.7415  0.8367  2.7738
   42CHL1   C25 3099   0.593   2.457   8.472  0.7336 -0.4921 -0.5267
   42CHL1   H25 3100   0.699   2.483   8.453  1.1397 -1.0468  0.9263
   42CHL1   C26 3101   0.532   2.583   8.537  0.7951  0.4334  0.3545
   42CHL1  H26A 3102   0.428   2.556   8.565  0.6284 -1.6266 -2.0833
   42CHL1  H26B 3103   0.589   2.607   8.629  0.4934  0.6773  0.4790
   42CHL1  H26C 3104   0.535   2.671   8.469  0.9802 -0.8072 -1.2814
   42CHL1   C27 3105   0.586   2.335   8.570  0.2354 -0.2162  0.0739
   42CHL1  H27A 3106   0.646   2.347   8.663  2.0307  2.3479 -1.3520
   42CHL1  H27B 3107   0.620   2.246   8.512  0.7108  0.0891 -0.1161
   42CHL1  H27C 3108   0.484   2.316   8.608 -0.1784 -0.0749 -0.9495
   43CHL1    C3 3109   6.696   5.472   6.866  0.4415 -0.4833  0.5708
   43CHL1    H3 3110   6.793   5.524   6.883 -0.1158  1.1205 -0.9536
   43CHL1    O3 3111   6.683   5.451   6.727 -0.8188  0.0632 -0.0554
   43CHL1   H3' 3112   6.602   5.401   6.713 -0.0626 -0.5467 -2.3517
   43CHL1    C4 3113   6.693   5.339   6.933 -0.0786  0.2067  0.3451
   43CHL1   H4A 3114   6.592   5.296   6.919  0.4021 -0.5257 -0.9667
   43CHL1   H4B 3115   6.762   5.267   6.883  0.1804  1.7734 -1.6456
   43CHL1    C5 3116   6.723   5.358   7.080 -0.4975 -0.2930  0.2340
   43CHL1    C6 3117   6.825   5.299   7.139 -0.2232 -0.2838 -0.4665
   43CHL1    H6 3118   6.885   5.229   7.081 -1.1363 -0.0417 -1.7279
   43CHL1    C7 3119   6.855   5.304   7.288  0.4448  0.3856  0.2649
   43CHL1   H7A 3120   6.875   5.203   7.328 -1.3167 -0.4267 -0.8173
   43CHL1   H7B 3121   6.948   5.364   7.295  1.2883 -0.7724 -0.9120
   43CHL1    C8 3122   6.744   5.371   7.376 -0.9055  0.6852 -0.0695
   43CHL1    H8 3123   6.661   5.299   7.393  0.5854 -0.8007  1.0114
   43CHL1   C14 3124   6.792   5.406   7.516 -0.0357 -0.3390  0.1224
   43CHL1   H14 3125   6.873   5.478   7.488  0.0186 -1.2443 -2.1546
   43CHL1   C15 3126   6.854   5.298   7.606  0.1351 -0.2780  0.1643
   43CHL1  H15A 3127   6.792   5.206   7.603  0.5662 -0.6136  1.1305
   43CHL1  H15B 3128   6.959   5.277   7.573  0.2465 -0.6874  0.7685
   43CHL1   C16 3129   6.846   5.351   7.751  0.0707 -0.2161 -0.1924
   43CHL1  H16A 3130   6.790   5.288   7.823  0.6698 -0.7229 -0.1598
   43CHL1  H16B 3131   6.945   5.383   7.791 -0.5345  0.0696  1.0899
   43CHL1   C17 3132   6.769   5.492   7.747  0.0557  0.2635 -0.1896
   43CHL1   H17 3133   6.843   5.573   7.732  0.0124  0.9243  2.9196
   43CHL1   C13 3134   6.691   5.484   7.613 -0.7574 -0.4970 -0.2361
   43CHL1   C18 3135   6.564   5.400   7.631 -0.2212  0.7069 -0.5942
   43CHL1  H18A 3136   6.525   5.339   7.547 -0.0773  0.7859 -0.7182
   43CHL1  H18B 3137   6.585   5.320   7.706 -0.0816  0.5411 -0.8125
   43CHL1  H18C 3138   6.476   5.458   7.668 -0.8824  0.1269 -1.2313
   43CHL1   C12 3139   6.651   5.612   7.535 -0.6665 -0.1535 -0.1887
   43CHL1  H12A 3140   6.572   5.673   7.584 -1.1365 -0.9252  0.0289
   43CHL1  H12B 3141   6.743   5.673   7.521  0.9778 -2.2622  1.0796
   43CHL1   C11 3142   6.598   5.581   7.395  0.1058 -0.1021 -0.6785
   43CHL1  H11A 3143   6.498   5.535   7.409  0.1929  0.3484  1.7385
   43CHL1  H11B 3144   6.583   5.681   7.349  1.7004 -0.7873 -2.7717
   43CHL1    C9 3145   6.691   5.492   7.300 -0.3108  0.1665  0.0290
   43CHL1    H9 3146   6.778   5.555   7.274 -1.0132  1.2154  0.1878
   43CHL1   C10 3147   6.633   5.457   7.157 -0.4946 -0.3805 -0.1567
   43CHL1   C19 3148   6.503   5.388   7.173  0.1899  0.0983  0.3105
   43CHL1  H19A 3149   6.441   5.453   7.238  0.3728 -0.0772  0.6683
   43CHL1  H19B 3150   6.462   5.382   7.070  1.0912  1.9686 -0.1789
   43CHL1  H19C 3151   6.518   5.287   7.217 -2.7939 -0.1153  0.9411
   43CHL1    C1 3152   6.613   5.582   7.077 -0.1262  0.9795  0.2234
   43CHL1   H1A 3153   6.525   5.637   7.118  0.3779  2.6196 -0.8411
   43CHL1   H1B 3154   6.702   5.647   7.088  0.9531 -0.3151 -0.6044
   43CHL1    C2 3155   6.597   5.573   6.915  0.4300 -0.1945 -0.3799
   43CHL1   H2A 3156   6.612   5.677   6.880  1.9818 -0.4200 -0.4451
   43CHL1   H2B 3157   6.491   5.545   6.900 -0.2988  0.6415  2.8019
   43CHL1   C20 3158   6.692   5.521   7.871 -0.2163 -0.3743  0.2488
   43CHL1   H20 3159   6.624   5.436   7.894 -1.2478  0.9203  2.0873
   43CHL1   C21 3160   6.614   5.651   7.860  0.7257 -0.4998 -0.2070
   43CHL1  H21A 3161   6.686   5.734   7.843 -0.8742  1.2609  1.3130
   43CHL1  H21B 3162   6.552   5.665   7.951  0.2346 -1.5474 -0.3707
   43CHL1  H21C 3163   6.531   5.641   7.787 -1.6347  2.2558  1.9576
   43CHL1   C22 3164   6.774   5.518   8.001 -0.3081 -0.3761 -0.0536
   43CHL1  H22A 3165   6.846   5.434   7.992  0.8514  0.8699 -2.8071
   43CHL1  H22B 3166   6.830   5.614   8.009 -1.2758  0.2968 -1.3715
   43CHL1   C23 3167   6.704   5.507   8.138  0.2831 -0.3473  0.6051
   43CHL1  H23A 3168   6.634   5.592   8.154 -1.3972 -1.1329 -2.3122
   43CHL1  H23B 3169   6.639   5.418   8.150 -0.7462  0.2608 -0.3712
   43CHL1   C24 3170   6.802   5.506   8.256 -0.3507  0.2244 -1.0281
   43CHL1  H24A 3171   6.885   5.434   8.241  1.1870  1.3905  1.5268
   43CHL1  H24B 3172   6.853   5.604   8.261 -0.3757  0.3664 -3.0283
   43CHL1   C25 3173   6.740   5.476   8.393  0.2951  0.6199  0.2016
   43CHL1   H25 3174   6.695   5.375   8.381 -0.4563  1.2090 -2.1832
   43CHL1   C26 3175   6.846   5.467   8.506  0.4665 -0.0427  0.4866
   43CHL1  H26A 3176   6.864   5.359   8.528  2.3134  0.0447 -0.4990
   43CHL1  H26B 3177   6.936   5.526   8.480  0.0536 -0.0289 -0.9443
   43CHL1  H26C 3178   6.801   5.512   8.597 -1.8051  0.1682 -0.6884
   43CHL1   C27 3179   6.623   5.576   8.430 -0.6527  0.4014  0.3597
   43CHL1  H27A 3180   6.662   5.679   8.417 -2.2509  0.8773 -0.7800
   43CHL1  H27B 3181   6.528   5.561   8.374 -2.6177  1.4728  3.2588
   43CHL1  H27C 3182   6.613   5.567   8.540 -1.7691  0.7172  0.2897
   44CHL1    C3 3183   0.238   4.329   6.544 -0.2938  0.0774 -0.0711
   44CHL1    H3 3184   0.303   4.242   6.566 -1.4857 -1.3527 -2.0540
   44CHL1    O3 3185   0.212   4.334   6.401  0.0345  0.2276  0.8279
   44CHL1   H3' 3186   0.125   4.295   6.387 -1.0347  2.8389 -0.0796
   44CHL1    C4 3187   0.105   4.304   6.628 -0.3318  0.0218 -0.1868
   44CHL1   H4A 3188   0.036   4.382   6.589  1.0953  0.7815 -1.2203
   44CHL1   H4B 3189   0.053   4.209   6.601  0.0202 -0.0333 -0.6635
   44CHL1    C5 3190   0.129   4.315   6.773 -0.2228  0.3406 -0.7804
   44CHL1    C6 3191   0.101   4.213   6.851  0.0766 -0.6171  1.1691
   44CHL1    H6 3192   0.047   4.133   6.797 -0.7710  0.3486  0.5785
   44CHL1    C7 3193   0.109   4.205   6.992  0.5118 -0.0295 -0.9150
   44CHL1   H7A 3194   0.012   4.166   7.030 -0.8860  2.1168 -2.1708
   44CHL1   H7B 3195   0.184   4.126   7.016  1.2970  0.6093 -1.2270
   44CHL1    C8 3196   0.149   4.342   7.058  0.0399 -0.4303 -0.3365
   44CHL1    H8 3197   0.056   4.401   7.043 -0.4345 -1.2745 -0.8170
   44CHL1   C14 3198   0.196   4.323   7.198 -0.5427  0.0772 -0.2760
   44CHL1   H14 3199   0.288   4.261   7.199 -0.3906  0.3168  1.1184
   44CHL1   C15 3200   0.091   4.247   7.296  0.1131 -0.2019 -0.2077
   44CHL1  H15A 3201  -0.008   4.295   7.281 -0.0511 -0.3004  0.5380
   44CHL1  H15B 3202   0.088   4.137   7.286  1.4767 -0.5049  2.2476
   44CHL1   C16 3203   0.147   4.284   7.437 -0.1236  0.4612 -0.7154
   44CHL1  H16A 3204   0.068   4.326   7.502 -0.0315 -2.5288  1.4768
   44CHL1  H16B 3205   0.199   4.199   7.487 -0.9724  0.5034  0.2481
   44CHL1   C17 3206   0.272   4.388   7.416  0.1298  0.9046  0.4971
   44CHL1   H17 3207   0.357   4.317   7.406 -0.6430 -0.0227  0.4402
   44CHL1   C13 3208   0.239   4.450   7.276  0.1981 -0.3223 -0.9506
   44CHL1   C18 3209   0.121   4.544   7.300  0.1223  0.7956 -0.3043
   44CHL1  H18A 3210   0.163   4.630   7.358 -0.2847  0.2196  0.8689
   44CHL1  H18B 3211   0.085   4.582   7.202 -0.0868  1.3095 -0.0309
   44CHL1  H18C 3212   0.043   4.494   7.361 -1.1881  0.8285 -1.9375
   44CHL1   C12 3213   0.360   4.508   7.192 -0.2728  0.4319 -0.1134
   44CHL1  H12A 3214   0.411   4.599   7.229  1.0803 -0.9651  1.5073
   44CHL1  H12B 3215   0.439   4.431   7.186 -0.5646  0.0701  0.7065
   44CHL1   C11 3216   0.305   4.545   7.047  0.2335 -0.1176  0.1371
   44CHL1  H11A 3217   0.232   4.628   7.057  1.0939  0.6599  0.0976
   44CHL1  H11B 3218   0.389   4.584   6.986  1.6480 -2.6621  0.4020
   44CHL1    C9 3219   0.253   4.422   6.977 -0.0618 -0.1508  0.8037
   44CHL1    H9 3220   0.342   4.356   6.974 -0.3550 -0.5087 -0.1846
   44CHL1   C10 3221   0.212   4.442   6.826  0.8456 -0.1644  0.2314
   44CHL1   C19 3222   0.130   4.570   6.817  0.7533 -0.0645 -0.2832
   44CHL1  H19A 3223   0.075   4.562   6.721 -1.1517 -1.2248  0.8847
   44CHL1  H19B 3224   0.057   4.581   6.900 -0.3439  2.8654 -1.5513
   44CHL1  H19C 3225   0.197   4.659   6.820 -2.1626  2.2143 -0.7872
   44CHL1    C1 3226   0.340   4.454   6.736 -0.5595 -0.1056 -0.1656
   44CHL1   H1A 3227   0.380   4.551   6.773 -1.4844  0.3963 -0.4628
   44CHL1   H1B 3228   0.421   4.380   6.756  1.0198  1.7125  0.3276
   44CHL1    C2 3229   0.313   4.455   6.586  0.5507 -0.2320  0.2823
   44CHL1   H2A 3230   0.405   4.466   6.526 -1.4545 -0.1157 -2.8920
   44CHL1   H2B 3231   0.254   4.545   6.556  1.5912  0.0672 -0.9009
   44CHL1   C20 3232   0.295   4.466   7.540  0.0329  0.8675 -0.5703
   44CHL1   H20 3233   0.225   4.552   7.551  0.4724  0.9151  2.2524
   44CHL1   C21 3234   0.428   4.544   7.527 -0.3246 -0.7959  0.4594
   44CHL1  H21A 3235   0.508   4.467   7.537  0.5710  0.3841  2.8363
   44CHL1  H21B 3236   0.439   4.615   7.611 -3.0065  0.4430 -0.1912
   44CHL1  H21C 3237   0.439   4.610   7.439  0.9838  2.2664  2.8094
   44CHL1   C22 3238   0.293   4.383   7.666  0.3051 -0.2169  0.5272
   44CHL1  H22A 3239   0.195   4.333   7.678 -0.1990  0.7263  0.4498
   44CHL1  H22B 3240   0.376   4.310   7.668 -1.3875 -2.1480  3.0382
   44CHL1   C23 3241   0.314   4.462   7.792  0.4252  0.2819 -0.4155
   44CHL1  H23A 3242   0.412   4.514   7.796  0.0669  0.8318  1.8554
   44CHL1  H23B 3243   0.256   4.556   7.783 -1.2134 -0.5702  1.0311
   44CHL1   C24 3244   0.285   4.388   7.913 -0.0031  0.0842 -0.2547
   44CHL1  H24A 3245   0.180   4.353   7.900  0.8691 -1.9834 -1.8933
   44CHL1  H24B 3246   0.345   4.297   7.931 -0.0495 -0.2995 -2.0262
   44CHL1   C25 3247   0.282   4.485   8.040  0.7452 -0.0151 -0.0510
   44CHL1   H25 3248   0.210   4.564   8.009  0.8937  0.1609  0.0454
   44CHL1   C26 3249   0.230   4.412   8.163 -0.1688 -0.0612  0.2657
   44CHL1  H26A 3250   0.120   4.401   8.154 -0.4174  0.4812  2.4672
   44CHL1  H26B 3251   0.271   4.309   8.163  1.4743  0.5716 -0.4032
   44CHL1  H26C 3252   0.252   4.465   8.258 -0.5441  0.0156  0.3129
   44CHL1   C27 3253   0.415   4.565   8.069  0.4527  0.8014 -0.6810
   44CHL1  H27A 3254   0.440   4.629   7.981  1.6880 -0.8385 -1.5578
   44CHL1  H27B 3255   0.411   4.630   8.159  1.0068 -0.0993 -0.0037
   44CHL1  H27C 3256   0.486   4.482   8.092 -1.0208 -0.5005 -0.7893
   45CHL1    C3 3257   0.952   2.252   6.783  0.0306 -0.1743 -0.1155
   45CHL1    H3 3258   0.913   2.354   6.765  0.0937 -0.3027 -0.9864
   45CHL1    O3 3259   0.926   2.180   6.666  0.7250 -0.8708 -0.2352
   45CHL1   H3' 3260   1.011   2.178   6.620  0.1822 -0.5908 -1.2483
   45CHL1    C4 3261   1.102   2.247   6.811  0.1616 -0.9880  0.3331
   45CHL1   H4A 3262   1.145   2.145   6.817 -1.0559 -1.4570  1.5801
   45CHL1   H4B 3263   1.145   2.308   6.729 -3.9153  0.6635 -0.7275
   45CHL1    C5 3264   1.126   2.324   6.943 -0.6576 -0.3941 -0.1231
   45CHL1    C6 3265   1.211   2.434   6.950 -0.2621  0.3601  0.2221
   45CHL1    H6 3266   1.280   2.464   6.870 -0.1651 -0.2319  0.0824
   45CHL1    C7 3267   1.243   2.502   7.077  0.5358  0.0149  0.4512
   45CHL1   H7A 3268   1.349   2.533   7.083  0.3258  1.1791 -1.6507
   45CHL1   H7B 3269   1.186   2.597   7.073  1.5987  0.5701 -1.9967
   45CHL1    C8 3270   1.192   2.431   7.205  0.1829  0.4881 -1.1931
   45CHL1    H8 3271   1.269   2.354   7.228  0.5946  1.2129 -0.1516
   45CHL1   C14 3272   1.190   2.520   7.330 -0.5496  0.0657  0.1531
   45CHL1   H14 3273   1.107   2.594   7.319 -0.7958 -0.1087  0.8403
   45CHL1   C15 3274   1.303   2.621   7.353 -0.0814  0.2335  1.2455
   45CHL1  H15A 3275   1.395   2.569   7.318 -1.1123  1.5148 -3.8568
   45CHL1  H15B 3276   1.280   2.716   7.300  0.5222 -1.2751 -1.8319
   45CHL1   C16 3277   1.303   2.643   7.500  0.4159  0.8801 -0.0428
   45CHL1  H16A 3278   1.397   2.600   7.539  0.3001  0.1152 -0.5972
   45CHL1  H16B 3279   1.297   2.751   7.525 -1.5827  1.0744 -1.2185
   45CHL1   C17 3280   1.173   2.568   7.557 -0.3021 -0.1114 -0.6421
   45CHL1   H17 3281   1.087   2.635   7.535 -1.3323 -0.8437  1.0865
   45CHL1   C13 3282   1.164   2.453   7.465  0.3710  0.8109  0.2268
   45CHL1   C18 3283   1.274   2.345   7.497  0.0327 -0.8032 -0.0654
   45CHL1  H18A 3284   1.374   2.390   7.482  0.7595 -3.0542 -2.2414
   45CHL1  H18B 3285   1.268   2.298   7.598  0.9567  1.3114  1.0163
   45CHL1  H18C 3286   1.267   2.270   7.416 -0.7217 -0.6824 -0.1140
   45CHL1   C12 3287   1.017   2.392   7.449 -0.1516  0.5034  0.0754
   45CHL1  H12A 3288   0.986   2.332   7.537 -0.3992 -0.9317 -0.9759
   45CHL1  H12B 3289   0.942   2.474   7.448  2.8768  3.4028 -0.3075
   45CHL1   C11 3290   1.003   2.303   7.322  0.2831  0.2799  0.5808
   45CHL1  H11A 3291   1.059   2.211   7.349  0.1719  0.3822  1.1719
   45CHL1  H11B 3292   0.896   2.273   7.320  0.5616 -1.0274  3.0751
   45CHL1    C9 3293   1.058   2.368   7.187  0.1053 -0.5446 -0.0200
   45CHL1    H9 3294   0.984   2.449   7.170 -2.2532 -2.1634  1.9855
   45CHL1   C10 3295   1.049   2.274   7.066 -0.1448 -0.0497  0.5124
   45CHL1   C19 3296   1.101   2.135   7.094  0.0301  0.5569 -0.2348
   45CHL1  H19A 3297   1.096   2.061   7.011  1.0838 -0.6945  0.7972
   45CHL1  H19B 3298   1.205   2.138   7.133 -0.2474 -1.0910  0.6688
   45CHL1  H19C 3299   1.037   2.088   7.172  0.7002 -0.3554 -0.2364
   45CHL1    C1 3300   0.900   2.265   7.028 -0.1140  0.5867  0.6739
   45CHL1   H1A 3301   0.852   2.198   7.103  3.1022 -0.0218  2.2396
   45CHL1   H1B 3302   0.842   2.359   7.016  1.4641  1.2689 -1.9210
   45CHL1    C2 3303   0.869   2.188   6.897 -0.4106 -0.4079 -0.3117
   45CHL1   H2A 3304   0.761   2.191   6.876 -0.1498  0.2495 -1.5764
   45CHL1   H2B 3305   0.904   2.083   6.914 -1.0157  0.1301  5.1528
   45CHL1   C20 3306   1.175   2.558   7.714 -0.1658 -0.0683 -0.3719
   45CHL1   H20 3307   1.101   2.483   7.749 -0.0073 -0.3463 -0.6364
   45CHL1   C21 3308   1.127   2.701   7.755  0.0059 -0.1943 -0.1882
   45CHL1  H21A 3309   1.202   2.779   7.729  0.4463  0.3450  2.5503
   45CHL1  H21B 3310   1.121   2.715   7.865 -1.7500  0.8886 -0.3985
   45CHL1  H21C 3311   1.036   2.739   7.704 -2.0832 -1.5168  2.4177
   45CHL1   C22 3312   1.308   2.526   7.784  0.4300  0.0546  0.5089
   45CHL1  H22A 3313   1.366   2.453   7.722 -1.6867 -0.4483 -0.9630
   45CHL1  H22B 3314   1.345   2.629   7.804 -1.0872 -0.0150  3.9867
   45CHL1   C23 3315   1.297   2.449   7.921  0.7790  0.2872  1.2328
   45CHL1  H23A 3316   1.228   2.504   7.989  0.6087  0.8897  0.5679
   45CHL1  H23B 3317   1.251   2.353   7.887  0.8720  1.6030 -2.8231
   45CHL1   C24 3318   1.433   2.440   7.997  0.0438 -0.4120  0.2002
   45CHL1  H24A 3319   1.491   2.375   7.929 -2.6050 -0.4649 -2.1424
   45CHL1  H24B 3320   1.466   2.545   8.015 -2.7410  0.1886  2.2212
   45CHL1   C25 3321   1.418   2.370   8.131 -0.4345  0.5115 -0.0070
   45CHL1   H25 3322   1.327   2.412   8.180  0.0544  1.5262  0.0362
   45CHL1   C26 3323   1.408   2.220   8.122 -0.5408  0.3334  0.7156
   45CHL1  H26A 3324   1.318   2.193   8.061 -1.2002 -0.8458  2.1585
   45CHL1  H26B 3325   1.502   2.171   8.088  0.2207  1.6905  0.8582
   45CHL1  H26C 3326   1.384   2.185   8.225 -3.3434  0.7163  0.2368
   45CHL1   C27 3327   1.543   2.401   8.224  0.5567 -0.0416  0.0152
   45CHL1  H27A 3328   1.543   2.511   8.243 -1.4826  0.1230 -0.7905
   45CHL1  H27B 3329   1.531   2.359   8.326 -1.0950 -2.8735 -1.3120
   45CHL1  H27C 3330   1.642   2.376   8.180 -0.3657  0.6719 -2.5275
   46CHL1    C3 3331   0.963   3.819   6.973  0.0929  0.4752  0.0376
   46CHL1    H3 3332   0.908   3.910   7.008  1.0105 -0.0223  2.8796
   46CHL1    O3 3333   1.010   3.838   6.839 -0.4984 -0.3535 -0.6570
   46CHL1   H3' 3334   1.105   3.822   6.837 -0.1918  1.2965 -0.8735
   46CHL1    C4 3335   1.082   3.782   7.064 -0.4634  0.6387  0.4962
   46CHL1   H4A 3336   1.110   3.680   7.032 -0.6014  0.3614  1.2277
   46CHL1   H4B 3337   1.161   3.859   7.051  1.2096 -0.6753  2.4908
   46CHL1    C5 3338   1.042   3.772   7.209 -0.2003  0.2346 -0.2295
   46CHL1    C6 3339   1.091   3.852   7.301 -0.3384 -0.8524 -0.1656
   46CHL1    H6 3340   1.175   3.916   7.270  0.6027 -2.1802 -0.4003
   46CHL1    C7 3341   1.053   3.853   7.450 -0.2967  0.1105  0.9093
   46CHL1   H7A 3342   1.143   3.849   7.515 -0.0915  1.1237  0.6959
   46CHL1   H7B 3343   1.005   3.945   7.488 -0.9235  0.4294 -0.6524
   46CHL1    C8 3344   0.963   3.731   7.484 -0.1508 -0.0194  0.4458
   46CHL1    H8 3345   1.025   3.639   7.482 -0.0785 -0.0360  2.1242
   46CHL1   C14 3346   0.894   3.756   7.624 -0.5030 -0.5616 -0.2586
   46CHL1   H14 3347   0.818   3.836   7.609  0.3424  0.5206  1.1811
   46CHL1   C15 3348   0.984   3.786   7.745 -0.9564  0.3951 -0.3058
   46CHL1  H15A 3349   1.070   3.715   7.741 -1.3033 -0.0464  0.0724
   46CHL1  H15B 3350   1.027   3.888   7.734  1.3050 -0.7761 -2.9101
   46CHL1   C16 3351   0.899   3.741   7.867  0.5111 -0.3991 -0.5740
   46CHL1  H16A 3352   0.953   3.667   7.930 -1.6155 -1.0059  0.5858
   46CHL1  H16B 3353   0.880   3.839   7.917  1.3686  0.4442 -1.8704
   46CHL1   C17 3354   0.767   3.685   7.810 -0.4428  0.0328  0.0268
   46CHL1   H17 3355   0.699   3.772   7.792 -0.3521  0.8410  3.2216
   46CHL1   C13 3356   0.810   3.634   7.668 -0.6368  0.1614 -0.2888
   46CHL1   C18 3357   0.902   3.508   7.690 -0.2061 -0.0258 -0.8265
   46CHL1  H18A 3358   0.836   3.428   7.729  0.3579 -0.9080 -1.6550
   46CHL1  H18B 3359   0.940   3.469   7.594 -1.1787  0.2342 -1.3271
   46CHL1  H18C 3360   0.993   3.527   7.751  0.3348  2.5790 -2.3708
   46CHL1   C12 3361   0.706   3.604   7.560 -0.5104  0.0268  0.2249
   46CHL1  H12A 3362   0.642   3.515   7.580  2.1814 -3.3998 -5.1418
   46CHL1  H12B 3363   0.643   3.696   7.558  0.5089  0.7766  1.6306
   46CHL1   C11 3364   0.765   3.586   7.420  0.1234  0.2076  0.0100
   46CHL1  H11A 3365   0.814   3.486   7.420  1.5142  0.8709 -0.1298
   46CHL1  H11B 3366   0.683   3.571   7.347 -0.0979  1.9086 -0.1090
   46CHL1    C9 3367   0.859   3.697   7.383 -0.1806  0.6804 -0.5281
   46CHL1    H9 3368   0.796   3.788   7.384  1.9091  2.1497 -0.0450
   46CHL1   C10 3369   0.921   3.673   7.242 -0.2566  0.2094  0.2520
   46CHL1   C19 3370   0.983   3.528   7.245 -0.0016 -0.1922  0.2632
   46CHL1  H19A 3371   0.902   3.452   7.241 -0.7420  0.6514 -0.9772
   46CHL1  H19B 3372   1.040   3.507   7.152  0.2931 -0.6186  0.5388
   46CHL1  H19C 3373   1.049   3.511   7.333 -3.8725 -1.0126  3.1199
   46CHL1    C1 3374   0.808   3.678   7.128  0.1436 -0.7788  0.4787
   46CHL1   H1A 3375   0.743   3.588   7.128 -2.7851  1.2334 -2.1584
   46CHL1   H1B 3376   0.740   3.761   7.156 -0.5664 -1.8460  1.9698
   46CHL1    C2 3377   0.857   3.710   6.988  0.2002 -0.1258  0.1034
   46CHL1   H2A 3378   0.768   3.716   6.921  0.2065  1.1288  0.1819
   46CHL1   H2B 3379   0.908   3.616   6.959  0.6881 -0.6068  2.3926
   46CHL1   C20 3380   0.704   3.591   7.911 -0.4549 -0.0703  0.3121
   46CHL1   H20 3381   0.750   3.490   7.920 -0.1949  0.0162 -0.0726
   46CHL1   C21 3382   0.571   3.542   7.850  0.7160 -0.5696 -0.2189
   46CHL1  H21A 3383   0.516   3.628   7.807  0.0554 -1.5571 -1.3701
   46CHL1  H21B 3384   0.510   3.498   7.932  0.6067  2.9559  1.7019
   46CHL1  H21C 3385   0.588   3.464   7.773 -1.6540 -2.3663  0.9931
   46CHL1   C22 3386   0.680   3.653   8.046  0.3807 -0.3741 -0.5100
   46CHL1  H22A 3387   0.782   3.682   8.077  0.6256 -0.9242 -0.7914
   46CHL1  H22B 3388   0.617   3.744   8.039 -0.6206 -0.7521  2.7353
   46CHL1   C23 3389   0.630   3.551   8.155  0.8751  0.0136 -0.5067
   46CHL1  H23A 3390   0.522   3.528   8.143  1.3346 -1.8334 -1.2623
   46CHL1  H23B 3391   0.699   3.464   8.158  0.2039 -0.5838 -1.9580
   46CHL1   C24 3392   0.648   3.626   8.293  0.1070  0.2861  0.9719
   46CHL1  H24A 3393   0.753   3.658   8.312  0.8104 -0.1502 -1.9053
   46CHL1  H24B 3394   0.584   3.716   8.294 -0.3376  0.0036 -0.4603
   46CHL1   C25 3395   0.619   3.539   8.409 -0.1666  0.0873  1.0655
   46CHL1   H25 3396   0.523   3.483   8.400  0.6148 -1.0589 -0.1960
   46CHL1   C26 3397   0.722   3.427   8.435 -0.3477  0.1577 -0.4962
   46CHL1  H26A 3398   0.826   3.464   8.418  0.4567 -1.9665 -0.2599
   46CHL1  H26B 3399   0.714   3.389   8.539  0.0713 -0.9968 -0.8859
   46CHL1  H26C 3400   0.700   3.342   8.367  2.5481 -1.2354  0.2131
   46CHL1   C27 3401   0.620   3.612   8.540  0.2894 -0.1358 -0.0791
   46CHL1  H27A 3402   0.584   3.550   8.625 -2.3606 -0.3824 -1.3166
   46CHL1  H27B 3403   0.718   3.658   8.562  0.0241 -0.2555  1.3777
   46CHL1  H27C 3404   0.558   3.703   8.522 -0.4786 -0.6273  0.0613
   47CHL1    C3 3405   0.378   3.499   6.753  0.1737  0.3875 -0.0519
   47CHL1    H3 3406   0.420   3.402   6.788  1.0178  0.5263 -0.6607
   47CHL1    O3 3407   0.375   3.500   6.612 -0.0304  0.6917  0.0322
   47CHL1   H3' 3408   0.299   3.449   6.584 -0.9596  1.7134  0.6869
   47CHL1    C4 3409   0.235   3.527   6.804 -0.5319  0.7799 -0.6721
   47CHL1   H4A 3410   0.197   3.611   6.742 -0.8184 -0.3038 -2.0012
   47CHL1   H4B 3411   0.177   3.437   6.775  0.6850 -0.2178 -0.0825
   47CHL1    C5 3412   0.214   3.557   6.951 -0.2998 -0.1150  0.2403
   47CHL1    C6 3413   0.121   3.486   7.017 -0.4200 -0.0067  0.1920
   47CHL1    H6 3414   0.055   3.413   6.968  1.2007 -0.3820 -1.4969
   47CHL1    C7 3415   0.092   3.509   7.165  0.2720  0.2731  0.5541
   47CHL1   H7A 3416  -0.016   3.527   7.183 -0.2844 -0.9461 -1.4155
   47CHL1   H7B 3417   0.111   3.414   7.219 -0.6515  1.3050  2.7674
   47CHL1    C8 3418   0.175   3.621   7.230  0.0027 -0.5538 -0.3120
   47CHL1    H8 3419   0.109   3.708   7.209 -1.0309 -1.2688 -0.0608
   47CHL1   C14 3420   0.174   3.622   7.373  0.6332  1.1856 -0.6094
   47CHL1   H14 3421   0.235   3.535   7.407 -1.8134 -0.8207 -1.2343
   47CHL1   C15 3422   0.049   3.605   7.458 -0.3033 -0.7194  0.5602
   47CHL1  H15A 3423  -0.040   3.639   7.400  0.9199  2.8343  0.6627
   47CHL1  H15B 3424   0.037   3.497   7.482 -0.3113 -0.3836  2.1618
   47CHL1   C16 3425   0.078   3.670   7.590  1.0936 -0.4597  0.0314
   47CHL1  H16A 3426   0.003   3.752   7.597  2.7728  1.1231 -0.0961
   47CHL1  H16B 3427   0.053   3.603   7.675  1.9493  1.0574  1.5017
   47CHL1   C17 3428   0.223   3.730   7.588  0.1489  0.0796 -0.0717
   47CHL1   H17 3429   0.293   3.650   7.619 -0.7492 -0.7272 -0.1230
   47CHL1   C13 3430   0.252   3.744   7.436  0.3501  0.0595  0.9784
   47CHL1   C18 3431   0.203   3.887   7.389  0.3674 -0.6744 -0.2669
   47CHL1  H18A 3432   0.203   3.897   7.278 -0.8879 -0.3385 -0.2525
   47CHL1  H18B 3433   0.108   3.919   7.438 -0.9377 -2.4822 -1.5737
   47CHL1  H18C 3434   0.282   3.957   7.423  0.2878  1.9963 -5.1351
   47CHL1   C12 3435   0.398   3.727   7.392  0.0105 -0.4746 -0.8810
   47CHL1  H12A 3436   0.473   3.799   7.431  0.0149 -0.0015 -1.7370
   47CHL1  H12B 3437   0.428   3.634   7.445  3.6350  0.9705 -0.2781
   47CHL1   C11 3438   0.417   3.733   7.243 -0.1000  0.8001 -0.1069
   47CHL1  H11A 3439   0.409   3.839   7.213  1.0567  0.9044 -0.0749
   47CHL1  H11B 3440   0.514   3.691   7.209 -1.2398  0.1901 -2.7484
   47CHL1    C9 3441   0.312   3.642   7.160 -0.2523 -0.0037 -0.9718
   47CHL1    H9 3442   0.353   3.539   7.170 -1.2833 -0.4692 -1.4453
   47CHL1   C10 3443   0.323   3.658   7.008  0.5522  0.0591 -0.4496
   47CHL1   C19 3444   0.279   3.803   6.965 -0.1236  0.2282 -0.2996
   47CHL1  H19A 3445   0.171   3.829   6.960 -0.1525 -0.1339 -1.6631
   47CHL1  H19B 3446   0.330   3.881   7.025 -0.4743  0.0191  0.2730
   47CHL1  H19C 3447   0.311   3.818   6.860 -0.3016  1.3429 -0.1972
   47CHL1    C1 3448   0.467   3.620   6.962 -0.3007 -0.5306  0.2305
   47CHL1   H1A 3449   0.533   3.703   6.992  1.6891 -2.4992  1.4647
   47CHL1   H1B 3450   0.505   3.528   7.012  0.5470  0.3926  1.2946
   47CHL1    C2 3451   0.479   3.588   6.808  0.2396  0.2390  0.3183
   47CHL1   H2A 3452   0.583   3.564   6.777 -0.5527 -0.9622 -1.5073
   47CHL1   H2B 3453   0.460   3.686   6.759 -0.6873  1.1313  2.4013
   47CHL1   C20 3454   0.251   3.834   7.691 -0.3522 -0.6837 -1.0490
   47CHL1   H20 3455   0.185   3.918   7.661  2.1536  0.5962 -3.1927
   47CHL1   C21 3456   0.395   3.892   7.676 -0.1572 -0.4419 -0.5575
   47CHL1  H21A 3457   0.413   3.975   7.748 -0.4817  0.7884 -1.8633
   47CHL1  H21B 3458   0.419   3.939   7.578 -0.5080  2.2267  0.5851
   47CHL1  H21C 3459   0.464   3.808   7.698 -0.0030 -0.5814 -1.5442
   47CHL1   C22 3460   0.221   3.796   7.843 -0.2322 -0.0908 -0.4384
   47CHL1  H22A 3461   0.114   3.765   7.834 -0.3626 -0.1485  1.2014
   47CHL1  H22B 3462   0.278   3.706   7.872 -0.8060 -1.0978 -2.3301
   47CHL1   C23 3463   0.231   3.918   7.944  0.2471 -0.2707  0.0210
   47CHL1  H23A 3464   0.340   3.937   7.951 -0.0080  1.4142 -0.2667
   47CHL1  H23B 3465   0.167   4.000   7.905 -2.3908 -1.2343  2.1668
   47CHL1   C24 3466   0.176   3.875   8.077  0.0813 -0.4102 -0.6019
   47CHL1  H24A 3467   0.070   3.850   8.055 -0.1931  0.8932 -0.8606
   47CHL1  H24B 3468   0.230   3.783   8.106 -0.7519 -1.4822 -2.3872
   47CHL1   C25 3469   0.183   3.984   8.185  0.8698 -0.3305 -0.9039
   47CHL1   H25 3470   0.279   4.039   8.176  0.4884  0.1359 -2.3841
   47CHL1   C26 3471   0.065   4.088   8.181 -0.0076 -0.1694 -0.5715
   47CHL1  H26A 3472   0.076   4.166   8.260 -1.4043 -1.4359  0.9247
   47CHL1  H26B 3473   0.072   4.131   8.079  0.3124  0.2852 -0.3561
   47CHL1  H26C 3474  -0.028   4.035   8.211  0.6087 -0.7598  0.3610
   47CHL1   C27 3475   0.189   3.917   8.325  0.2917  0.2852 -1.0211
   47CHL1  H27A 3476   0.269   3.840   8.327 -1.0491 -1.1064  0.7970
   47CHL1  H27B 3477   0.214   3.995   8.400  0.7520  1.2398 -2.1663
   47CHL1  H27C 3478   0.096   3.860   8.347  0.5229  0.4528  0.4257
   48CHL1    C3 3479   3.735   6.198   6.438  0.5241 -0.3819  1.2873
   48CHL1    H3 3480   3.834   6.148   6.439  0.0877 -1.2515  3.0406
   48CHL1    O3 3481   3.690   6.206   6.303  0.1854  0.2170  0.7118
   48CHL1   H3' 3482   3.596   6.184   6.299  0.5616 -1.2497 -0.1687
   48CHL1    C4 3483   3.649   6.102   6.518  0.2447 -0.7724 -0.5207
   48CHL1   H4A 3484   3.544   6.126   6.488 -0.0220  0.0108  0.9602
   48CHL1   H4B 3485   3.667   5.999   6.479  1.6190 -0.2114 -1.3854
   48CHL1    C5 3486   3.693   6.097   6.668  0.0313 -0.5428  0.0094
   48CHL1    C6 3487   3.741   5.985   6.724 -0.0780 -0.1025 -0.4793
   48CHL1    H6 3488   3.734   5.890   6.669 -1.1150 -1.9767  2.7152
   48CHL1    C7 3489   3.772   5.980   6.871  0.7373 -0.1830  0.0107
   48CHL1   H7A 3490   3.725   5.889   6.914 -0.0418 -0.9041 -2.3254
   48CHL1   H7B 3491   3.883   5.987   6.866  0.6833  0.6295 -0.1864
   48CHL1    C8 3492   3.720   6.109   6.949 -0.1022  0.5943  0.9130
   48CHL1    H8 3493   3.609   6.103   6.943  0.1978 -3.6807 -2.0055
   48CHL1   C14 3494   3.759   6.104   7.099 -0.3471 -0.3379 -0.1332
   48CHL1   H14 3495   3.869   6.121   7.094 -0.2082 -1.2843 -0.4441
   48CHL1   C15 3496   3.737   5.974   7.190  0.2965  0.2048  0.8554
   48CHL1  H15A 3497   3.639   5.928   7.167  0.8840 -0.3221 -0.6828
   48CHL1  H15B 3498   3.814   5.895   7.176  1.0470  0.6475  2.2901
   48CHL1   C16 3499   3.736   6.020   7.338 -0.3469 -0.0594  0.3547
   48CHL1  H16A 3500   3.631   6.005   7.371 -0.1943 -1.4375  0.2379
   48CHL1  H16B 3501   3.814   5.969   7.398 -1.0883 -1.3196  0.2625
   48CHL1   C17 3502   3.764   6.177   7.320  0.0430  0.0234 -1.0565
   48CHL1   H17 3503   3.874   6.193   7.316 -0.0795  0.6449 -2.0314
   48CHL1   C13 3504   3.709   6.226   7.181 -0.0366  0.2382 -0.1198
   48CHL1   C18 3505   3.554   6.236   7.180  0.0564 -0.2643  0.2369
   48CHL1  H18A 3506   3.511   6.213   7.080 -0.1905 -0.7676  0.4572
   48CHL1  H18B 3507   3.509   6.165   7.253  0.7464 -0.2782  0.6476
   48CHL1  H18C 3508   3.524   6.339   7.209  0.3212  0.2822 -1.4261
   48CHL1   C12 3509   3.773   6.353   7.118 -0.0372 -0.7407  0.1877
   48CHL1  H12A 3510   3.729   6.448   7.155  0.2441  0.6387 -2.9397
   48CHL1  H12B 3511   3.877   6.365   7.156 -0.8470  1.3075  1.8789
   48CHL1   C11 3512   3.745   6.363   6.963  0.0980  0.5359  0.0103
   48CHL1  H11A 3513   3.640   6.400   6.956  0.4351  1.3282 -1.0107
   48CHL1  H11B 3514   3.816   6.444   6.934 -1.8663  2.2606 -0.1413
   48CHL1    C9 3515   3.760   6.234   6.873  0.2040 -0.3968  0.2981
   48CHL1    H9 3516   3.866   6.216   6.846  0.1510  0.9748 -0.8411
   48CHL1   C10 3517   3.692   6.240   6.741  0.0680  0.7640 -0.0631
   48CHL1   C19 3518   3.541   6.280   6.753 -0.4309  0.5491  0.3018
   48CHL1  H19A 3519   3.485   6.210   6.820  0.8901 -0.4693  0.3685
   48CHL1  H19B 3520   3.530   6.384   6.789  1.0957 -0.3828  3.7209
   48CHL1  H19C 3521   3.503   6.269   6.650 -0.3398  1.8525  0.1283
   48CHL1    C1 3522   3.776   6.339   6.650 -0.1163  0.7063  0.3021
   48CHL1   H1A 3523   3.751   6.439   6.691 -2.8835 -0.4987  1.6834
   48CHL1   H1B 3524   3.883   6.311   6.656  0.1883  0.7946 -3.4131
   48CHL1    C2 3525   3.728   6.337   6.504 -0.1727  0.1020  0.2432
   48CHL1   H2A 3526   3.792   6.401   6.439 -1.4466  1.2041  0.0669
   48CHL1   H2B 3527   3.621   6.365   6.499 -0.1831 -0.0678 -0.4466
   48CHL1   C20 3528   3.729   6.255   7.443  0.3915 -0.9910  0.4954
   48CHL1   H20 3529   3.623   6.284   7.428  1.1094  0.5335 -2.0224
   48CHL1   C21 3530   3.790   6.395   7.449 -0.1387  0.4809 -0.6969
   48CHL1  H21A 3531   3.799   6.457   7.357 -0.9384 -0.4154 -1.3962
   48CHL1  H21B 3532   3.894   6.394   7.489 -1.0622 -1.3081  1.7440
   48CHL1  H21C 3533   3.718   6.439   7.520 -2.3678 -2.1582 -1.2337
   48CHL1   C22 3534   3.726   6.169   7.573  0.5967  0.4343  0.1029
   48CHL1  H22A 3535   3.677   6.228   7.654  2.0697  1.5772  0.1830
   48CHL1  H22B 3536   3.663   6.080   7.552  2.4768 -0.4900 -1.7985
   48CHL1   C23 3537   3.861   6.139   7.624  0.6303 -0.6199 -0.2010
   48CHL1  H23A 3538   3.925   6.081   7.554 -0.3336 -0.3744 -1.3092
   48CHL1  H23B 3539   3.919   6.230   7.652 -1.0394  1.1042 -2.1365
   48CHL1   C24 3540   3.864   6.055   7.757 -0.4068 -0.7209  0.5303
   48CHL1  H24A 3541   3.789   6.104   7.824  0.9158  0.3378  1.2679
   48CHL1  H24B 3542   3.822   5.956   7.732  1.1289 -1.5345  1.1440
   48CHL1   C25 3543   3.997   6.048   7.829 -0.3598 -0.4255  0.1026
   48CHL1   H25 3544   4.034   6.152   7.843  0.5619 -0.9021  1.2742
   48CHL1   C26 3545   3.985   5.994   7.969 -0.4152  0.2730  0.2878
   48CHL1  H26A 3546   3.893   6.039   8.011 -1.3973 -0.6367 -0.8432
   48CHL1  H26B 3547   3.972   5.884   7.954  1.1561  0.2907 -1.4026
   48CHL1  H26C 3548   4.069   6.020   8.038  1.1972  0.4248 -1.6969
   48CHL1   C27 3549   4.122   5.980   7.761 -0.4535 -0.1808  0.2166
   48CHL1  H27A 3550   4.204   5.987   7.836  1.7411 -2.0037 -1.9139
   48CHL1  H27B 3551   4.108   5.871   7.742  0.3108  0.0531 -1.8948
   48CHL1  H27C 3552   4.144   6.043   7.672 -2.3575 -0.5524 -0.5489
   49CHL1    C3 3553   2.681   0.952   6.850  0.3246 -0.7301  0.5515
   49CHL1    H3 3554   2.665   0.842   6.850 -0.4510 -0.6238  1.2375
   49CHL1    O3 3555   2.685   0.999   6.714 -0.3227  0.0125  0.2470
   49CHL1   H3' 3556   2.710   0.928   6.655 -3.2075 -0.3602 -0.6128
   49CHL1    C4 3557   2.547   0.998   6.913  0.0477  0.4397 -0.2407
   49CHL1   H4A 3558   2.525   1.106   6.903 -2.4690  0.0567  0.9862
   49CHL1   H4B 3559   2.467   0.947   6.855 -1.3995 -0.6186  2.5866
   49CHL1    C5 3560   2.533   0.956   7.057  0.0206  0.5439  0.0267
   49CHL1    C6 3561   2.437   0.876   7.102 -0.5859  0.5450 -0.3894
   49CHL1    H6 3562   2.361   0.850   7.027 -1.8051 -0.5918  1.1985
   49CHL1    C7 3563   2.419   0.843   7.247  0.0135  0.1069 -0.6722
   49CHL1   H7A 3564   2.312   0.864   7.269 -0.1359  0.3292 -1.5808
   49CHL1   H7B 3565   2.447   0.737   7.266  0.2910  0.2765 -0.1298
   49CHL1    C8 3566   2.504   0.931   7.343  0.2849 -0.6036  0.4717
   49CHL1    H8 3567   2.450   1.027   7.350 -0.8136 -0.7469 -4.2324
   49CHL1   C14 3568   2.513   0.870   7.487 -0.1060 -0.1920  0.3767
   49CHL1   H14 3569   2.556   0.771   7.462 -0.2180  0.3882 -2.2382
   49CHL1   C15 3570   2.372   0.853   7.561  0.4748 -0.3936 -0.5667
   49CHL1  H15A 3571   2.316   0.949   7.562  1.4554  0.1832 -0.4198
   49CHL1  H15B 3572   2.315   0.768   7.518 -1.9309  1.1547 -0.5473
   49CHL1   C16 3573   2.417   0.816   7.699  0.3338  0.7269 -0.1775
   49CHL1  H16A 3574   2.363   0.876   7.776  0.6992  0.6781  0.1195
   49CHL1  H16B 3575   2.391   0.709   7.712  0.9776  0.3116 -2.1774
   49CHL1   C17 3576   2.574   0.847   7.706  0.0332 -0.4818  0.0268
   49CHL1   H17 3577   2.625   0.755   7.671  0.3501  0.8674 -3.2485
   49CHL1   C13 3578   2.598   0.944   7.588  0.2357 -0.1971  0.2537
   49CHL1   C18 3579   2.540   1.082   7.619 -0.2682  0.3130  0.2338
   49CHL1  H18A 3580   2.616   1.149   7.664 -1.6188  1.1100  1.3359
   49CHL1  H18B 3581   2.519   1.120   7.516  0.5411 -0.4100 -0.2047
   49CHL1  H18C 3582   2.440   1.070   7.666 -0.3777 -0.7280 -0.2424
   49CHL1   C12 3583   2.747   0.947   7.531  0.0470 -0.1145 -0.2088
   49CHL1  H12A 3584   2.820   1.009   7.588 -1.2645  1.1303  0.1442
   49CHL1  H12B 3585   2.794   0.846   7.527  2.2868  0.8789  0.0725
   49CHL1   C11 3586   2.744   1.012   7.394 -0.0552  0.2066  0.2567
   49CHL1  H11A 3587   2.709   1.116   7.413 -0.8191 -0.3815  2.1280
   49CHL1  H11B 3588   2.847   1.014   7.351 -0.1317  1.3253  0.1178
   49CHL1    C9 3589   2.646   0.940   7.288 -0.4832 -0.6422 -0.1441
   49CHL1    H9 3590   2.681   0.834   7.290  0.3819 -0.3514  0.5348
   49CHL1   C10 3591   2.650   1.000   7.144  0.1367 -0.0003 -0.0621
   49CHL1   C19 3592   2.631   1.147   7.151 -0.5204  0.3749  0.4326
   49CHL1  H19A 3593   2.632   1.208   7.058  0.4991  0.4384  0.4747
   49CHL1  H19B 3594   2.544   1.177   7.213  0.5744  2.0657  1.1966
   49CHL1  H19C 3595   2.716   1.186   7.210  1.1066 -0.7918 -1.0785
   49CHL1    C1 3596   2.789   0.961   7.084  0.6185 -0.5143  0.0111
   49CHL1   H1A 3597   2.879   1.011   7.127 -0.7281  2.2504 -0.2440
   49CHL1   H1B 3598   2.794   0.851   7.100 -0.9099 -0.3699  1.5766
   49CHL1    C2 3599   2.805   0.992   6.934  0.2286  0.0799 -0.5289
   49CHL1   H2A 3600   2.897   0.944   6.895  2.1235  0.9612  2.7062
   49CHL1   H2B 3601   2.818   1.101   6.920  1.2160  0.0086 -0.1935
   49CHL1   C20 3602   2.612   0.883   7.845  0.6460  0.0153 -0.3872
   49CHL1   H20 3603   2.556   0.972   7.880  2.1598  0.0468  2.0036
   49CHL1   C21 3604   2.762   0.916   7.855 -0.8577  0.0544 -0.7807
   49CHL1  H21A 3605   2.795   1.009   7.805  0.3777  0.6168  1.0564
   49CHL1  H21B 3606   2.820   0.835   7.806  1.4389  0.5953  0.9884
   49CHL1  H21C 3607   2.787   0.922   7.963  0.3785  0.0832 -1.0673
   49CHL1   C22 3608   2.570   0.770   7.946 -0.3190 -0.0178  0.2141
   49CHL1  H22A 3609   2.472   0.721   7.925 -0.1286 -1.7806  3.1225
   49CHL1  H22B 3610   2.650   0.692   7.946 -2.0800 -1.8870 -0.5566
   49CHL1   C23 3611   2.555   0.826   8.090 -0.1955  0.4302  0.7251
   49CHL1  H23A 3612   2.636   0.899   8.111  0.4534 -0.0853  0.0411
   49CHL1  H23B 3613   2.462   0.886   8.087 -0.8472 -0.4202  2.5989
   49CHL1   C24 3614   2.550   0.717   8.195 -0.4267  0.5082 -0.0963
   49CHL1  H24A 3615   2.464   0.650   8.174  0.8784 -1.1141 -0.3195
   49CHL1  H24B 3616   2.644   0.659   8.192  0.3265  1.7202 -0.1608
   49CHL1   C25 3617   2.533   0.764   8.346 -0.0633  0.4497  0.1047
   49CHL1   H25 3618   2.529   0.671   8.406  2.0998 -1.3431 -2.3873
   49CHL1   C26 3619   2.665   0.829   8.386  0.3828 -0.7590 -0.0943
   49CHL1  H26A 3620   2.738   0.745   8.388  1.4547  0.1816  0.9272
   49CHL1  H26B 3621   2.700   0.907   8.316 -3.4551  0.0933 -1.1898
   49CHL1  H26C 3622   2.645   0.874   8.486 -2.0853 -0.8556 -0.5150
   49CHL1   C27 3623   2.410   0.858   8.386  0.3356  0.9020  0.5501
   49CHL1  H27A 3624   2.433   0.964   8.359  0.8757  0.4612 -0.7699
   49CHL1  H27B 3625   2.316   0.835   8.332  1.2960 -0.3417 -0.6119
   49CHL1  H27C 3626   2.404   0.849   8.496  0.9120  0.3067  0.5348
   50CHL1    C3 3627   3.673   2.174   6.821  0.2693 -0.2773 -0.2921
   50CHL1    H3 3628   3.746   2.100   6.782  0.5173  0.8452 -2.0004
   50CHL1    O3 3629   3.559   2.177   6.732 -0.9302 -0.2187  0.6228
   50CHL1   H3' 3630   3.509   2.255   6.758 -1.8824 -1.0956  1.4694
   50CHL1    C4 3631   3.626   2.154   6.963  0.3594  0.6956  0.5544
   50CHL1   H4A 3632   3.545   2.223   6.995 -2.1449 -2.9998  2.6818
   50CHL1   H4B 3633   3.585   2.051   6.963 -0.7699  1.0803 -2.9549
   50CHL1    C5 3634   3.737   2.163   7.064  0.0546  0.4613 -0.2229
   50CHL1    C6 3635   3.761   2.073   7.160  0.2639 -0.6865 -0.5052
   50CHL1    H6 3636   3.691   1.988   7.167  0.7766 -0.9035  3.0125
   50CHL1    C7 3637   3.853   2.090   7.282 -0.0359 -0.2444  0.2448
   50CHL1   H7A 3638   3.800   2.052   7.372  1.1263 -1.5223  0.3929
   50CHL1   H7B 3639   3.941   2.025   7.267  0.7930  0.9445 -0.1423
   50CHL1    C8 3640   3.900   2.239   7.293  1.0353  0.5639 -0.0637
   50CHL1    H8 3641   3.823   2.306   7.337  3.4137  3.8187 -0.6118
   50CHL1   C14 3642   4.034   2.239   7.369  0.3900 -0.8830  0.2158
   50CHL1   H14 3643   4.109   2.190   7.304 -0.5964  1.3068 -2.6937
   50CHL1   C15 3644   4.043   2.171   7.502 -0.4732 -0.1306  0.0888
   50CHL1  H15A 3645   3.947   2.197   7.551 -1.4455 -0.7325 -1.4425
   50CHL1  H15B 3646   4.050   2.061   7.485 -2.2142 -0.7057  2.8466
   50CHL1   C16 3647   4.166   2.235   7.567 -0.0088 -0.3896 -0.0813
   50CHL1  H16A 3648   4.137   2.278   7.665  2.6997 -1.6982  1.3506
   50CHL1  H16B 3649   4.242   2.159   7.596  0.6558  0.3050  0.0362
   50CHL1   C17 3650   4.220   2.343   7.471  0.0201 -0.0582 -0.1722
   50CHL1   H17 3651   4.293   2.295   7.402 -0.9135 -0.3391 -0.9753
   50CHL1   C13 3652   4.097   2.376   7.393  0.3889  0.3857 -0.4050
   50CHL1   C18 3653   4.004   2.462   7.478  0.4892  0.3412 -0.0826
   50CHL1  H18A 3654   4.053   2.561   7.472 -2.0088  1.5672 -1.2636
   50CHL1  H18B 3655   3.897   2.459   7.447  0.4692 -0.1047  0.0225
   50CHL1  H18C 3656   3.991   2.426   7.582  0.3424 -0.3398 -0.3326
   50CHL1   C12 3657   4.129   2.436   7.258  0.2659  0.5184  0.4383
   50CHL1  H12A 3658   4.169   2.540   7.264 -0.3534  0.7395  0.9131
   50CHL1  H12B 3659   4.207   2.382   7.201 -1.9604 -0.9562 -1.2638
   50CHL1   C11 3660   3.997   2.445   7.170  0.0840 -0.3789  0.1966
   50CHL1  H11A 3661   3.929   2.521   7.214  0.9625  0.4849  0.0841
   50CHL1  H11B 3662   4.038   2.481   7.073 -0.6094 -0.6352 -0.1990
   50CHL1    C9 3663   3.930   2.308   7.159 -0.2719  0.0769 -0.3718
   50CHL1    H9 3664   4.004   2.243   7.108  1.1639  1.6982 -0.4194
   50CHL1   C10 3665   3.811   2.302   7.058  0.8808  0.0759  0.0235
   50CHL1   C19 3666   3.703   2.414   7.094 -0.2683  0.5960  0.1534
   50CHL1  H19A 3667   3.617   2.404   7.024  1.0466  0.2017 -1.4273
   50CHL1  H19B 3668   3.673   2.414   7.201  0.2230 -0.2963  0.2987
   50CHL1  H19C 3669   3.745   2.512   7.066 -2.4064  1.3712 -0.4686
   50CHL1    C1 3670   3.858   2.324   6.907  0.1575  1.0246 -0.0654
   50CHL1   H1A 3671   3.912   2.421   6.909 -0.4897  1.3706  1.5796
   50CHL1   H1B 3672   3.927   2.244   6.874 -0.7082  0.2996 -0.1413
   50CHL1    C2 3673   3.740   2.311   6.805 -0.1885  0.0901 -0.7150
   50CHL1   H2A 3674   3.770   2.329   6.700  4.9110  1.2842  0.8123
   50CHL1   H2B 3675   3.671   2.397   6.821  1.2374  1.1730 -0.3137
   50CHL1   C20 3676   4.294   2.453   7.557  0.4131  0.2701 -0.1462
   50CHL1   H20 3677   4.241   2.502   7.641  2.5050 -0.1377  1.4624
   50CHL1   C21 3678   4.346   2.552   7.457  0.1945 -1.0737 -0.3631
   50CHL1  H21A 3679   4.403   2.519   7.367 -2.8647 -0.5358 -2.5585
   50CHL1  H21B 3680   4.417   2.628   7.498 -1.1610 -0.4634  0.8824
   50CHL1  H21C 3681   4.265   2.620   7.422  0.5228 -0.9044 -0.7999
   50CHL1   C22 3682   4.426   2.397   7.615  0.3097  0.7576 -0.1168
   50CHL1  H22A 3683   4.399   2.298   7.656  0.0833  0.9595  0.2280
   50CHL1  H22B 3684   4.500   2.380   7.534  1.5396 -1.3162  1.4065
   50CHL1   C23 3685   4.497   2.475   7.731  0.7446 -0.2511  0.0057
   50CHL1  H23A 3686   4.538   2.571   7.695  0.5380 -0.7695 -1.6741
   50CHL1  H23B 3687   4.420   2.502   7.807 -0.2620  0.2409 -1.1727
   50CHL1   C24 3688   4.618   2.404   7.798  0.1645  0.3261  0.2228
   50CHL1  H24A 3689   4.593   2.300   7.830 -1.2461  0.2236 -1.1329
   50CHL1  H24B 3690   4.693   2.395   7.717 -0.5510  0.8105 -0.5013
   50CHL1   C25 3691   4.696   2.469   7.920  0.3730 -0.4487  0.6082
   50CHL1   H25 3692   4.627   2.482   8.006  0.9973  2.0441  0.7738
   50CHL1   C26 3693   4.814   2.378   7.959  0.2415 -0.0248  0.4867
   50CHL1  H26A 3694   4.894   2.394   7.884 -1.7673 -3.9167 -2.6993
   50CHL1  H26B 3695   4.849   2.407   8.060  1.2224 -2.5049  0.9090
   50CHL1  H26C 3696   4.778   2.272   7.958 -0.3610  0.1779  0.7006
   50CHL1   C27 3697   4.746   2.611   7.887 -0.0514  0.1806 -0.0766
   50CHL1  H27A 3698   4.791   2.606   7.786 -3.7388 -0.1443 -1.7681
   50CHL1  H27B 3699   4.660   2.681   7.892  0.2521  0.5036  0.7533
   50CHL1  H27C 3700   4.819   2.647   7.964 -1.0813 -0.0867  1.0349
   51CHL1    C3 3701   3.141   1.169   6.971  0.1337 -0.0392 -0.6446
   51CHL1    H3 3702   3.040   1.132   6.999  1.2156 -1.1272  2.0189
   51CHL1    O3 3703   3.155   1.173   6.829 -0.7597  0.5046 -0.4924
   51CHL1   H3' 3704   3.233   1.226   6.808 -1.8282  2.2816 -0.1140
   51CHL1    C4 3705   3.147   1.317   7.017  0.3616  0.5154  0.3604
   51CHL1   H4A 3706   3.249   1.358   6.999 -1.0550  3.0593 -2.1960
   51CHL1   H4B 3707   3.069   1.378   6.967 -0.1564  0.0574  0.6118
   51CHL1    C5 3708   3.125   1.313   7.166 -0.1487  0.4443 -0.5537
   51CHL1    C6 3709   3.022   1.385   7.220  0.6577  0.6678  0.0234
   51CHL1    H6 3710   2.966   1.448   7.149  1.9848  0.8231 -0.9066
   51CHL1    C7 3711   3.001   1.395   7.364  0.4255  0.4291 -0.2540
   51CHL1   H7A 3712   2.967   1.498   7.390  1.0477  1.0331 -1.7450
   51CHL1   H7B 3713   2.926   1.322   7.399  0.8385 -1.1985 -2.6293
   51CHL1    C8 3714   3.121   1.347   7.446 -0.2827 -0.1243 -0.7391
   51CHL1    H8 3715   3.201   1.423   7.446 -0.1693 -0.2443  0.2106
   51CHL1   C14 3716   3.093   1.330   7.597 -0.6735  0.4461  0.0398
   51CHL1   H14 3717   3.013   1.253   7.605  0.3072 -0.3271  3.1896
   51CHL1   C15 3718   3.041   1.453   7.682  0.0662  0.0922 -0.1189
   51CHL1  H15A 3719   3.095   1.544   7.648  2.7342 -1.3896  0.0175
   51CHL1  H15B 3720   2.931   1.457   7.672 -0.1562 -2.1407  1.1979
   51CHL1   C16 3721   3.077   1.422   7.832  0.3789 -0.3366  0.0546
   51CHL1  H16A 3722   3.139   1.497   7.888 -1.6958  0.5163  1.2634
   51CHL1  H16B 3723   2.983   1.410   7.890 -0.2494  1.9765 -0.4403
   51CHL1   C17 3724   3.154   1.287   7.835 -0.0664  0.4742  0.1451
   51CHL1   H17 3725   3.079   1.205   7.833  1.5819 -1.1046  1.1705
   51CHL1   C13 3726   3.211   1.276   7.688  0.5234 -0.2458  0.1901
   51CHL1   C18 3727   3.337   1.373   7.678  0.5137  0.5234  0.9509
   51CHL1  H18A 3728   3.426   1.310   7.698  0.1121 -0.9932 -1.7347
   51CHL1  H18B 3729   3.356   1.404   7.573 -1.0033 -0.3946  0.3877
   51CHL1  H18C 3730   3.327   1.470   7.731 -0.5786 -0.1061  1.9081
   51CHL1   C12 3731   3.247   1.136   7.629 -0.0290 -0.1908 -0.8263
   51CHL1  H12A 3732   3.332   1.086   7.681 -1.4579 -1.1639  0.6355
   51CHL1  H12B 3733   3.170   1.065   7.666 -1.3233 -0.0884 -3.2248
   51CHL1   C11 3734   3.282   1.142   7.486  0.2781 -0.4514  0.8248
   51CHL1  H11A 3735   3.380   1.191   7.472  1.1624 -2.9311 -2.3107
   51CHL1  H11B 3736   3.296   1.037   7.451 -2.0057 -0.9858  1.4188
   51CHL1    C9 3737   3.181   1.214   7.393  0.2341  0.0262 -0.2608
   51CHL1    H9 3738   3.096   1.143   7.387  0.6891 -0.4519 -1.0771
   51CHL1   C10 3739   3.217   1.225   7.248 -0.6494  0.4130 -0.1337
   51CHL1   C19 3740   3.355   1.303   7.239 -0.3338 -0.1519  0.2423
   51CHL1  H19A 3741   3.348   1.410   7.270  0.4313 -0.0798  0.1554
   51CHL1  H19B 3742   3.431   1.249   7.299 -2.1398 -2.6411  0.3803
   51CHL1  H19C 3743   3.405   1.287   7.142 -0.5602 -1.3970  0.3281
   51CHL1    C1 3744   3.238   1.086   7.186  0.4434  0.3447 -0.0693
   51CHL1   H1A 3745   3.332   1.039   7.221  0.0100 -2.3435 -2.4198
   51CHL1   H1B 3746   3.153   1.019   7.211  1.5393 -0.0996  2.6315
   51CHL1    C2 3747   3.249   1.091   7.034 -0.6212  0.2854  0.5602
   51CHL1   H2A 3748   3.248   0.989   6.991  0.6130  0.1230  0.9083
   51CHL1   H2B 3749   3.351   1.128   7.013  0.0341 -1.3268  0.8792
   51CHL1   C20 3750   3.250   1.271   7.952 -0.5255  0.3067  0.1831
   51CHL1   H20 3751   3.319   1.357   7.942 -2.6647  2.0872  0.2019
   51CHL1   C21 3752   3.333   1.140   7.960 -0.2253 -0.5372  1.1243
   51CHL1  H21A 3753   3.408   1.159   8.039 -2.3168 -0.0027  3.0404
   51CHL1  H21B 3754   3.386   1.132   7.863 -0.4190 -1.6090  1.0996
   51CHL1  H21C 3755   3.281   1.046   7.990 -2.1033  0.8986  2.5451
   51CHL1   C22 3756   3.185   1.300   8.091 -0.4097 -0.4466 -0.0056
   51CHL1  H22A 3757   3.271   1.287   8.160 -0.2879  1.6489  0.2767
   51CHL1  H22B 3758   3.134   1.399   8.093 -0.5349 -0.4262 -2.8893
   51CHL1   C23 3759   3.069   1.203   8.120  0.4647 -0.1627  0.1600
   51CHL1  H23A 3760   3.021   1.157   8.031  1.3461 -0.2746 -0.2579
   51CHL1  H23B 3761   3.104   1.120   8.185 -1.4478  0.4082  1.9563
   51CHL1   C24 3762   2.961   1.279   8.195  0.4609  0.7484  0.0936
   51CHL1  H24A 3763   3.010   1.318   8.286 -1.9064 -1.0528  2.2286
   51CHL1  H24B 3764   2.930   1.361   8.126  0.1231 -0.3698 -1.1050
   51CHL1   C25 3765   2.837   1.193   8.216 -0.1266 -0.0775  0.1023
   51CHL1   H25 3766   2.869   1.093   8.251  0.4582 -0.4718 -1.5106
   51CHL1   C26 3767   2.755   1.256   8.329  0.6047 -0.0543  0.0750
   51CHL1  H26A 3768   2.681   1.331   8.293  0.5856  0.4259  1.0848
   51CHL1  H26B 3769   2.696   1.176   8.379 -0.3443  0.3998 -0.3079
   51CHL1  H26C 3770   2.821   1.299   8.407  1.6069  1.1393 -1.3995
   51CHL1   C27 3771   2.741   1.184   8.094 -0.0210 -0.1731 -0.5314
   51CHL1  H27A 3772   2.649   1.126   8.119 -1.1601  0.8434 -2.2193
   51CHL1  H27B 3773   2.714   1.281   8.047  2.5124  0.0112 -1.6733
   51CHL1  H27C 3774   2.796   1.134   8.011  0.6953 -2.7386  1.4177
   52CHL1    C3 3775   5.670   1.659   6.959  0.3050  0.9607  0.3380
   52CHL1    H3 3776   5.581   1.606   7.000  0.7399 -1.4257 -1.7487
   52CHL1    O3 3777   5.635   1.679   6.820 -0.0981 -0.5395  0.7672
   52CHL1   H3' 3778   5.714   1.725   6.794  0.4334 -1.5967  0.4553
   52CHL1    C4 3779   5.700   1.789   7.034 -0.2134  0.6701  0.0299
   52CHL1   H4A 3780   5.784   1.837   6.980 -0.6712 -0.6847 -1.9577
   52CHL1   H4B 3781   5.608   1.849   7.019 -0.9683 -0.5221 -0.1597
   52CHL1    C5 3782   5.728   1.758   7.181 -0.2285 -0.5615  0.2994
   52CHL1    C6 3783   5.665   1.817   7.281  0.6204  0.4635  0.0481
   52CHL1    H6 3784   5.594   1.896   7.254  0.7373 -0.8126 -4.3754
   52CHL1    C7 3785   5.694   1.796   7.427 -0.0443 -0.2202 -0.1236
   52CHL1   H7A 3786   5.702   1.896   7.474 -3.0954  0.7307 -1.4927
   52CHL1   H7B 3787   5.613   1.733   7.470 -0.4219  1.1390  1.1556
   52CHL1    C8 3788   5.826   1.717   7.450 -0.2277  0.2041 -0.0757
   52CHL1    H8 3789   5.915   1.783   7.439  0.3708 -0.3632  1.3042
   52CHL1   C14 3790   5.827   1.658   7.589 -0.3461  0.0721  0.6842
   52CHL1   H14 3791   5.743   1.585   7.598 -1.2845  1.2498  1.5504
   52CHL1   C15 3792   5.804   1.752   7.716  0.3740  0.5980 -0.4584
   52CHL1  H15A 3793   5.876   1.835   7.701 -0.3702  1.3036 -0.1711
   52CHL1  H15B 3794   5.700   1.787   7.729  0.1669 -0.5458  1.1074
   52CHL1   C16 3795   5.852   1.662   7.829 -0.3335  0.8102 -0.3974
   52CHL1  H16A 3796   5.927   1.720   7.887  0.7027 -0.2679 -0.6490
   52CHL1  H16B 3797   5.758   1.650   7.888 -1.0932 -0.5783 -1.8457
   52CHL1   C17 3798   5.911   1.528   7.774  0.2738  0.3818  0.2190
   52CHL1   H17 3799   5.831   1.452   7.766  0.8524 -0.1342 -0.8605
   52CHL1   C13 3800   5.944   1.567   7.628 -0.8245 -0.2230 -0.7838
   52CHL1   C18 3801   6.085   1.644   7.621 -0.1961 -0.2255 -0.1797
   52CHL1  H18A 3802   6.163   1.568   7.643 -1.0940 -0.9837  0.4420
   52CHL1  H18B 3803   6.103   1.700   7.527  1.2506  3.3632  2.1503
   52CHL1  H18C 3804   6.086   1.715   7.706 -3.1204  2.3187 -2.1296
   52CHL1   C12 3805   5.942   1.450   7.530  0.1397  0.7291 -0.1153
   52CHL1  H12A 3806   6.013   1.367   7.547 -0.0612  0.1533 -1.9743
   52CHL1  H12B 3807   5.841   1.403   7.538 -0.5742  2.2382 -0.0156
   52CHL1   C11 3808   5.959   1.501   7.384  0.3578 -0.5615  0.1227
   52CHL1  H11A 3809   6.061   1.542   7.370 -0.0585 -0.1862 -1.9924
   52CHL1  H11B 3810   5.951   1.416   7.312 -2.0906 -0.0058 -0.3257
   52CHL1    C9 3811   5.839   1.602   7.351 -0.5310 -0.7210 -0.2762
   52CHL1    H9 3812   5.742   1.550   7.369 -0.8099 -1.0868 -2.5901
   52CHL1   C10 3813   5.836   1.653   7.206 -0.4253 -0.1915  0.5273
   52CHL1   C19 3814   5.971   1.727   7.180 -0.5506  0.0893  0.4701
   52CHL1  H19A 3815   6.005   1.806   7.251  1.2722 -0.8467  0.6384
   52CHL1  H19B 3816   6.043   1.644   7.174 -3.1882 -2.3383  1.0830
   52CHL1  H19C 3817   5.982   1.767   7.077  0.4039  0.4604  0.7162
   52CHL1    C1 3818   5.808   1.526   7.116 -0.0028  0.2361 -0.2253
   52CHL1   H1A 3819   5.894   1.456   7.125 -0.0395 -0.2388 -2.9834
   52CHL1   H1B 3820   5.717   1.469   7.145  1.1744 -1.9554 -0.7953
   52CHL1    C2 3821   5.787   1.563   6.960  0.4710 -0.8971  0.4561
   52CHL1   H2A 3822   5.775   1.471   6.899  0.2297 -0.6233  0.0901
   52CHL1   H2B 3823   5.879   1.620   6.933 -0.0180  1.1403  2.8425
   52CHL1   C20 3824   6.023   1.480   7.868  0.0177  0.4693  0.4241
   52CHL1   H20 3825   6.101   1.560   7.865  1.3829 -0.8464  0.3014
   52CHL1   C21 3826   6.082   1.332   7.830  0.4572  0.4241 -0.3360
   52CHL1  H21A 3827   6.171   1.306   7.891 -0.2348  0.7991  0.8415
   52CHL1  H21B 3828   6.115   1.331   7.723  0.9356  1.8676 -0.2176
   52CHL1  H21C 3829   5.998   1.259   7.832 -0.3641  1.3460 -0.6723
   52CHL1   C22 3830   5.978   1.475   8.016  0.6917  0.4885 -0.3072
   52CHL1  H22A 3831   5.959   1.579   8.052 -0.9378  0.4852 -1.1168
   52CHL1  H22B 3832   5.883   1.419   8.017  1.6403 -1.1881 -2.0136
   52CHL1   C23 3833   6.085   1.427   8.111  0.6254 -0.3046 -0.4953
   52CHL1  H23A 3834   6.093   1.318   8.094 -2.2357 -0.8627  1.3334
   52CHL1  H23B 3835   6.173   1.492   8.090  1.2880 -1.3106 -0.8688
   52CHL1   C24 3836   6.050   1.457   8.258  0.5712 -0.1117 -0.2157
   52CHL1  H24A 3837   6.018   1.563   8.264  0.2394 -0.2665  0.7589
   52CHL1  H24B 3838   5.964   1.396   8.294  1.9006 -2.5835 -1.0765
   52CHL1   C25 3839   6.166   1.427   8.357 -0.5575 -0.0339 -0.4782
   52CHL1   H25 3840   6.125   1.446   8.458 -2.1335 -0.8542 -0.9355
   52CHL1   C26 3841   6.210   1.284   8.353 -0.9270  0.0749  0.0397
   52CHL1  H26A 3842   6.294   1.276   8.425 -0.1356  2.0942 -0.6161
   52CHL1  H26B 3843   6.136   1.203   8.371  0.9359 -0.8923  3.8339
   52CHL1  H26C 3844   6.252   1.272   8.251 -0.7185 -0.4982  0.1918
   52CHL1   C27 3845   6.280   1.522   8.342 -0.0316 -0.1920 -0.4137
   52CHL1  H27A 3846   6.337   1.487   8.253  1.3734  1.1103 -0.0444
   52CHL1  H27B 3847   6.247   1.628   8.334 -0.1372 -0.2079 -0.2094
   52CHL1  H27C 3848   6.349   1.520   8.429 -1.3895  1.6810  0.7558
   53CHL1    C3 3849   1.040   5.535   6.801 -0.8158 -0.4753  0.6351
   53CHL1    H3 3850   0.979   5.627   6.790  1.6011  1.1334  0.1638
   53CHL1    O3 3851   1.034   5.459   6.680  0.2275 -0.3523  0.4147
   53CHL1   H3' 3852   1.061   5.515   6.607 -0.8535  0.5826  0.7188
   53CHL1    C4 3853   1.197   5.567   6.838  0.8841 -0.2203  0.1041
   53CHL1   H4A 3854   1.265   5.482   6.818 -0.7414 -1.0968 -1.8407
   53CHL1   H4B 3855   1.241   5.635   6.762  1.9054 -0.9828 -0.0082
   53CHL1    C5 3856   1.203   5.631   6.972  0.5358 -0.0528 -0.5132
   53CHL1    C6 3857   1.258   5.755   7.000 -0.1694  0.2574 -0.0383
   53CHL1    H6 3858   1.306   5.800   6.912  1.5865 -0.1160  0.7168
   53CHL1    C7 3859   1.286   5.803   7.146 -0.0869 -0.0077 -0.3068
   53CHL1   H7A 3860   1.393   5.829   7.152  0.4358 -1.9232 -0.8253
   53CHL1   H7B 3861   1.224   5.887   7.184  1.2025  0.0708  1.6651
   53CHL1    C8 3862   1.262   5.690   7.257 -0.4098  0.0205  0.3628
   53CHL1    H8 3863   1.345   5.617   7.245 -0.9889 -0.5944  0.1008
   53CHL1   C14 3864   1.255   5.743   7.396  0.2796 -0.2323  0.0856
   53CHL1   H14 3865   1.158   5.797   7.397  0.0063 -0.7227  0.2161
   53CHL1   C15 3866   1.359   5.848   7.440  0.0618 -0.1828  0.2188
   53CHL1  H15A 3867   1.459   5.810   7.408 -0.8350 -1.1291 -1.4548
   53CHL1  H15B 3868   1.345   5.944   7.386  1.8730  1.4826  2.5473
   53CHL1   C16 3869   1.346   5.859   7.596  0.1496 -1.7553  1.1579
   53CHL1  H16A 3870   1.445   5.849   7.645  0.9650 -1.0166 -0.2992
   53CHL1  H16B 3871   1.304   5.958   7.622 -0.0797 -0.8797 -2.2479
   53CHL1   C17 3872   1.250   5.742   7.639  0.0820 -0.2682  0.4918
   53CHL1   H17 3873   1.156   5.799   7.649  1.0613  1.5193 -0.1858
   53CHL1   C13 3874   1.250   5.644   7.515  0.1659 -0.7840 -0.9996
   53CHL1   C18 3875   1.376   5.556   7.523  0.0245  0.1143  0.1167
   53CHL1  H18A 3876   1.363   5.480   7.603 -1.1161 -0.6998 -0.8194
   53CHL1  H18B 3877   1.387   5.506   7.424 -1.5680  1.9073 -0.9908
   53CHL1  H18C 3878   1.469   5.608   7.553  0.1755 -0.0378 -0.0838
   53CHL1   C12 3879   1.125   5.563   7.493  0.3490 -0.3727 -0.7904
   53CHL1  H12A 3880   1.106   5.477   7.560 -2.5511  0.3901 -0.5395
   53CHL1  H12B 3881   1.040   5.634   7.503 -1.9436 -3.0452 -0.4473
   53CHL1   C11 3882   1.119   5.505   7.346 -0.5523 -0.0333 -0.0333
   53CHL1  H11A 3883   1.202   5.432   7.339  1.5506  2.4559 -1.7598
   53CHL1  H11B 3884   1.020   5.458   7.327 -1.0691  0.4291  1.4952
   53CHL1    C9 3885   1.144   5.606   7.227 -0.5034  0.2455  0.1084
   53CHL1    H9 3886   1.057   5.674   7.223 -0.9314 -0.1932  1.5282
   53CHL1   C10 3887   1.143   5.545   7.085  0.1432  0.4995  0.7508
   53CHL1   C19 3888   1.221   5.406   7.089  0.3205  0.4701  0.1746
   53CHL1  H19A 3889   1.313   5.418   7.150 -0.3662  2.9402  0.7930
   53CHL1  H19B 3890   1.154   5.334   7.142  0.0616  1.6328  1.4700
   53CHL1  H19C 3891   1.233   5.358   6.990  0.1808  2.0136 -0.6094
   53CHL1    C1 3892   0.998   5.513   7.041  0.0964 -0.6426  0.1944
   53CHL1   H1A 3893   0.947   5.455   7.121 -0.6287 -1.9358 -1.1636
   53CHL1   H1B 3894   0.951   5.613   7.036 -0.6974 -1.0094  0.1526
   53CHL1    C2 3895   0.976   5.443   6.906  0.2962  0.0049  0.0997
   53CHL1   H2A 3896   0.869   5.417   6.891  0.8295 -2.6149  0.6091
   53CHL1   H2B 3897   1.037   5.350   6.901 -1.1885 -0.9229 -0.9084
   53CHL1   C20 3898   1.284   5.683   7.780  0.4806  0.2199  0.2713
   53CHL1   H20 3899   1.376   5.621   7.773  1.0473  1.1228 -0.2656
   53CHL1   C21 3900   1.177   5.578   7.826 -0.0906 -0.0517  0.5444
   53CHL1  H21A 3901   1.080   5.627   7.847  0.9946  2.0634  0.7208
   53CHL1  H21B 3902   1.225   5.534   7.916 -0.2995 -0.5312  0.4258
   53CHL1  H21C 3903   1.162   5.497   7.751  2.0071  0.4033 -0.4280
   53CHL1   C22 3904   1.293   5.806   7.881  0.2809 -0.5650 -0.4560
   53CHL1  H22A 3905   1.365   5.886   7.851  0.6516 -0.5210  0.5185
   53CHL1  H22B 3906   1.194   5.847   7.908  1.5222  0.4577  2.8040
   53CHL1   C23 3907   1.362   5.776   8.018 -0.3176 -0.7256 -0.4783
   53CHL1  H23A 3908   1.298   5.701   8.070  0.5807  0.3815  2.3267
   53CHL1  H23B 3909   1.464   5.736   8.005  0.1858  0.6545 -0.7969
   53CHL1   C24 3910   1.360   5.891   8.123 -0.3394  0.3331  0.6682
   53CHL1  H24A 3911   1.413   5.980   8.084 -0.1130 -1.0087 -2.2005
   53CHL1  H24B 3912   1.251   5.915   8.127 -1.2941 -2.7245 -3.4644
   53CHL1   C25 3913   1.428   5.869   8.262  0.8209 -0.6942 -0.6980
   53CHL1   H25 3914   1.538   5.879   8.260  0.9306 -1.5884  0.2798
   53CHL1   C26 3915   1.380   5.983   8.355  0.2389  0.1554 -0.6193
   53CHL1  H26A 3916   1.431   5.984   8.453 -1.0530 -1.8776  0.1285
   53CHL1  H26B 3917   1.391   6.082   8.307 -0.8417  0.7293  0.2940
   53CHL1  H26C 3918   1.270   5.972   8.369 -0.0536  1.4301 -1.7739
   53CHL1   C27 3919   1.389   5.728   8.317  0.2757 -0.4292  0.0674
   53CHL1  H27A 3920   1.435   5.648   8.254 -0.2788 -1.0727  0.4702
   53CHL1  H27B 3921   1.423   5.706   8.420 -1.9403 -0.8412  0.7395
   53CHL1  H27C 3922   1.278   5.726   8.310  0.3086  1.4708 -1.3631
   54CHL1    C3 3923   1.432   0.457   6.938 -0.0547  0.4621  0.5314
   54CHL1    H3 3924   1.331   0.442   6.981 -0.1965  2.2313  0.8423
   54CHL1    O3 3925   1.437   0.480   6.798  0.2514 -0.0915 -0.4584
   54CHL1   H3' 3926   1.523   0.523   6.792 -0.0936  0.5150 -1.0672
   54CHL1    C4 3927   1.488   0.581   7.007  0.3577  0.4900 -0.1320
   54CHL1   H4A 3928   1.588   0.601   6.964  0.1273 -0.1823 -0.9871
   54CHL1   H4B 3929   1.431   0.674   6.986  2.4100  1.5876 -0.9647
   54CHL1    C5 3930   1.500   0.564   7.152  1.0281 -0.6823 -0.8929
   54CHL1    C6 3931   1.437   0.652   7.233  0.6568  0.5448 -0.5418
   54CHL1    H6 3932   1.381   0.740   7.197 -2.4881 -0.8354  0.7850
   54CHL1    C7 3933   1.450   0.650   7.383  0.2835  0.0433 -0.0406
   54CHL1   H7A 3934   1.471   0.752   7.420 -0.1909 -0.3906  1.4500
   54CHL1   H7B 3935   1.352   0.618   7.425 -1.5800  1.8187 -2.8768
   54CHL1    C8 3936   1.562   0.562   7.430 -0.2835  0.7442  0.1150
   54CHL1    H8 3937   1.662   0.609   7.415  0.3264 -0.4724  0.2553
   54CHL1   C14 3938   1.545   0.530   7.578 -0.4151  0.0094 -0.5418
   54CHL1   H14 3939   1.451   0.472   7.587 -0.9110  0.8457 -0.3070
   54CHL1   C15 3940   1.523   0.644   7.675  0.0974 -0.6843  0.2947
   54CHL1  H15A 3941   1.578   0.732   7.636 -0.1101 -0.3640  0.7249
   54CHL1  H15B 3942   1.417   0.678   7.674  0.2211 -0.3124 -1.8017
   54CHL1   C16 3943   1.560   0.596   7.813  0.3450  0.2644 -0.3206
   54CHL1  H16A 3944   1.633   0.662   7.864 -0.6210  0.2331  1.1704
   54CHL1  H16B 3945   1.472   0.593   7.882  0.7122  3.4005  0.3513
   54CHL1   C17 3946   1.616   0.450   7.787  0.6023  0.3412 -0.3468
   54CHL1   H17 3947   1.528   0.383   7.801  1.6741 -0.8523  0.8215
   54CHL1   C13 3948   1.658   0.444   7.637  0.1649  0.2792  0.1436
   54CHL1   C18 3949   1.800   0.505   7.617  0.2647  0.4193 -0.2639
   54CHL1  H18A 3950   1.824   0.517   7.509  1.8362 -1.3911 -0.1211
   54CHL1  H18B 3951   1.809   0.596   7.680 -1.0798 -0.2942  0.9866
   54CHL1  H18C 3952   1.866   0.422   7.649 -0.3535  0.0653  0.1284
   54CHL1   C12 3953   1.644   0.303   7.572 -0.5095 -0.0166  0.3173
   54CHL1  H12A 3954   1.727   0.235   7.602 -0.9027 -0.9824 -0.7234
   54CHL1  H12B 3955   1.553   0.252   7.611 -1.2849  1.0032 -0.1426
   54CHL1   C11 3956   1.659   0.315   7.417  0.4048 -0.2257 -0.3068
   54CHL1  H11A 3957   1.763   0.346   7.393  1.7559 -2.9490  1.8386
   54CHL1  H11B 3958   1.633   0.214   7.380  0.3525  0.3199 -1.7982
   54CHL1    C9 3959   1.559   0.422   7.358 -0.2761  0.5828 -0.2451
   54CHL1    H9 3960   1.459   0.376   7.376 -0.1418 -0.4253 -1.9113
   54CHL1   C10 3961   1.577   0.448   7.207 -0.8211  0.3544  0.1688
   54CHL1   C19 3962   1.726   0.475   7.175  0.2380 -0.0001  0.7158
   54CHL1  H19A 3963   1.739   0.500   7.067 -0.8405 -2.6810 -0.0917
   54CHL1  H19B 3964   1.761   0.565   7.229 -0.4259 -0.3340  1.7168
   54CHL1  H19C 3965   1.794   0.391   7.200  0.0924  0.0842  1.3934
   54CHL1    C1 3966   1.527   0.323   7.125  0.6572  1.0124 -0.3222
   54CHL1   H1A 3967   1.607   0.249   7.143  0.6772  0.6715 -1.7284
   54CHL1   H1B 3968   1.436   0.277   7.170 -0.5464  1.3657 -2.2911
   54CHL1    C2 3969   1.511   0.333   6.972  0.4713  0.1915  0.6391
   54CHL1   H2A 3970   1.465   0.243   6.927  0.7871  0.9075 -1.1479
   54CHL1   H2B 3971   1.611   0.339   6.925 -0.1210 -0.4621 -0.7258
   54CHL1   C20 3972   1.716   0.412   7.894  0.0834  0.0612 -0.1601
   54CHL1   H20 3973   1.799   0.487   7.894 -0.0615  0.2252  0.5681
   54CHL1   C21 3974   1.764   0.267   7.875  0.1118 -0.3603 -0.1826
   54CHL1  H21A 3975   1.802   0.218   7.967 -2.2041  2.0418  2.1270
   54CHL1  H21B 3976   1.828   0.239   7.788 -0.1239  0.7046 -0.7092
   54CHL1  H21C 3977   1.677   0.203   7.850 -0.3477  0.5037 -0.8436
   54CHL1   C22 3978   1.665   0.420   8.045  0.2309 -0.3847 -0.4322
   54CHL1  H22A 3979   1.595   0.507   8.053  1.5096  0.6451 -0.1544
   54CHL1  H22B 3980   1.596   0.335   8.063  0.4171 -0.5293 -0.4034
   54CHL1   C23 3981   1.767   0.410   8.156  0.4837 -0.3075 -0.5646
   54CHL1  H23A 3982   1.816   0.310   8.162 -0.5538 -0.9799 -2.7519
   54CHL1  H23B 3983   1.840   0.493   8.157  0.1896 -0.0302 -1.5431
   54CHL1   C24 3984   1.674   0.435   8.285  0.9106 -0.0460  0.1959
   54CHL1  H24A 3985   1.601   0.518   8.274 -0.2484 -0.9858  0.6408
   54CHL1  H24B 3986   1.606   0.347   8.292 -0.8884  1.3413  0.4846
   54CHL1   C25 3987   1.756   0.452   8.415 -0.5390  0.3130  0.0868
   54CHL1   H25 3988   1.806   0.354   8.419 -0.0045  0.5029 -1.6092
   54CHL1   C26 3989   1.855   0.568   8.436 -0.2873 -0.0495 -0.6553
   54CHL1  H26A 3990   1.800   0.661   8.462 -0.2876 -0.1442 -0.3126
   54CHL1  H26B 3991   1.919   0.537   8.521 -0.7957 -1.8607 -0.9065
   54CHL1  H26C 3992   1.923   0.581   8.349  0.7839  0.2298  0.2277
   54CHL1   C27 3993   1.656   0.449   8.534  0.1517 -0.5448 -0.2434
   54CHL1  H27A 3994   1.701   0.496   8.624 -3.0143  0.7291  0.7543
   54CHL1  H27B 3995   1.565   0.511   8.517 -0.1209 -0.1199  2.5759
   54CHL1  H27C 3996   1.616   0.348   8.554  1.4838 -1.7578 -3.4788
   55CHL1    C3 3997   1.646   2.186   6.897 -0.2012 -0.1609 -0.7851
   55CHL1    H3 3998   1.680   2.081   6.887  1.8734  0.2757  1.3936
   55CHL1    O3 3999   1.601   2.247   6.780 -0.1336  0.3453 -0.2147
   55CHL1   H3' 4000   1.591   2.339   6.805 -1.5306  0.0879  0.1642
   55CHL1    C4 4001   1.524   2.189   6.990 -0.5927 -0.2990  0.9967
   55CHL1   H4A 4002   1.473   2.287   6.979 -0.6769 -0.3786  0.6657
   55CHL1   H4B 4003   1.446   2.127   6.943 -0.4507  1.4298 -1.6163
   55CHL1    C5 4004   1.566   2.147   7.133 -0.5489  0.3043 -0.4413
   55CHL1    C6 4005   1.507   2.041   7.187  0.5589 -0.5131  0.1516
   55CHL1    H6 4006   1.437   1.978   7.132 -0.9495  0.9247  0.3840
   55CHL1    C7 4007   1.529   2.004   7.339 -0.6207 -0.4050  0.3700
   55CHL1   H7A 4008   1.431   1.987   7.387  0.4581 -1.7011  2.1401
   55CHL1   H7B 4009   1.585   1.909   7.348 -1.7174 -1.3188 -2.0349
   55CHL1    C8 4010   1.610   2.115   7.409 -0.2864 -0.3592  0.6393
   55CHL1    H8 4011   1.533   2.191   7.433 -1.6353 -1.0127 -1.4843
   55CHL1   C14 4012   1.657   2.059   7.542  0.3699  0.1961  0.1552
   55CHL1   H14 4013   1.737   1.989   7.510 -0.3797 -0.5999  0.0077
   55CHL1   C15 4014   1.557   1.983   7.622  1.1021 -0.8270 -0.5665
   55CHL1  H15A 4015   1.459   2.034   7.609 -0.4579 -3.8248 -1.0735
   55CHL1  H15B 4016   1.542   1.881   7.579 -2.0963 -0.4809 -0.3755
   55CHL1   C16 4017   1.603   1.989   7.766 -0.0345  0.2589  0.2536
   55CHL1  H16A 4018   1.529   2.044   7.827  0.5433  0.0438  1.1709
   55CHL1  H16B 4019   1.602   1.889   7.815 -2.7262 -0.9513 -2.1772
   55CHL1   C17 4020   1.746   2.061   7.757 -0.0578 -0.3157 -0.5645
   55CHL1   H17 4021   1.821   1.986   7.725 -0.5077 -0.7581 -0.5835
   55CHL1   C13 4022   1.727   2.157   7.638  0.2732  0.2578  0.0821
   55CHL1   C18 4023   1.639   2.280   7.682  0.1429  0.1111 -0.5106
   55CHL1  H18A 4024   1.594   2.328   7.593 -1.0702  1.3170  0.7248
   55CHL1  H18B 4025   1.554   2.248   7.745  0.8412 -1.7009 -0.4463
   55CHL1  H18C 4026   1.709   2.336   7.748 -0.7945  3.0209 -1.9107
   55CHL1   C12 4027   1.854   2.199   7.560  0.2183  0.3232 -0.5100
   55CHL1  H12A 4028   1.916   2.266   7.622  1.5026 -1.0299 -0.3196
   55CHL1  H12B 4029   1.921   2.115   7.532 -1.2664 -0.7823 -0.8582
   55CHL1   C11 4030   1.813   2.263   7.427  0.1288  0.0782 -0.1394
   55CHL1  H11A 4031   1.753   2.354   7.446  0.1934 -0.2169  1.5770
   55CHL1  H11B 4032   1.905   2.292   7.372 -0.9135 -1.7035 -2.9148
   55CHL1    C9 4033   1.728   2.173   7.331  0.4162 -0.2287 -0.2117
   55CHL1    H9 4034   1.788   2.085   7.299 -0.1696  0.4245 -3.2747
   55CHL1   C10 4035   1.684   2.235   7.198 -0.2542 -0.0202 -0.5383
   55CHL1   C19 4036   1.608   2.367   7.220 -1.0156 -0.9713 -0.2670
   55CHL1  H19A 4037   1.511   2.356   7.274 -0.9145  1.2023  0.4038
   55CHL1  H19B 4038   1.665   2.436   7.285 -1.8040  0.2018 -0.8121
   55CHL1  H19C 4039   1.573   2.422   7.130  0.8012 -1.3557 -1.2324
   55CHL1    C1 4040   1.805   2.236   7.094 -0.2291 -0.6471 -0.1906
   55CHL1   H1A 4041   1.895   2.295   7.123  0.3164 -1.1277 -0.8740
   55CHL1   H1B 4042   1.842   2.131   7.092  2.4434  0.2590 -0.4850
   55CHL1    C2 4043   1.770   2.260   6.948 -0.4027  0.7620  0.1300
   55CHL1   H2A 4044   1.849   2.235   6.875 -0.0819 -1.3476  1.1753
   55CHL1   H2B 4045   1.755   2.370   6.945 -1.6824  0.5536 -1.7063
   55CHL1   C20 4046   1.780   2.125   7.895  1.0253  0.8131  0.6635
   55CHL1   H20 4047   1.712   2.210   7.917 -0.8999 -0.9778  1.7788
   55CHL1   C21 4048   1.919   2.193   7.892  0.9537 -0.0401 -0.2009
   55CHL1  H21A 4049   2.001   2.122   7.866  1.4770  0.6118 -0.3549
   55CHL1  H21B 4050   1.929   2.238   7.993 -3.0460  1.9955 -0.6052
   55CHL1  H21C 4051   1.917   2.285   7.831 -1.7936 -0.9478 -1.5397
   55CHL1   C22 4052   1.775   2.021   8.012  0.1089  0.3059  0.4055
   55CHL1  H22A 4053   1.680   1.964   8.006 -0.6001  1.5257 -0.1251
   55CHL1  H22B 4054   1.852   1.943   7.993  0.7341  0.5385  1.9108
   55CHL1   C23 4055   1.797   2.071   8.149  0.1235 -0.1515 -0.1881
   55CHL1  H23A 4056   1.895   2.120   8.165  0.6112 -1.4505  0.9192
   55CHL1  H23B 4057   1.725   2.154   8.167  0.3854 -0.0238  0.2800
   55CHL1   C24 4058   1.770   1.964   8.259  0.3922 -0.1873 -0.3709
   55CHL1  H24A 4059   1.666   1.927   8.247 -0.1277  1.1057  0.0752
   55CHL1  H24B 4060   1.835   1.875   8.245 -2.1529 -1.8463 -1.9461
   55CHL1   C25 4061   1.789   2.020   8.405  0.8138 -0.5419  0.2792
   55CHL1   H25 4062   1.885   2.076   8.396 -0.0438  0.5773 -2.5212
   55CHL1   C26 4063   1.682   2.115   8.448  0.2191 -0.4697  0.3319
   55CHL1  H26A 4064   1.591   2.071   8.495 -1.0604  3.5540  1.8125
   55CHL1  H26B 4065   1.720   2.183   8.527  0.3701 -0.2429  0.0629
   55CHL1  H26C 4066   1.643   2.177   8.364 -0.7942 -1.5572 -0.0149
   55CHL1   C27 4067   1.806   1.903   8.500  0.5514  0.6987 -0.0061
   55CHL1  H27A 4068   1.871   1.825   8.456 -1.0120  0.4818 -2.0077
   55CHL1  H27B 4069   1.856   1.937   8.593  0.3138  1.5841 -0.2006
   55CHL1  H27C 4070   1.709   1.851   8.516  1.0510  0.1564  1.3151
   56CHL1    C3 4071   0.507   0.267   7.026 -0.5321  0.2886 -0.1693
   56CHL1    H3 4072   0.444   0.186   7.069 -1.7125  1.8748  1.1041
   56CHL1    O3 4073   0.489   0.274   6.884 -0.1441 -0.7470  0.1475
   56CHL1   H3' 4074   0.543   0.206   6.844  0.1044 -0.4765  0.0211
   56CHL1    C4 4075   0.455   0.394   7.096 -0.4064 -0.1180 -0.3292
   56CHL1   H4A 4076   0.504   0.484   7.052 -1.1700 -0.6118 -2.2859
   56CHL1   H4B 4077   0.352   0.404   7.056 -0.7295 -1.1268  0.2305
   56CHL1    C5 4078   0.465   0.401   7.243  0.1932 -0.4298 -0.6037
   56CHL1    C6 4079   0.356   0.426   7.319 -1.1811 -0.4982 -0.6087
   56CHL1    H6 4080   0.262   0.436   7.263 -1.4422 -1.4809 -0.3576
   56CHL1    C7 4081   0.358   0.416   7.470  0.0989 -0.1987 -0.9617
   56CHL1   H7A 4082   0.315   0.512   7.505  3.1281  1.4160 -1.4174
   56CHL1   H7B 4083   0.296   0.335   7.512  1.1988 -0.6013 -0.0940
   56CHL1    C8 4084   0.502   0.419   7.528 -0.5513 -0.2317 -1.0879
   56CHL1    H8 4085   0.546   0.519   7.509  0.2353 -0.2532  0.5787
   56CHL1   C14 4086   0.504   0.388   7.677  0.8411  0.9010 -0.2567
   56CHL1   H14 4087   0.461   0.289   7.705  0.3771  0.5157 -2.2289
   56CHL1   C15 4088   0.430   0.479   7.770 -0.1554  0.5118  0.1688
   56CHL1  H15A 4089   0.458   0.581   7.735  0.7466  0.2891  0.2308
   56CHL1  H15B 4090   0.321   0.459   7.769 -0.0100 -0.2791 -0.9695
   56CHL1   C16 4091   0.495   0.470   7.910 -0.3779  0.6299 -0.1542
   56CHL1  H16A 4092   0.532   0.571   7.940 -0.3888  0.5481  0.1400
   56CHL1  H16B 4093   0.424   0.424   7.982  0.1553  0.6806  0.4149
   56CHL1   C17 4094   0.619   0.385   7.890  0.7227 -0.4844 -0.7307
   56CHL1   H17 4095   0.593   0.280   7.916 -0.8067  0.2719  0.8660
   56CHL1   C13 4096   0.647   0.381   7.737  0.3617  0.3159 -0.2583
   56CHL1   C18 4097   0.721   0.511   7.705 -0.4361  0.0020 -0.5652
   56CHL1  H18A 4098   0.826   0.503   7.740  0.2133 -2.9220 -2.9703
   56CHL1  H18B 4099   0.723   0.530   7.596 -0.0528  0.2062 -0.5240
   56CHL1  H18C 4100   0.668   0.601   7.744 -1.7041 -0.2670 -1.6136
   56CHL1   C12 4101   0.710   0.251   7.676 -0.5232  0.4386 -0.5439
   56CHL1  H12A 4102   0.811   0.231   7.718 -0.1933  1.5089 -0.7836
   56CHL1  H12B 4103   0.643   0.164   7.687  1.4967 -1.2456 -1.1188
   56CHL1   C11 4104   0.716   0.266   7.522  0.3626  0.3529 -0.0440
   56CHL1  H11A 4105   0.798   0.334   7.492 -0.6344  2.1425  1.1809
   56CHL1  H11B 4106   0.729   0.163   7.481 -0.0688 -1.0445  3.1723
   56CHL1    C9 4107   0.583   0.314   7.448  0.9914  0.3912  0.2104
   56CHL1    H9 4108   0.523   0.221   7.444  1.1895  0.2592  0.2772
   56CHL1   C10 4109   0.602   0.361   7.299 -0.5801 -0.2469  0.3443
   56CHL1   C19 4110   0.685   0.490   7.289 -0.0661  0.7281  0.0993
   56CHL1  H19A 4111   0.788   0.493   7.331  0.8544  2.1530 -2.1761
   56CHL1  H19B 4112   0.692   0.512   7.181  2.6622  1.2259  0.3283
   56CHL1  H19C 4113   0.636   0.580   7.333  2.1743  1.3877  1.3408
   56CHL1    C1 4114   0.664   0.242   7.220  0.4997  0.8455  0.2063
   56CHL1   H1A 4115   0.768   0.221   7.253  0.3011  0.2190  0.4435
   56CHL1   H1B 4116   0.607   0.151   7.248 -1.3047  1.5395 -1.1196
   56CHL1    C2 4117   0.656   0.248   7.065  0.3509 -0.0834  0.3415
   56CHL1   H2A 4118   0.680   0.143   7.040  0.9685  0.1028  0.1425
   56CHL1   H2B 4119   0.718   0.327   7.018  1.6420 -1.1018  0.3026
   56CHL1   C20 4120   0.734   0.434   7.986  0.6311 -0.3121 -0.7979
   56CHL1   H20 4121   0.765   0.540   7.968  1.0937  0.1574  2.4288
   56CHL1   C21 4122   0.851   0.333   7.979 -0.6254  0.1356  0.0161
   56CHL1  H21A 4123   0.815   0.234   8.015  1.1052 -0.5276 -0.0224
   56CHL1  H21B 4124   0.935   0.372   8.040 -1.6788 -0.7205  2.0839
   56CHL1  H21C 4125   0.892   0.318   7.877  2.7760 -1.2871  1.5022
   56CHL1   C22 4126   0.685   0.448   8.132 -0.3622  0.3129 -0.4547
   56CHL1  H22A 4127   0.769   0.489   8.192  2.0713 -1.2930 -2.6048
   56CHL1  H22B 4128   0.597   0.513   8.151 -2.7409 -3.7374  3.3516
   56CHL1   C23 4129   0.651   0.308   8.207  0.2257  0.2784 -0.2875
   56CHL1  H23A 4130   0.603   0.247   8.127 -0.4522  4.1515 -2.9987
   56CHL1  H23B 4131   0.746   0.259   8.237  1.7698  1.7543 -2.6368
   56CHL1   C24 4132   0.569   0.333   8.337  0.2458 -0.7619  0.5151
   56CHL1  H24A 4133   0.490   0.407   8.311 -0.0366 -0.4942  2.0896
   56CHL1  H24B 4134   0.516   0.238   8.358 -1.9292 -0.0474 -1.4530
   56CHL1   C25 4135   0.644   0.389   8.449  0.8399 -0.2833  0.3299
   56CHL1   H25 4136   0.718   0.468   8.423  2.1941 -1.6279  0.0606
   56CHL1   C26 4137   0.551   0.470   8.538 -0.9329  0.8194 -0.4908
   56CHL1  H26A 4138   0.608   0.528   8.614 -0.3365  0.8765 -0.9754
   56CHL1  H26B 4139   0.480   0.403   8.591 -2.0005  3.0870  1.0265
   56CHL1  H26C 4140   0.507   0.548   8.472  0.0395  2.1409  0.4008
   56CHL1   C27 4141   0.721   0.287   8.535  0.0775  0.3628  0.1038
   56CHL1  H27A 4142   0.761   0.339   8.625 -0.6439 -0.0388  0.6695
   56CHL1  H27B 4143   0.659   0.199   8.564 -0.9275  1.3905  1.1424
   56CHL1  H27C 4144   0.801   0.252   8.467  0.8507 -0.0200  1.1990
   57SAPC     N 4145   2.029   3.912  10.779 -0.0040  0.1507  0.6283
   57SAPC   C12 4146   2.173   3.885  10.722 -0.2586 -0.2347 -0.0917
   57SAPC  H12A 4147   2.238   3.842  10.796  0.9039  2.6561  0.6391
   57SAPC  H12B 4148   2.212   3.981  10.691  0.6845  0.6126  3.4490
   57SAPC   C13 4149   1.988   3.800  10.861 -1.2803 -0.9091 -0.0376
   57SAPC  H13A 4150   1.989   3.709  10.803  1.0127  0.2744 -1.9672
   57SAPC  H13B 4151   2.062   3.784  10.938 -1.2052 -0.5537 -0.0333
   57SAPC  H13C 4152   1.892   3.806  10.910 -0.8599  0.7805  0.6178
   57SAPC   C14 4153   2.024   4.039  10.860 -0.2475 -0.3118  0.0054
   57SAPC  H14A 4154   2.050   4.124  10.798 -2.4157  1.1109  0.9931
   57SAPC  H14B 4155   1.929   4.049  10.910 -0.8139  2.4679 -1.5346
   57SAPC  H14C 4156   2.104   4.039  10.932 -0.5804  0.2333  0.3734
   57SAPC   C15 4157   1.942   3.931  10.663 -0.1022  0.3157 -0.1568
   57SAPC  H15A 4158   1.844   3.971  10.682 -0.6156 -1.4459  0.9810
   57SAPC  H15B 4159   1.974   4.013  10.601 -1.2175  1.3143  0.5644
   57SAPC  H15C 4160   1.923   3.841  10.606 -0.2512 -0.3212  0.8870
   57SAPC   C11 4161   2.183   3.783  10.607 -0.1623  0.2557  0.4061
   57SAPC  H11A 4162   2.284   3.798  10.565 -0.2229  3.8090  1.3957
   57SAPC  H11B 4163   2.110   3.803  10.525  2.7807  2.0114 -1.8865
   57SAPC     P 4164   2.071   3.538  10.627 -0.3349  0.0779 -0.2424
   57SAPC   O13 4165   2.159   3.417  10.597 -0.0353 -0.9243  0.2309
   57SAPC   O14 4166   1.969   3.525  10.732  0.0625  0.0433  0.4025
   57SAPC   O12 4167   2.169   3.652  10.660  0.6080  0.4019 -0.2423
   57SAPC   O11 4168   1.999   3.594  10.491  0.6392  0.1711 -0.4702
   57SAPC    C1 4169   1.913   3.506  10.416 -0.6422 -0.3456  0.1060
   57SAPC    HA 4170   1.882   3.415  10.473 -0.3901 -0.1808  0.5072
   57SAPC    HB 4171   1.830   3.560  10.368 -0.5083 -0.5422 -0.3501
   57SAPC    C2 4172   1.997   3.451  10.302 -0.5629  0.8314 -0.2627
   57SAPC    HS 4173   2.078   3.394  10.352 -0.0857  0.7945 -1.0762
   57SAPC   O21 4174   2.047   3.558  10.219  0.1449 -0.0678 -0.2409
   57SAPC   C21 4175   2.174   3.561  10.196 -0.3734  0.1192 -0.0649
   57SAPC   O22 4176   2.262   3.498  10.242 -0.2966 -0.2494 -0.0196
   57SAPC   C22 4177   2.195   3.671  10.091 -0.4049  0.4372  0.0290
   57SAPC   H2R 4178   2.096   3.719  10.075 -1.1801 -0.7657  1.1448
   57SAPC   H2S 4179   2.274   3.738  10.132  1.4000 -1.5369 -0.1536
   57SAPC    C3 4180   1.923   3.348  10.215 -0.1767  0.6899 -0.0995
   57SAPC    HX 4181   1.843   3.392  10.150 -0.3492 -2.1328 -1.9033
   57SAPC    HY 4182   1.871   3.285  10.290  2.1843 -0.9274  0.2354
   57SAPC   O31 4183   2.013   3.271  10.135  0.2848  0.5901  0.1886
   57SAPC   C31 4184   1.969   3.160  10.069 -0.1796  0.2117  0.0726
   57SAPC   O32 4185   1.855   3.115  10.073  0.2209  0.7957  0.0646
   57SAPC   C32 4186   2.087   3.092  10.001 -0.1639 -0.5196  0.2969
   57SAPC   H2X 4187   2.160   3.063  10.080 -0.6869 -1.1713  0.5468
   57SAPC   H2Y 4188   2.120   3.166   9.925 -3.0414 -1.6611 -2.1711
   57SAPC   C23 4189   2.249   3.595   9.960  0.0455  0.3716 -0.1528
   57SAPC   H3R 4190   2.327   3.527  10.000 -0.5174 -0.5705 -0.6472
   57SAPC   H3S 4191   2.289   3.665   9.883  0.4882  0.2714 -0.0148
   57SAPC   C24 4192   2.121   3.526   9.901  0.0210 -0.7143  0.2569
   57SAPC   H4R 4193   2.055   3.479   9.977 -1.0855 -1.3292 -1.0610
   57SAPC   H4S 4194   2.158   3.444   9.837  0.9798  1.3680 -1.9550
   57SAPC   C25 4195   2.038   3.616   9.820  0.0925 -0.2122  0.0474
   57SAPC   H5R 4196   2.000   3.705   9.871 -0.1657  0.0291 -0.5601
   57SAPC   C26 4197   2.003   3.599   9.692 -0.0802  0.9686  0.4468
   57SAPC   H6R 4198   1.936   3.672   9.645  0.5322  2.1798  1.4296
   57SAPC   C27 4199   2.051   3.486   9.602 -0.5065 -0.1645  0.8078
   57SAPC   H7R 4200   1.988   3.396   9.617 -0.7620 -0.1939 -0.3792
   57SAPC   H7S 4201   2.150   3.440   9.622 -0.9157 -1.9331 -1.0663
   57SAPC   C28 4202   2.060   3.535   9.457  0.4986  0.0240  0.1269
   57SAPC   H8R 4203   2.049   3.644   9.445  2.1505  0.0805 -1.1012
   57SAPC   C29 4204   2.051   3.459   9.345 -0.4819 -0.0439  0.1097
   57SAPC   H9R 4205   2.061   3.505   9.246  0.8197 -0.5294  0.0010
   57SAPC  C210 4206   2.045   3.307   9.341  0.6432  0.1316 -0.0598
   57SAPC  H10R 4207   1.937   3.290   9.321  0.6068 -0.7132  0.8382
   57SAPC  H10S 4208   2.070   3.266   9.441 -3.8373 -3.2484 -0.1951
   57SAPC  C211 4209   2.128   3.224   9.238  0.0162 -0.3604  0.4653
   57SAPC  H11R 4210   2.217   3.168   9.269  0.5751 -0.1231 -0.6721
   57SAPC  C212 4211   2.090   3.212   9.109  0.0730  0.9823  0.5791
   57SAPC  H12R 4212   2.155   3.159   9.038  0.2970 -1.0479  2.2591
   57SAPC  C213 4213   1.966   3.267   9.043 -0.4783 -0.0692  0.4522
   57SAPC  H13R 4214   1.879   3.264   9.111  0.3759 -0.7402  1.5239
   57SAPC  H13S 4215   1.941   3.183   8.975 -0.3062 -0.5613  0.9985
   57SAPC  C214 4216   1.976   3.400   8.976 -1.3609 -1.0369  0.5006
   57SAPC  H14R 4217   1.939   3.484   9.037  1.8647 -0.3315  1.5590
   57SAPC  C215 4218   2.023   3.430   8.852 -0.5496 -0.3846 -0.0979
   57SAPC  H15R 4219   2.000   3.529   8.810 -2.1234 -1.0051 -0.7259
   57SAPC  C216 4220   2.081   3.340   8.747  0.3235  0.6185  0.4648
   57SAPC  H16R 4221   2.092   3.235   8.783 -0.6789  0.2891 -0.1585
   57SAPC  H16S 4222   2.181   3.367   8.706 -0.6724 -0.1892 -2.6242
   57SAPC  C217 4223   1.992   3.321   8.611  0.2016 -0.2825  0.8731
   57SAPC  H17R 4224   2.056   3.267   8.538  0.8406  0.4065  0.9158
   57SAPC  H17S 4225   1.969   3.426   8.584  1.3146 -0.5241 -1.1381
   57SAPC  C218 4226   1.868   3.230   8.631 -0.2141  0.6718 -0.5177
   57SAPC  H18R 4227   1.819   3.268   8.723  1.6646 -0.0231  0.7959
   57SAPC  H18S 4228   1.894   3.131   8.675 -0.2927  1.2447  0.8564
   57SAPC  C219 4229   1.776   3.221   8.510  0.4418 -0.1984 -0.0793
   57SAPC  H19R 4230   1.835   3.181   8.425 -0.4289 -0.2719 -0.6487
   57SAPC  H19S 4231   1.733   3.317   8.475 -1.7958 -1.6315 -1.4075
   57SAPC  C220 4232   1.652   3.133   8.536  0.3000 -0.3681 -0.3113
   57SAPC  H20R 4233   1.701   3.038   8.566  0.2278 -0.9334 -1.9156
   57SAPC  H20S 4234   1.583   3.128   8.448  1.2016  1.8141 -1.1835
   57SAPC  H20T 4235   1.596   3.168   8.625 -0.3858 -1.1459 -0.4288
   57SAPC   C33 4236   2.048   2.962   9.920 -0.2091  0.3232  0.2953
   57SAPC   H3X 4237   1.971   2.998   9.848 -1.4164 -0.4267  1.1875
   57SAPC   H3Y 4238   1.996   2.882   9.978 -0.8469 -0.1633 -0.9273
   57SAPC   C34 4239   2.165   2.893   9.844  0.6758  0.3709  0.2911
   57SAPC   H4X 4240   2.210   2.833   9.926  0.0106  0.6915  0.9016
   57SAPC   H4Y 4241   2.239   2.970   9.814 -1.8884  3.0248  0.5607
   57SAPC   C35 4242   2.121   2.799   9.732 -0.2033 -0.9550 -0.7295
   57SAPC   H5X 4243   2.024   2.749   9.753  0.2142 -1.0932  0.9368
   57SAPC   H5Y 4244   2.192   2.713   9.724  0.6230 -0.2911 -0.5592
   57SAPC   C36 4245   2.112   2.871   9.593 -0.0673  0.8965  0.4060
   57SAPC   H6X 4246   2.205   2.929   9.576  0.1768  0.2514 -0.4675
   57SAPC   H6Y 4247   2.018   2.931   9.589  0.1693  1.2206 -0.4796
   57SAPC   C37 4248   2.097   2.762   9.490 -0.6412 -0.2498 -0.3685
   57SAPC   H7X 4249   2.009   2.695   9.505 -0.2781 -1.1064 -1.9785
   57SAPC   H7Y 4250   2.180   2.688   9.497  0.6104  0.9839 -1.8805
   57SAPC   C38 4251   2.100   2.808   9.347  0.1426  0.1901  0.2169
   57SAPC   H8X 4252   2.188   2.872   9.323  0.1903 -0.0313 -0.1972
   57SAPC   H8Y 4253   2.013   2.876   9.336 -2.2032 -2.4199  1.8172
   57SAPC   C39 4254   2.083   2.694   9.240 -0.0037 -1.5164  0.3165
   57SAPC   H9X 4255   2.006   2.625   9.280 -0.2923 -1.2722  0.1839
   57SAPC   H9Y 4256   2.175   2.632   9.237  1.1484  0.0379  2.3928
   57SAPC  C310 4257   2.024   2.747   9.109 -0.1677  0.7342  0.2763
   57SAPC  H10X 4258   1.933   2.809   9.124  0.1635  0.9184  1.5957
   57SAPC  H10Y 4259   2.000   2.650   9.060  1.0152  1.3225 -1.4993
   57SAPC  C311 4260   2.118   2.821   9.008 -0.1323  0.2151 -0.4069
   57SAPC  H11X 4261   2.204   2.757   8.979  1.2663  1.9345 -0.1879
   57SAPC  H11Y 4262   2.155   2.914   9.056 -1.8952  0.5897  0.2583
   57SAPC  C312 4263   2.050   2.874   8.885  0.5099  0.7847 -0.0713
   57SAPC  H12X 4264   2.132   2.893   8.813  0.4721  1.2767  0.0137
   57SAPC  H12Y 4265   2.004   2.970   8.918 -0.9381  0.0533  0.0693
   57SAPC  C313 4266   1.937   2.784   8.818  0.1828  0.7651  0.7509
   57SAPC  H13X 4267   1.850   2.792   8.887  0.2782  1.3145  0.8166
   57SAPC  H13Y 4268   1.971   2.680   8.837 -0.1198  0.5274 -0.0223
   57SAPC  C314 4269   1.905   2.822   8.674 -0.1095 -0.3588 -0.6697
   57SAPC  H14X 4270   1.981   2.783   8.602  0.5491  2.3273 -1.5103
   57SAPC  H14Y 4271   1.899   2.932   8.661  1.3539 -0.5433 -3.4158
   57SAPC  C315 4272   1.769   2.759   8.630 -0.4778 -0.2522 -0.1946
   57SAPC  H15X 4273   1.742   2.775   8.523  2.7464  1.5532 -0.8190
   57SAPC  H15Y 4274   1.688   2.799   8.693 -0.1436 -1.0542  0.7594
   57SAPC  C316 4275   1.776   2.607   8.640 -0.3558 -0.6458  0.2561
   57SAPC  H16X 4276   1.763   2.562   8.740 -1.7888  0.1283  0.4381
   57SAPC  H16Y 4277   1.877   2.584   8.600 -0.6633 -0.3219 -0.7348
   57SAPC  C317 4278   1.683   2.540   8.543 -0.2389  0.1098  0.5715
   57SAPC  H17X 4279   1.717   2.436   8.527  1.3498  0.7533 -0.3167
   57SAPC  H17Y 4280   1.690   2.592   8.445  2.9164 -0.0238  0.6711
   57SAPC  C318 4281   1.539   2.531   8.591 -0.2429 -0.3459  0.0690
   57SAPC  H18X 4282   1.526   2.588   8.685  0.1761  1.1853 -0.7902
   57SAPC  H18Y 4283   1.512   2.424   8.599  2.3452 -1.2180 -1.8145
   57SAPC  H18Z 4284   1.473   2.585   8.520  1.1680  0.5505 -0.5734
   58SAPC     N 4285   4.041   1.230  10.563  0.0906  0.5674  0.6736
   58SAPC   C12 4286   4.033   1.105  10.659 -0.0259 -0.5048 -0.2624
   58SAPC  H12A 4287   4.025   1.139  10.761  2.2436 -1.1581  0.1742
   58SAPC  H12B 4288   4.117   1.037  10.657  0.4441  0.0970 -2.2474
   58SAPC   C13 4289   4.046   1.183  10.420  0.5345 -0.6010  0.1581
   58SAPC  H13A 4290   4.039   1.262  10.346 -1.0318 -0.1518  0.7431
   58SAPC  H13B 4291   4.129   1.117  10.403  1.0492  0.2725 -0.7772
   58SAPC  H13C 4292   3.960   1.122  10.397  1.3852 -0.8391 -2.5932
   58SAPC   C14 4293   3.926   1.320  10.591  0.1353  0.8259  0.5117
   58SAPC  H14A 4294   3.923   1.398  10.516  0.5135 -0.7726 -1.1953
   58SAPC  H14B 4295   3.835   1.267  10.566  0.6065 -0.3656  1.2872
   58SAPC  H14C 4296   3.912   1.355  10.692  1.0752  0.9117  0.6179
   58SAPC   C15 4297   4.178   1.294  10.593  0.4028  0.0581  0.0212
   58SAPC  H15A 4298   4.201   1.316  10.696  0.3082 -0.6531  0.1915
   58SAPC  H15B 4299   4.250   1.219  10.564  0.5426  0.4082 -0.5557
   58SAPC  H15C 4300   4.194   1.387  10.540  1.9171  0.0187  0.3699
   58SAPC   C11 4301   3.900   1.024  10.631  0.1693  0.8232 -0.5115
   58SAPC  H11A 4302   3.927   0.925  10.674 -0.6982  1.1380  0.7850
   58SAPC  H11B 4303   3.890   0.997  10.524  0.2892 -0.9240 -0.1081
   58SAPC     P 4304   3.668   0.990  10.739 -0.0566  0.3512  0.1969
   58SAPC   O13 4305   3.728   0.878  10.807  0.4535  0.5367  0.1437
   58SAPC   O14 4306   3.572   1.076  10.823  0.4162  0.0233  0.6642
   58SAPC   O12 4307   3.786   1.079  10.692 -0.4032 -0.6062  0.0951
   58SAPC   O11 4308   3.602   0.947  10.601 -0.1169  0.3437  0.5199
   58SAPC    C1 4309   3.533   1.029  10.507 -0.1974 -0.9253 -1.1343
   58SAPC    HA 4310   3.432   0.991  10.481 -0.6730 -1.3163  1.2406
   58SAPC    HB 4311   3.519   1.131  10.550  2.4723 -0.6681 -0.7714
   58SAPC    C2 4312   3.616   1.050  10.383 -0.1536 -0.2674  0.5728
   58SAPC    HS 4313   3.712   1.095  10.416  0.4491 -0.9554 -0.2131
   58SAPC   O21 4314   3.549   1.139  10.292 -1.0130  0.2790  0.0165
   58SAPC   C21 4315   3.631   1.220  10.231 -0.0843  0.1451  0.3628
   58SAPC   O22 4316   3.751   1.216  10.241 -0.1754  0.0654  0.7610
   58SAPC   C22 4317   3.551   1.328  10.156 -0.5091  0.3187  0.0711
   58SAPC   H2R 4318   3.462   1.277  10.113 -1.2266  1.7238 -0.1554
   58SAPC   H2S 4319   3.501   1.394  10.230 -1.7518  0.1122 -0.5767
   58SAPC    C3 4320   3.647   0.917  10.312  0.0615 -0.1486  0.6735
   58SAPC    HX 4321   3.558   0.859  10.280  0.3180  0.5973 -1.5260
   58SAPC    HY 4322   3.704   0.858  10.387 -0.0236  0.6269  1.3481
   58SAPC   O31 4323   3.732   0.933  10.197  0.2767  0.4170 -0.0899
   58SAPC   C31 4324   3.865   0.926  10.216 -0.1598  0.0588  0.3597
   58SAPC   O32 4325   3.928   0.893  10.316  0.0239 -0.5812 -0.1126
   58SAPC   C32 4326   3.934   0.963  10.095 -0.4007 -0.2650 -0.4397
   58SAPC   H2X 4327   3.920   1.072  10.077 -2.2894  0.2109  3.3368
   58SAPC   H2Y 4328   3.893   0.899  10.015 -0.4248 -0.9228  0.0984
   58SAPC   C23 4329   3.627   1.417  10.062 -0.2251 -0.1334 -0.1227
   58SAPC   H3R 4330   3.701   1.354  10.008  0.1700 -1.4888  1.9553
   58SAPC   H3S 4331   3.688   1.486  10.123 -0.5221  0.1199 -0.1065
   58SAPC   C24 4332   3.549   1.503   9.957  0.1456 -0.2844  0.8341
   58SAPC   H4R 4333   3.620   1.581   9.922  2.3286 -1.5720  2.2853
   58SAPC   H4S 4334   3.465   1.560  10.003 -0.9653 -0.7292 -0.6418
   58SAPC   C25 4335   3.503   1.414   9.845  0.1113  0.3325  0.4364
   58SAPC   H5R 4336   3.471   1.312   9.873 -3.1943  2.1570  3.8781
   58SAPC   C26 4337   3.502   1.451   9.711 -0.4748 -0.8042  0.0381
   58SAPC   H6R 4338   3.447   1.394   9.635 -1.3707  0.0836  0.0225
   58SAPC   C27 4339   3.536   1.582   9.657  0.4039 -0.2451  0.3295
   58SAPC   H7R 4340   3.547   1.650   9.744 -1.4136 -2.2724  2.2219
   58SAPC   H7S 4341   3.441   1.620   9.613  1.8494 -0.4921 -3.1384
   58SAPC   C28 4342   3.653   1.587   9.560 -0.2898 -0.4644 -0.5980
   58SAPC   H8R 4343   3.746   1.533   9.585 -0.6481 -0.7988  0.0400
   58SAPC   C29 4344   3.657   1.655   9.445 -0.3309 -0.9743  0.9346
   58SAPC   H9R 4345   3.752   1.656   9.389 -0.1643 -0.4403  1.2232
   58SAPC  C210 4346   3.556   1.734   9.376  0.2316 -0.4360  0.7380
   58SAPC  H10R 4347   3.593   1.837   9.360  0.8699 -0.7866 -0.0804
   58SAPC  H10S 4348   3.472   1.762   9.444 -0.5105  1.7146 -0.9923
   58SAPC  C211 4349   3.516   1.672   9.242 -0.2385 -0.2461 -0.4951
   58SAPC  H11R 4350   3.446   1.588   9.247  0.1838 -0.6173 -0.7814
   58SAPC  C212 4351   3.589   1.696   9.125  0.0916 -0.3165  0.6315
   58SAPC  H12R 4352   3.567   1.646   9.030  2.8572  0.2464 -0.3332
   58SAPC  C213 4353   3.713   1.784   9.113  0.0997 -0.1169 -0.1698
   58SAPC  H13R 4354   3.766   1.780   9.210  2.0057  1.8246 -1.0831
   58SAPC  H13S 4355   3.687   1.892   9.111 -2.1469 -0.6486 -3.3261
   58SAPC  C214 4356   3.809   1.746   8.997 -0.2618  0.7655  0.0654
   58SAPC  H14R 4357   3.808   1.637   8.984 -1.0579  0.7702  0.1101
   58SAPC  C215 4358   3.886   1.825   8.918 -0.0265  0.1813  0.0655
   58SAPC  H15R 4359   3.958   1.782   8.848 -0.3423 -0.2026 -0.0275
   58SAPC  C216 4360   3.893   1.972   8.932  0.0154  0.3870 -0.5720
   58SAPC  H16R 4361   3.992   2.004   8.969  0.4353 -0.4548 -0.9617
   58SAPC  H16S 4362   3.830   2.008   9.016 -1.9681 -1.2115 -1.3364
   58SAPC  C217 4363   3.851   2.044   8.804  0.0150  0.2440 -0.3020
   58SAPC  H17R 4364   3.862   2.150   8.836  1.3987 -0.0445  0.1996
   58SAPC  H17S 4365   3.744   2.023   8.782  0.1366  0.0023 -0.6675
   58SAPC  C218 4366   3.944   2.032   8.682 -0.2673 -0.7249 -0.4750
   58SAPC  H18R 4367   3.925   1.939   8.625  0.2285  0.8830 -3.3746
   58SAPC  H18S 4368   4.051   2.037   8.713  0.2879 -1.0074 -2.2491
   58SAPC  C219 4369   3.901   2.137   8.573 -0.1195 -0.1610  0.5696
   58SAPC  H19R 4370   3.805   2.173   8.616  0.8285  1.4551  1.3896
   58SAPC  H19S 4371   3.893   2.091   8.473 -0.7216 -1.3031  1.1276
   58SAPC  C220 4372   4.013   2.246   8.553  0.2782 -0.3078  0.4420
   58SAPC  H20R 4373   4.022   2.308   8.645 -0.5987 -0.3038  0.5360
   58SAPC  H20S 4374   3.987   2.317   8.472  1.7033 -0.4700 -0.1667
   58SAPC  H20T 4375   4.113   2.199   8.541  0.6530  0.2781  1.2656
   58SAPC   C33 4376   4.086   0.941  10.101 -0.2569 -0.2832 -0.2590
   58SAPC   H3X 4377   4.098   0.835  10.130  0.8984  0.4281  1.9951
   58SAPC   H3Y 4378   4.130   1.006  10.180  0.2198 -0.4060 -0.4233
   58SAPC   C34 4379   4.151   0.974   9.970 -0.3771 -0.0216  0.3128
   58SAPC   H4X 4380   4.254   0.931   9.971 -0.8875 -1.3030 -1.3456
   58SAPC   H4Y 4381   4.157   1.085   9.956  1.6385  0.1124  1.9015
   58SAPC   C35 4382   4.069   0.923   9.848 -0.5568 -0.1797  0.1329
   58SAPC   H5X 4383   3.977   0.983   9.836  0.5407  1.1766 -1.9520
   58SAPC   H5Y 4384   4.057   0.813   9.853  1.6997 -0.4145  1.4960
   58SAPC   C36 4385   4.132   0.948   9.702 -0.2346 -0.1397 -0.5143
   58SAPC   H6X 4386   4.239   0.918   9.708  0.3964  1.8782 -1.2491
   58SAPC   H6Y 4387   4.124   1.057   9.681  0.2915 -0.4857 -2.6117
   58SAPC   C37 4388   4.071   0.865   9.582  0.2014 -0.5886 -0.2618
   58SAPC   H7X 4389   3.963   0.861   9.609  0.0144  0.5792 -0.8000
   58SAPC   H7Y 4390   4.119   0.765   9.588 -0.2808 -0.9347 -1.9031
   58SAPC   C38 4391   4.097   0.920   9.438 -0.2365 -0.7050  0.7950
   58SAPC   H8X 4392   4.207   0.924   9.422 -0.5054 -2.1268 -1.6685
   58SAPC   H8Y 4393   4.055   1.023   9.438 -0.6919 -0.8916  1.0030
   58SAPC   C39 4394   4.025   0.849   9.327 -0.4066 -0.0856 -0.1083
   58SAPC   H9X 4395   3.918   0.837   9.352 -0.8631 -0.3705 -2.1177
   58SAPC   H9Y 4396   4.080   0.753   9.317  1.8912  1.2333 -0.6978
   58SAPC  C310 4397   4.038   0.927   9.193  0.8655  0.6174  0.4303
   58SAPC  H10X 4398   4.144   0.931   9.158  0.4691  1.8310 -0.7073
   58SAPC  H10Y 4399   4.017   1.036   9.207 -1.0680  0.1006  1.7243
   58SAPC  C311 4400   3.943   0.861   9.093  0.2577 -0.1366 -0.8303
   58SAPC  H11X 4401   3.849   0.855   9.153  1.0175  0.5974  0.4688
   58SAPC  H11Y 4402   3.972   0.754   9.078 -0.5121 -0.6956  1.3882
   58SAPC  C312 4403   3.928   0.917   8.956 -0.7426  0.0792 -0.5950
   58SAPC  H12X 4404   4.023   0.917   8.897 -1.6671  1.3165 -2.1440
   58SAPC  H12Y 4405   3.902   1.025   8.964 -0.5155  0.1761 -1.0718
   58SAPC  C313 4406   3.823   0.841   8.873 -0.2221  0.0306 -0.0325
   58SAPC  H13X 4407   3.734   0.813   8.933 -0.3372 -0.7594 -0.5654
   58SAPC  H13Y 4408   3.874   0.753   8.829 -3.2926 -2.3041  0.8947
   58SAPC  C314 4409   3.778   0.933   8.759 -0.3172 -0.1623  0.1102
   58SAPC  H14X 4410   3.844   0.921   8.671 -2.4381 -2.0389 -1.2667
   58SAPC  H14Y 4411   3.783   1.036   8.800 -3.1308 -0.6009  1.6339
   58SAPC  C315 4412   3.639   0.896   8.710  0.2925  0.5294  0.2347
   58SAPC  H15X 4413   3.568   0.881   8.794 -0.0769  0.4826 -0.0850
   58SAPC  H15Y 4414   3.639   0.795   8.664  0.0470  1.4495 -1.8248
   58SAPC  C316 4415   3.578   0.995   8.613 -0.3067 -0.3373 -1.0279
   58SAPC  H16X 4416   3.664   1.039   8.559  0.0769 -1.0390 -0.9938
   58SAPC  H16Y 4417   3.511   1.064   8.669 -0.0430 -0.0617 -1.0526
   58SAPC  C317 4418   3.498   0.932   8.504  0.6164 -0.6745 -0.3769
   58SAPC  H17X 4419   3.530   0.827   8.491  1.5014 -0.4974  0.3219
   58SAPC  H17Y 4420   3.516   0.971   8.401  0.3154  2.7502  0.7978
   58SAPC  C318 4421   3.347   0.931   8.538  0.0014 -0.2692  0.3151
   58SAPC  H18X 4422   3.298   0.872   8.458 -0.5804  0.7385 -0.0742
   58SAPC  H18Y 4423   3.319   1.037   8.521 -0.9463 -0.1837  2.2470
   58SAPC  H18Z 4424   3.325   0.902   8.643 -0.3328  0.7504  0.5317
   59SAPC     N 4425   5.121   3.275  11.189 -0.5964 -0.0401 -0.2016
   59SAPC   C12 4426   5.268   3.290  11.164  0.4179  0.3320 -0.3213
   59SAPC  H12A 4427   5.324   3.272  11.255 -0.2311  2.4699  0.5594
   59SAPC  H12B 4428   5.288   3.395  11.148 -1.4503  0.8478  0.5513
   59SAPC   C13 4429   5.080   3.365  11.301  0.2310  0.3943 -0.5055
   59SAPC  H13A 4430   5.158   3.368  11.375  0.3117 -0.2094 -0.5635
   59SAPC  H13B 4431   5.062   3.461  11.255  0.8530  0.5869 -0.3410
   59SAPC  H13C 4432   4.981   3.341  11.336 -0.0135  0.5955 -1.0515
   59SAPC   C14 4433   5.042   3.294  11.069  0.4837 -0.0927 -0.0557
   59SAPC  H14A 4434   4.936   3.285  11.092 -1.2233  4.2921 -5.1932
   59SAPC  H14B 4435   5.053   3.395  11.033 -2.0964  0.8460  1.6244
   59SAPC  H14C 4436   5.063   3.216  10.996  2.1129 -0.9451  1.2883
   59SAPC   C15 4437   5.090   3.140  11.245  0.2574 -0.0319  0.3866
   59SAPC  H15A 4438   5.126   3.136  11.346  0.0695 -0.5477  0.4337
   59SAPC  H15B 4439   4.985   3.117  11.241  0.5903 -1.4484 -1.5429
   59SAPC  H15C 4440   5.141   3.062  11.189  1.6030 -0.8572  2.7020
   59SAPC   C11 4441   5.331   3.214  11.044  0.3609  0.0464  0.0834
   59SAPC  H11A 4442   5.440   3.232  11.032  0.3858  0.1923  0.5369
   59SAPC  H11B 4443   5.289   3.242  10.945 -1.3726 -0.9973  0.4973
   59SAPC     P 4444   5.390   2.981  11.134  0.7643  0.0753 -0.0828
   59SAPC   O13 4445   5.451   3.042  11.251 -0.4004  0.0623 -0.9692
   59SAPC   O14 4446   5.303   2.864  11.168  0.1382 -1.0134  0.3356
   59SAPC   O12 4447   5.301   3.077  11.055  0.1477  0.4467 -0.3103
   59SAPC   O11 4448   5.514   2.934  11.037  0.1258 -0.4532  0.4048
   59SAPC    C1 4449   5.477   2.842  10.932 -0.6831 -0.0476  0.8626
   59SAPC    HA 4450   5.532   2.747  10.947 -2.0530 -0.8481  0.9241
   59SAPC    HB 4451   5.371   2.810  10.928 -1.4558  2.6128 -1.4116
   59SAPC    C2 4452   5.522   2.897  10.793  0.3702  0.2351  0.0400
   59SAPC    HS 4453   5.477   2.829  10.717  0.5400 -1.4393  1.4277
   59SAPC   O21 4454   5.669   2.896  10.784 -0.1434 -0.3109 -0.0411
   59SAPC   C21 4455   5.712   2.834  10.674  0.4797  0.0738 -0.2969
   59SAPC   O22 4456   5.642   2.782  10.586 -0.4420 -0.4359  0.1948
   59SAPC   C22 4457   5.864   2.837  10.677 -0.6418  0.3990 -0.0027
   59SAPC   H2R 4458   5.901   2.923  10.737 -0.8738 -1.4993  2.9760
   59SAPC   H2S 4459   5.900   2.747  10.731 -2.1621  0.0051  0.3678
   59SAPC    C3 4460   5.457   3.038  10.762 -0.5931  0.1250 -0.6392
   59SAPC    HX 4461   5.502   3.108  10.835 -0.2220 -2.2897  1.4953
   59SAPC    HY 4462   5.348   3.044  10.780 -0.8941 -2.2099 -1.4683
   59SAPC   O31 4463   5.499   3.083  10.632 -0.5371 -0.5434  0.1109
   59SAPC   C31 4464   5.417   3.047  10.527 -0.5724  0.1401  0.0542
   59SAPC   O32 4465   5.313   2.988  10.543 -0.7659 -0.1262 -0.4925
   59SAPC   C32 4466   5.471   3.103  10.400 -0.5680 -0.4853  0.3295
   59SAPC   H2X 4467   5.581   3.098  10.416 -0.3058 -0.5223 -1.3422
   59SAPC   H2Y 4468   5.450   3.212  10.394  2.2372  0.1773  1.5996
   59SAPC   C23 4469   5.927   2.854  10.532 -0.4969  0.5407  0.2785
   59SAPC   H3R 4470   5.881   2.777  10.466  0.4256 -0.8443  1.2479
   59SAPC   H3S 4471   6.033   2.821  10.532 -0.1586  1.6176  1.2445
   59SAPC   C24 4472   5.906   2.999  10.473  0.3099  0.7875 -0.1245
   59SAPC   H4R 4473   5.881   3.066  10.558  0.3331 -0.0355  0.5262
   59SAPC   H4S 4474   5.820   2.995  10.403 -0.1517 -0.0187  0.4909
   59SAPC   C25 4475   6.035   3.039  10.401  0.4377 -1.5440  0.6914
   59SAPC   H5R 4476   6.110   3.093  10.461 -1.6472 -1.5970  3.4219
   59SAPC   C26 4477   6.069   3.002  10.273 -0.3590 -0.7635 -0.0852
   59SAPC   H6R 4478   6.170   3.023  10.235 -0.6232 -1.2558 -1.0718
   59SAPC   C27 4479   5.989   2.924  10.172  0.5662 -0.5826 -0.2588
   59SAPC   H7R 4480   5.938   2.844  10.229  0.0345 -0.1635 -0.1381
   59SAPC   H7S 4481   6.063   2.872  10.107  1.3581 -1.6953  1.5154
   59SAPC   C28 4482   5.881   3.000  10.094 -0.4898  0.0240  0.0897
   59SAPC   H8R 4483   5.806   3.053  10.154 -1.0403 -1.8513  1.0962
   59SAPC   C29 4484   5.852   2.996   9.964  0.3967  0.2715  0.0138
   59SAPC   H9R 4485   5.780   3.068   9.924  1.5883  2.6180  1.9545
   59SAPC  C210 4486   5.939   2.927   9.861  0.9708  0.0116  0.4570
   59SAPC  H10R 4487   5.894   2.961   9.766  0.6785  2.0942  1.2996
   59SAPC  H10S 4488   5.930   2.818   9.844  0.5194  0.0444  0.4938
   59SAPC  C211 4489   6.081   2.973   9.850 -0.1521 -0.6342  0.7031
   59SAPC  H11R 4490   6.130   3.012   9.941  1.1482 -0.6757  0.0348
   59SAPC  C212 4491   6.151   2.985   9.735 -0.3677 -0.0907  0.0333
   59SAPC  H12R 4492   6.255   3.021   9.736 -0.1654 -0.6075 -1.4789
   59SAPC  C213 4493   6.114   2.953   9.594 -0.1355  0.4690  0.4807
   59SAPC  H13R 4494   6.046   2.865   9.598 -0.5617  0.8382  1.9865
   59SAPC  H13S 4495   6.211   2.922   9.551  1.1404  2.3923  1.8683
   59SAPC  C214 4496   6.060   3.078   9.522 -0.0847  0.9121 -0.3121
   59SAPC  H14R 4497   5.990   3.141   9.578  0.3623 -0.9393  2.4471
   59SAPC  C215 4498   6.082   3.102   9.393  1.0870 -0.5192 -0.4157
   59SAPC  H15R 4499   6.025   3.183   9.346 -2.6126 -2.7309  0.0776
   59SAPC  C216 4500   6.157   3.017   9.291  0.4183 -0.4367 -0.1525
   59SAPC  H16R 4501   6.208   2.942   9.355 -1.6963 -1.1991  0.7005
   59SAPC  H16S 4502   6.228   3.079   9.232  0.2041 -0.9318 -0.9400
   59SAPC  C217 4503   6.066   2.957   9.188  0.3633 -0.2344  0.1533
   59SAPC  H17R 4504   5.979   2.908   9.236  0.1035 -0.7917 -0.8608
   59SAPC  H17S 4505   6.120   2.881   9.127  2.2994  0.0960  1.4222
   59SAPC  C218 4506   6.008   3.065   9.097 -0.6376  0.0685  0.6352
   59SAPC  H18R 4507   6.085   3.107   9.029 -0.0819  1.6994  2.1996
   59SAPC  H18S 4508   5.972   3.146   9.164 -1.5997 -0.3653  0.6502
   59SAPC  C219 4509   5.889   3.019   9.013 -0.1414  1.1026  0.0789
   59SAPC  H19R 4510   5.836   3.096   8.954  2.5147  0.1226 -3.7693
   59SAPC  H19S 4511   5.820   2.973   9.087 -0.9185  0.1461 -1.2238
   59SAPC  C220 4512   5.931   2.910   8.906 -0.2113  0.2705 -0.0367
   59SAPC  H20R 4513   5.961   2.812   8.950  5.3627  2.0856  0.6211
   59SAPC  H20S 4514   6.018   2.948   8.849  0.1257 -0.3885  0.0292
   59SAPC  H20T 4515   5.855   2.894   8.827 -0.4058 -1.2971  0.4591
   59SAPC   C33 4516   5.440   3.025  10.272  0.6949  0.1085  0.2972
   59SAPC   H3X 4517   5.331   3.013  10.257  0.6155  0.8569  0.2590
   59SAPC   H3Y 4518   5.499   2.931  10.277  0.4021  0.0252  2.6927
   59SAPC   C34 4519   5.479   3.113  10.150 -0.0078  0.3855  0.7548
   59SAPC   H4X 4520   5.574   3.168  10.165 -1.2137  2.7353  0.2176
   59SAPC   H4Y 4521   5.392   3.182  10.134 -0.9418 -0.8550  0.4028
   59SAPC   C35 4522   5.486   3.026  10.018 -0.1478  0.1366  0.2139
   59SAPC   H5X 4523   5.393   2.969  10.040 -1.0849  0.9772 -1.4322
   59SAPC   H5Y 4524   5.583   2.973  10.016  0.2380  0.8646 -3.2490
   59SAPC   C36 4525   5.462   3.103   9.886  0.4911  0.7001 -0.2454
   59SAPC   H6X 4526   5.528   3.191   9.874  0.8236  0.6566  1.2164
   59SAPC   H6Y 4527   5.363   3.149   9.907 -0.1065 -1.3061  1.4074
   59SAPC   C37 4528   5.466   3.018   9.764  0.6430  0.2775 -0.1110
   59SAPC   H7X 4529   5.394   2.936   9.784 -0.0688  0.9504  0.1134
   59SAPC   H7Y 4530   5.568   2.978   9.746  1.8692  3.4734 -0.6212
   59SAPC   C38 4531   5.424   3.101   9.644 -0.7080 -0.0750 -0.3134
   59SAPC   H8X 4532   5.502   3.178   9.626  1.3949 -2.1378 -0.2703
   59SAPC   H8Y 4533   5.332   3.157   9.673  1.4375  3.4422 -0.0722
   59SAPC   C39 4534   5.405   3.013   9.519 -0.1973 -0.9908  0.0479
   59SAPC   H9X 4535   5.332   2.930   9.527 -2.8054  1.3706  1.6080
   59SAPC   H9Y 4536   5.499   2.958   9.499  1.0990  0.8156  1.0247
   59SAPC  C310 4537   5.366   3.083   9.388 -0.2156  0.5534 -0.0376
   59SAPC  H10X 4538   5.432   3.172   9.393 -1.6915  1.7540 -1.6730
   59SAPC  H10Y 4539   5.263   3.118   9.410  0.0048  1.6710 -0.7247
   59SAPC  C311 4540   5.359   2.995   9.261 -0.2454  0.1479 -0.2744
   59SAPC  H11X 4541   5.272   2.926   9.266  0.4917 -0.7091  0.8957
   59SAPC  H11Y 4542   5.457   2.943   9.261 -0.0247  0.5031  2.5846
   59SAPC  C312 4543   5.359   3.085   9.139  0.2014  0.0221  0.7006
   59SAPC  H12X 4544   5.450   3.149   9.146  0.8115 -0.5655 -1.6378
   59SAPC  H12Y 4545   5.279   3.160   9.154  0.2156 -0.0933  1.3820
   59SAPC  C313 4546   5.352   3.013   9.001 -0.2475  0.5059  0.7917
   59SAPC  H13X 4547   5.434   2.938   8.993 -1.1210 -0.2341 -1.5631
   59SAPC  H13Y 4548   5.348   3.098   8.930  1.6277 -0.5777 -0.6329
   59SAPC  C314 4549   5.215   2.936   8.986 -1.4454  0.1971  0.2278
   59SAPC  H14X 4550   5.132   3.009   8.984  0.1919  2.0433 -3.3260
   59SAPC  H14Y 4551   5.200   2.872   9.076 -2.9558 -0.6943 -0.6366
   59SAPC  C315 4552   5.225   2.859   8.853 -0.5074  0.5042 -0.1494
   59SAPC  H15X 4553   5.303   2.779   8.859  1.1844  2.1594  0.4234
   59SAPC  H15Y 4554   5.261   2.936   8.781  0.7357 -0.6040 -0.7531
   59SAPC  C316 4555   5.089   2.805   8.825  0.0934  0.4207  0.2383
   59SAPC  H16X 4556   5.015   2.886   8.845  0.6282  1.1755 -0.8091
   59SAPC  H16Y 4557   5.067   2.721   8.895 -0.5866  0.7228  0.3914
   59SAPC  C317 4558   5.081   2.759   8.678  0.1178  0.3676  0.8016
   59SAPC  H17X 4559   5.137   2.663   8.668 -1.5193 -0.2817 -2.6054
   59SAPC  H17Y 4560   5.129   2.839   8.618 -1.5679  0.3626 -0.5772
   59SAPC  C318 4561   4.947   2.715   8.634  0.4732  0.0827  0.7179
   59SAPC  H18X 4562   4.916   2.618   8.679 -2.7439  0.1799 -1.1705
   59SAPC  H18Y 4563   4.953   2.691   8.525 -0.6083  1.2516  0.3940
   59SAPC  H18Z 4564   4.865   2.788   8.651  0.7021  0.0130  2.2066
   60SAPC     N 4565   6.445   0.642  10.792  0.3408  0.7861  0.5237
   60SAPC   C12 4566   6.380   0.781  10.802 -0.1982 -0.6284 -0.2159
   60SAPC  H12A 4567   6.384   0.819  10.903 -1.6925 -1.7346  0.2708
   60SAPC  H12B 4568   6.279   0.768  10.767 -0.8549 -0.9136  1.7001
   60SAPC   C13 4569   6.454   0.606  10.648 -0.1665 -0.2860  0.4572
   60SAPC  H13A 4570   6.476   0.500  10.642 -0.5492 -0.3763  0.6359
   60SAPC  H13B 4571   6.360   0.623  10.598 -0.3982 -0.3800  0.8593
   60SAPC  H13C 4572   6.538   0.656  10.603 -0.4421 -2.1891 -2.2896
   60SAPC   C14 4573   6.576   0.645  10.859 -0.2994 -0.2818 -0.0022
   60SAPC  H14A 4574   6.640   0.715  10.808  1.1332 -2.1521 -0.8100
   60SAPC  H14B 4575   6.565   0.672  10.963 -3.0694 -1.2669  0.0155
   60SAPC  H14C 4576   6.624   0.550  10.845  0.4575  0.4348 -2.4027
   60SAPC   C15 4577   6.361   0.534  10.850  0.3041  0.7988 -0.7661
   60SAPC  H15A 4578   6.269   0.530  10.792 -1.1600  1.7506  1.4281
   60SAPC  H15B 4579   6.409   0.438  10.856 -1.3666  0.0322  0.5056
   60SAPC  H15C 4580   6.339   0.559  10.952 -2.4030 -2.2654 -0.5145
   60SAPC   C11 4581   6.448   0.886  10.706  0.0820 -0.3500  0.3063
   60SAPC  H11A 4582   6.370   0.966  10.712 -1.1778 -1.3959 -1.3768
   60SAPC  H11B 4583   6.456   0.851  10.600  0.5375  1.0853 -0.1389
   60SAPC     P 4584   6.642   1.063  10.706  0.3970 -0.0019 -0.3456
   60SAPC   O13 4585   6.587   1.173  10.787  0.4526  0.5448  0.3255
   60SAPC   O14 4586   6.788   1.031  10.727 -0.1174 -1.0404 -0.3601
   60SAPC   O12 4587   6.573   0.929  10.756  0.6958  0.0100  0.2768
   60SAPC   O11 4588   6.605   1.084  10.554 -0.2223  0.1132  0.6049
   60SAPC    C1 4589   6.682   1.011  10.451  0.4116 -0.5218  0.8434
   60SAPC    HA 4590   6.724   0.912  10.479  0.7585 -1.7368 -3.5640
   60SAPC    HB 4591   6.622   0.975  10.365  1.7246  0.1005 -0.3476
   60SAPC    C2 4592   6.804   1.091  10.397  0.9582 -0.3603  1.3320
   60SAPC    HS 4593   6.835   1.151  10.485  0.4892  1.2177  0.4290
   60SAPC   O21 4594   6.758   1.186  10.293 -0.5288 -0.3171 -0.3370
   60SAPC   C21 4595   6.844   1.273  10.244 -0.0149 -0.2266 -0.6598
   60SAPC   O22 4596   6.959   1.297  10.279  0.3009  0.7709  0.2735
   60SAPC   C22 4597   6.782   1.343  10.119 -0.6674 -0.0632 -0.4632
   60SAPC   H2R 4598   6.684   1.293  10.107 -0.9266  0.4482 -0.4920
   60SAPC   H2S 4599   6.773   1.452  10.136  2.1027 -0.1231  1.7349
   60SAPC    C3 4600   6.932   1.005  10.353 -0.4835  0.2314 -0.3248
   60SAPC    HX 4601   6.956   0.911  10.408  1.7449  1.1004  0.2289
   60SAPC    HY 4602   7.021   1.069  10.370  1.2339 -2.1395 -0.0853
   60SAPC   O31 4603   6.935   0.989  10.211 -0.1548 -0.2782 -0.2863
   60SAPC   C31 4604   6.888   0.888  10.150 -0.2472  0.0469 -0.2696
   60SAPC   O32 4605   6.841   0.786  10.201 -0.1916 -0.3175 -0.6356
   60SAPC   C32 4606   6.869   0.927  10.006 -0.2654  0.4337 -0.4372
   60SAPC   H2X 4607   6.969   0.960   9.971  0.9885  1.1257  3.5492
   60SAPC   H2Y 4608   6.798   1.012   9.994 -2.0910 -0.6856  1.8643
   60SAPC   C23 4609   6.859   1.306   9.984  0.0638  0.1065  0.0393
   60SAPC   H3R 4610   6.897   1.202   9.991  0.4260  0.2802  0.6623
   60SAPC   H3S 4611   6.952   1.367   9.978 -0.3995  0.8640  0.4371
   60SAPC   C24 4612   6.765   1.319   9.865 -0.2077  0.0891  0.1554
   60SAPC   H4R 4613   6.668   1.269   9.887  0.3338 -1.8053 -1.6451
   60SAPC   H4S 4614   6.806   1.267   9.776 -1.0044  0.1563 -0.2489
   60SAPC   C25 4615   6.737   1.462   9.826  0.5233  0.6742 -0.0906
   60SAPC   H5R 4616   6.713   1.528   9.910  0.9233  0.4193  0.2245
   60SAPC   C26 4617   6.740   1.518   9.703  0.1348 -0.1946  0.2970
   60SAPC   H6R 4618   6.729   1.626   9.684  2.6308 -0.0386 -0.5385
   60SAPC   C27 4619   6.766   1.438   9.576  0.1991  0.1029  0.6367
   60SAPC   H7R 4620   6.710   1.469   9.485 -0.9834 -1.9512  0.6362
   60SAPC   H7S 4621   6.727   1.335   9.588 -0.2041  0.1855  0.0750
   60SAPC   C28 4622   6.915   1.432   9.550 -0.2039  0.0911  0.5075
   60SAPC   H8R 4623   6.985   1.410   9.631 -1.1311 -1.6676  0.8519
   60SAPC   C29 4624   6.963   1.417   9.423  0.4444 -0.5572 -0.0783
   60SAPC   H9R 4625   7.072   1.418   9.406  0.5297  1.6786  0.5200
   60SAPC  C210 4626   6.884   1.412   9.292 -0.5643 -0.2763  0.2143
   60SAPC  H10R 4627   6.776   1.414   9.315 -0.3472  0.7963  1.1861
   60SAPC  H10S 4628   6.908   1.327   9.226  0.6405 -1.4637  2.1160
   60SAPC  C211 4629   6.925   1.535   9.214  0.2782 -0.1777  0.4829
   60SAPC  H11R 4630   6.941   1.624   9.276 -0.3233 -0.7241  1.4458
   60SAPC  C212 4631   6.931   1.560   9.083  0.4344  0.4026 -1.2054
   60SAPC  H12R 4632   6.951   1.662   9.049  0.0675  0.7347 -0.4260
   60SAPC  C213 4633   6.894   1.459   8.972  1.0216  0.0937 -0.2955
   60SAPC  H13R 4634   6.867   1.510   8.877  0.3629 -0.0810 -0.2050
   60SAPC  H13S 4635   6.810   1.394   9.005  0.1591  0.2227 -2.1444
   60SAPC  C214 4636   7.016   1.369   8.955 -0.6928 -0.0320  0.6518
   60SAPC  H14R 4637   7.074   1.333   9.041 -0.7303 -0.6930  0.3993
   60SAPC  C215 4638   7.070   1.341   8.834 -0.4808  0.6641 -0.5610
   60SAPC  H15R 4639   7.159   1.276   8.839 -1.4810 -0.6614  0.6782
   60SAPC  C216 4640   7.034   1.390   8.701 -0.4948 -0.0964  0.4240
   60SAPC  H16R 4641   6.926   1.415   8.693 -0.0863  1.6666  0.1618
   60SAPC  H16S 4642   7.045   1.303   8.633  0.5440 -1.4726  2.3128
   60SAPC  C217 4643   7.119   1.504   8.640  0.2079 -0.6554 -0.0452
   60SAPC  H17R 4644   7.225   1.472   8.648  0.3240 -0.6015 -1.2645
   60SAPC  H17S 4645   7.101   1.593   8.703  0.4562 -0.8876  0.3558
   60SAPC  C218 4646   7.086   1.533   8.494  0.4935  0.4328  0.0502
   60SAPC  H18R 4647   7.148   1.612   8.447 -0.3036  0.1363 -1.5684
   60SAPC  H18S 4648   6.980   1.566   8.482  0.1115 -1.0561 -0.9508
   60SAPC  C219 4649   7.109   1.424   8.394  0.9243  0.8855 -0.7359
   60SAPC  H19R 4650   7.045   1.459   8.311 -2.9925  0.6356  2.0535
   60SAPC  H19S 4651   7.071   1.326   8.431 -0.2325  1.4827 -0.3283
   60SAPC  C220 4652   7.253   1.402   8.356  0.6275  0.5561 -0.1590
   60SAPC  H20R 4653   7.312   1.383   8.448 -1.4258 -1.5383  0.7896
   60SAPC  H20S 4654   7.300   1.482   8.295  2.6994 -2.2603 -2.3799
   60SAPC  H20T 4655   7.271   1.311   8.295 -0.6629  0.4985 -0.4596
   60SAPC   C33 4656   6.830   0.798   9.926  0.4504  0.5508  0.0864
   60SAPC   H3X 4657   6.728   0.762   9.949  1.6122 -1.7376  1.8617
   60SAPC   H3Y 4658   6.899   0.713   9.946  0.5543  0.3045 -1.2750
   60SAPC   C34 4659   6.827   0.815   9.774  0.4438 -0.1660  0.0121
   60SAPC   H4X 4660   6.926   0.842   9.731  1.0241 -1.6146  0.4135
   60SAPC   H4Y 4661   6.757   0.898   9.752 -1.3898 -1.6415  0.1442
   60SAPC   C35 4662   6.773   0.697   9.702 -0.4822  0.4309 -0.1135
   60SAPC   H5X 4663   6.685   0.662   9.759  0.5636  0.0211  1.3001
   60SAPC   H5Y 4664   6.843   0.611   9.690  0.0867  1.0692 -1.5169
   60SAPC   C36 4665   6.714   0.724   9.566 -0.3553 -0.0446 -0.0207
   60SAPC   H6X 4666   6.621   0.783   9.580  0.8990  1.9843 -0.0663
   60SAPC   H6Y 4667   6.681   0.631   9.515 -2.8040  0.8144 -0.0516
   60SAPC   C37 4668   6.800   0.807   9.471  0.6317  0.1756 -0.3973
   60SAPC   H7X 4669   6.898   0.763   9.442  0.0405 -1.5035  0.1059
   60SAPC   H7Y 4670   6.821   0.909   9.509 -2.0121  0.8917 -0.7698
   60SAPC   C38 4671   6.716   0.815   9.339  0.0881  0.2184  0.4055
   60SAPC   H8X 4672   6.625   0.876   9.357 -0.6550 -0.9057  0.5124
   60SAPC   H8Y 4673   6.668   0.716   9.319 -0.7445  0.4495  1.2405
   60SAPC   C39 4674   6.807   0.854   9.222 -0.1935  0.1117  0.5924
   60SAPC   H9X 4675   6.885   0.780   9.196 -1.0516 -1.3209  2.0336
   60SAPC   H9Y 4676   6.859   0.946   9.258 -1.3663  0.5075  1.3196
   60SAPC  C310 4677   6.739   0.894   9.095  0.0780  0.4363  0.7068
   60SAPC  H10X 4678   6.801   0.979   9.061  0.7164 -0.0033  0.7579
   60SAPC  H10Y 4679   6.631   0.919   9.102  0.0060  0.1946  0.5114
   60SAPC  C311 4680   6.763   0.790   8.981 -0.4698 -0.2209 -0.1612
   60SAPC  H11X 4681   6.744   0.692   9.028  0.2808  0.5354  1.7696
   60SAPC  H11Y 4682   6.867   0.793   8.944  0.4066 -0.0956  2.2079
   60SAPC  C312 4683   6.666   0.817   8.860 -0.4656  0.7311  0.0845
   60SAPC  H12X 4684   6.683   0.919   8.821 -1.1780  0.8238  0.0262
   60SAPC  H12Y 4685   6.561   0.807   8.895  0.3469  0.4380  2.5479
   60SAPC  C313 4686   6.681   0.717   8.746 -0.2397 -0.4404 -0.6437
   60SAPC  H13X 4687   6.670   0.613   8.784  2.3181 -0.5050  0.0592
   60SAPC  H13Y 4688   6.786   0.714   8.708 -0.1844  1.1302 -0.6381
   60SAPC  C314 4689   6.588   0.748   8.626 -0.3588 -0.5319 -0.0401
   60SAPC  H14X 4690   6.645   0.834   8.585 -1.9266  0.7197  0.3658
   60SAPC  H14Y 4691   6.490   0.788   8.657  0.8819  2.8930 -0.2829
   60SAPC  C315 4692   6.574   0.647   8.508 -0.3401  0.0155 -1.2754
   60SAPC  H15X 4693   6.509   0.560   8.531  0.3444 -0.3075 -0.5020
   60SAPC  H15Y 4694   6.675   0.608   8.482  0.2467  2.3582 -2.6175
   60SAPC  C316 4695   6.517   0.704   8.376 -0.6552 -0.0011  0.4157
   60SAPC  H16X 4696   6.532   0.619   8.308 -1.7197 -0.9247  1.3156
   60SAPC  H16Y 4697   6.570   0.794   8.338 -0.3210  0.3024  1.5685
   60SAPC  C317 4698   6.367   0.741   8.373 -0.3083  0.0286 -0.8860
   60SAPC  H17X 4699   6.363   0.852   8.361  0.7827  0.0195 -1.4210
   60SAPC  H17Y 4700   6.312   0.698   8.459 -0.3663 -1.4840 -1.6657
   60SAPC  C318 4701   6.289   0.690   8.248  0.4944 -0.2488  0.3580
   60SAPC  H18X 4702   6.358   0.715   8.165  1.5875  0.8415  1.5861
   60SAPC  H18Y 4703   6.190   0.740   8.244  0.4661  0.3981  5.6680
   60SAPC  H18Z 4704   6.271   0.580   8.252  2.9831 -0.6737  0.5944
   61SAPC     N 4705   0.745   6.467  11.127  0.2973  0.5134 -0.0160
   61SAPC   C12 4706   0.668   6.335  11.107  0.2552  0.1200 -0.2376
   61SAPC  H12A 4707   0.612   6.321  11.199 -0.9984 -1.1891 -1.1729
   61SAPC  H12B 4708   0.740   6.255  11.102  1.9579  1.4641  1.6915
   61SAPC   C13 4709   0.823   6.481  11.006  0.0557  0.1662  1.0428
   61SAPC  H13A 4710   0.899   6.405  10.994  0.3424  0.5881  0.1466
   61SAPC  H13B 4711   0.758   6.466  10.921 -1.1598  1.1216  1.7917
   61SAPC  H13C 4712   0.859   6.582  10.999  0.0706  0.0920 -0.0817
   61SAPC   C14 4713   0.653   6.590  11.142 -0.2814  1.1902 -0.1273
   61SAPC  H14A 4714   0.716   6.675  11.123  0.7948  0.0819 -1.6436
   61SAPC  H14B 4715   0.577   6.580  11.066  0.2129 -0.7412 -0.4165
   61SAPC  H14C 4716   0.606   6.593  11.239 -0.1098  2.7436 -0.0856
   61SAPC   C15 4717   0.838   6.444  11.240  0.5246 -0.2070 -0.1554
   61SAPC  H15A 4718   0.898   6.354  11.231  1.1220  0.1386  0.3577
   61SAPC  H15B 4719   0.894   6.536  11.248 -0.1796  0.3071 -1.0875
   61SAPC  H15C 4720   0.784   6.432  11.332 -0.8140 -0.3590 -0.9528
   61SAPC   C11 4721   0.558   6.326  10.990 -0.0024  0.3004 -0.4740
   61SAPC  H11A 4722   0.519   6.223  11.005  0.5069  0.3902  1.4964
   61SAPC  H11B 4723   0.620   6.328  10.898  1.9053 -0.0758  0.7899
   61SAPC     P 4724   0.346   6.449  10.892 -0.1635 -0.2051 -0.2152
   61SAPC   O13 4725   0.283   6.319  10.880  0.4072  0.0287 -0.0128
   61SAPC   O14 4726   0.272   6.566  10.947 -0.0581 -0.3008  0.4866
   61SAPC   O12 4727   0.460   6.429  10.998  0.4235  0.0489  0.2528
   61SAPC   O11 4728   0.414   6.490  10.756  0.0297  0.1442  0.3566
   61SAPC    C1 4729   0.355   6.467  10.628 -0.1773  0.1526 -0.0682
   61SAPC    HA 4730   0.403   6.376  10.587 -1.0194  0.7895 -2.5096
   61SAPC    HB 4731   0.244   6.462  10.635 -0.0986  1.3148  3.2617
   61SAPC    C2 4732   0.398   6.586  10.534  0.6760 -0.1159  0.2261
   61SAPC    HS 4733   0.367   6.674  10.594 -0.7290  0.6868 -1.6405
   61SAPC   O21 4734   0.337   6.562  10.406  0.2817  0.3546 -0.0235
   61SAPC   C21 4735   0.295   6.664  10.342 -0.4422  0.1670 -0.0573
   61SAPC   O22 4736   0.291   6.782  10.377 -0.8778  0.2868  0.0564
   61SAPC   C22 4737   0.244   6.625  10.201 -0.1399 -0.2500  0.8292
   61SAPC   H2R 4738   0.153   6.567  10.227 -1.2477  1.9026  1.8800
   61SAPC   H2S 4739   0.216   6.715  10.142 -0.7052 -0.1759  1.2045
   61SAPC    C3 4740   0.553   6.592  10.520 -0.3082  0.3159  0.2301
   61SAPC    HX 4741   0.588   6.496  10.476  1.2070  0.6811  0.6221
   61SAPC    HY 4742   0.587   6.598  10.625 -0.3665 -1.0422  0.3373
   61SAPC   O31 4743   0.593   6.708  10.450  0.4113 -0.3820 -0.0383
   61SAPC   C31 4744   0.625   6.819  10.510 -0.3969 -0.3168 -0.2299
   61SAPC   O32 4745   0.640   6.832  10.630  0.1576  0.2366 -1.1935
   61SAPC   C32 4746   0.594   6.939  10.420  0.5111  1.2431  0.0181
   61SAPC   H2X 4747   0.564   7.016  10.494 -1.5292  0.3676  0.1199
   61SAPC   H2Y 4748   0.498   6.918  10.369  2.2992  0.4342 -3.1640
   61SAPC   C23 4749   0.344   6.547  10.110  0.2153  0.7871  0.3578
   61SAPC   H3R 4750   0.277   6.505  10.031 -0.2780  1.6908  0.2876
   61SAPC   H3S 4751   0.379   6.461  10.171  1.0366  2.9992  3.0941
   61SAPC   C24 4752   0.453   6.627  10.042 -0.3680 -0.3413  0.0757
   61SAPC   H4R 4753   0.528   6.656  10.119 -0.0520  0.9747 -0.7282
   61SAPC   H4S 4754   0.408   6.723  10.008  2.0151  1.0690  0.7870
   61SAPC   C25 4755   0.515   6.558   9.926 -0.5797 -0.1731  0.9114
   61SAPC   H5R 4756   0.615   6.519   9.951  0.6806  2.2231 -0.1384
   61SAPC   C26 4757   0.488   6.563   9.795 -1.6069 -0.6797  0.2907
   61SAPC   H6R 4758   0.551   6.503   9.728 -0.1130  0.4372  0.6800
   61SAPC   C27 4759   0.378   6.632   9.722  0.8042  0.1047  0.0697
   61SAPC   H7R 4760   0.284   6.633   9.780  0.9409  1.3045  0.2706
   61SAPC   H7S 4761   0.354   6.579   9.627  0.4699  1.7048 -0.7424
   61SAPC   C28 4762   0.407   6.781   9.708 -0.0709 -0.4054  0.2789
   61SAPC   H8R 4763   0.407   6.840   9.801 -1.5691  0.8667 -0.5157
   61SAPC   C29 4764   0.419   6.851   9.592  0.4660  0.0936  0.2016
   61SAPC   H9R 4765   0.415   6.961   9.593 -0.6115  0.0731  3.8097
   61SAPC  C210 4766   0.412   6.778   9.459 -0.7876  0.1016 -0.2577
   61SAPC  H10R 4767   0.310   6.742   9.434 -0.2478 -0.2875 -1.9640
   61SAPC  H10S 4768   0.483   6.692   9.460 -1.0108 -0.1070 -1.4512
   61SAPC  C211 4769   0.461   6.875   9.352 -0.4500  0.1511 -0.0087
   61SAPC  H11R 4770   0.562   6.863   9.311  0.7051 -1.0450  3.0159
   61SAPC  C212 4771   0.392   6.979   9.296  0.8888 -0.7466  0.1279
   61SAPC  H12R 4772   0.440   7.043   9.219 -0.0847 -0.3726 -0.1724
   61SAPC  C213 4773   0.251   7.019   9.324 -0.3421  0.1416  0.7551
   61SAPC  H13R 4774   0.207   6.970   9.414  0.5889  0.1965  1.2485
   61SAPC  H13S 4775   0.190   6.994   9.235  0.4772 -0.5369  0.3822
   61SAPC  C214 4776   0.225   7.165   9.353 -0.1532 -0.8169  0.1597
   61SAPC  H14R 4777   0.247   7.200   9.456 -1.6253  3.1361 -0.7606
   61SAPC  C215 4778   0.166   7.260   9.285  0.5039  0.0786 -1.3515
   61SAPC  H15R 4779   0.158   7.358   9.335  1.0209  0.0705 -1.2537
   61SAPC  C216 4780   0.121   7.246   9.145  0.2149  0.6442 -0.3823
   61SAPC  H16R 4781   0.019   7.291   9.136 -0.3669 -0.6565 -0.3625
   61SAPC  H16S 4782   0.087   7.146   9.110  1.4608  0.0269  0.1722
   61SAPC  C217 4783   0.213   7.302   9.035 -0.0778  0.6809 -0.7746
   61SAPC  H17R 4784   0.313   7.253   9.043 -0.0680  1.0246  1.5682
   61SAPC  H17S 4785   0.217   7.412   9.049  0.1178  0.4221  1.4693
   61SAPC  C218 4786   0.170   7.267   8.892  0.2186  0.0635  0.3337
   61SAPC  H18R 4787   0.063   7.286   8.869  0.3447  0.2356 -0.1109
   61SAPC  H18S 4788   0.190   7.159   8.874 -1.5144 -0.2666  0.3173
   61SAPC  C219 4789   0.245   7.349   8.777  0.8625  0.3794  0.7674
   61SAPC  H19R 4790   0.349   7.309   8.774  0.6007 -0.2604  0.0913
   61SAPC  H19S 4791   0.252   7.456   8.803 -1.6289  0.8105 -0.1759
   61SAPC  C220 4792   0.199   7.325   8.631 -0.0805  0.1265  0.3647
   61SAPC  H20R 4793   0.088   7.325   8.639 -0.0806  1.2008  0.5107
   61SAPC  H20S 4794   0.230   7.223   8.602 -0.4269 -0.4909  2.1004
   61SAPC  H20T 4795   0.237   7.404   8.563  2.1792 -2.8190 -1.9303
   61SAPC   C33 4796   0.712   6.981  10.328 -0.8731 -0.6528 -0.0452
   61SAPC   H3X 4797   0.748   6.892  10.271  1.8219 -0.7621  1.7150
   61SAPC   H3Y 4798   0.801   7.016  10.384 -0.9597 -1.0421  0.3360
   61SAPC   C34 4799   0.675   7.095  10.232 -0.3029 -0.0411 -0.7266
   61SAPC   H4X 4800   0.650   7.174  10.306  0.5263  0.1012 -0.6003
   61SAPC   H4Y 4801   0.574   7.085  10.186 -0.9873  2.5227  0.1649
   61SAPC   C35 4802   0.780   7.158  10.140 -0.2212  0.4852  0.2590
   61SAPC   H5X 4803   0.844   7.224  10.203 -0.3059  0.3684  0.4701
   61SAPC   H5Y 4804   0.724   7.211  10.060  0.4130 -2.0526 -1.9362
   61SAPC   C36 4805   0.866   7.062  10.063 -1.0918  0.3115  0.5403
   61SAPC   H6X 4806   0.933   7.011  10.135  1.4569  3.2885  0.3789
   61SAPC   H6Y 4807   0.926   7.124   9.993 -0.5913  0.1900  0.8574
   61SAPC   C37 4808   0.782   6.955   9.982  0.2306 -1.3386  0.0361
   61SAPC   H7X 4809   0.706   7.014   9.925  0.6679 -1.3784 -0.6019
   61SAPC   H7Y 4810   0.727   6.882  10.044  0.5063  0.6720  2.7438
   61SAPC   C38 4811   0.871   6.880   9.888 -0.0751 -0.0206 -0.2046
   61SAPC   H8X 4812   0.926   6.817   9.961  1.4073  0.7694 -0.6352
   61SAPC   H8Y 4813   0.947   6.930   9.825  0.5408 -0.8812 -0.1466
   61SAPC   C39 4814   0.801   6.786   9.793 -0.0798 -0.2391  0.0242
   61SAPC   H9X 4815   0.736   6.850   9.730  0.7619  0.8952  0.3045
   61SAPC   H9Y 4816   0.747   6.711   9.855  1.2088 -0.4033  0.9719
   61SAPC  C310 4817   0.895   6.714   9.692 -0.8429 -1.2015  0.2731
   61SAPC  H10X 4818   0.932   6.626   9.749  2.6066 -0.2349 -0.3928
   61SAPC  H10Y 4819   0.978   6.784   9.668 -0.1852 -1.1098  2.6547
   61SAPC  C311 4820   0.823   6.678   9.564  0.1363  0.3617  0.5703
   61SAPC  H11X 4821   0.780   6.772   9.523 -0.9667 -0.0592  0.7480
   61SAPC  H11Y 4822   0.736   6.612   9.579  0.7566 -0.4918  0.4292
   61SAPC  C312 4823   0.925   6.624   9.462 -0.6500 -0.2612  0.3691
   61SAPC  H12X 4824   0.955   6.524   9.502 -0.1780 -0.2340  0.0864
   61SAPC  H12Y 4825   1.015   6.688   9.465 -0.1163 -1.0379  1.4854
   61SAPC  C313 4826   0.868   6.619   9.319  0.2528  0.4024 -0.8803
   61SAPC  H13X 4827   0.822   6.719   9.303 -0.0318  0.4052 -0.0508
   61SAPC  H13Y 4828   0.776   6.557   9.323  1.0439 -0.7229  0.0719
   61SAPC  C314 4829   0.966   6.591   9.212  0.3604 -0.3150 -0.1987
   61SAPC  H14X 4830   0.988   6.484   9.227  0.0224 -0.5475 -1.3029
   61SAPC  H14Y 4831   1.059   6.648   9.234 -0.1083 -0.0697  1.2509
   61SAPC  C315 4832   0.909   6.623   9.079 -0.3869 -0.6382  0.7080
   61SAPC  H15X 4833   0.879   6.730   9.077  1.1154 -0.2304 -0.4301
   61SAPC  H15Y 4834   0.814   6.568   9.060  0.1740 -1.2816 -0.3026
   61SAPC  C316 4835   1.007   6.587   8.973 -0.6356  0.6514  0.6885
   61SAPC  H16X 4836   1.010   6.477   8.967 -1.3497  0.7592 -2.4854
   61SAPC  H16Y 4837   1.108   6.621   9.005 -0.4274 -0.0755  0.8029
   61SAPC  C317 4838   0.986   6.646   8.828 -0.2615  0.2118 -0.0649
   61SAPC  H17X 4839   1.054   6.581   8.770 -0.2347 -0.7310  1.0054
   61SAPC  H17Y 4840   1.034   6.746   8.829  0.3205 -0.0777  0.7641
   61SAPC  C318 4841   0.842   6.644   8.779  0.4812 -0.1761 -0.1457
   61SAPC  H18X 4842   0.812   6.538   8.761 -1.3423  0.2322  0.3354
   61SAPC  H18Y 4843   0.826   6.711   8.692 -0.9617 -0.4065 -0.0687
   61SAPC  H18Z 4844   0.772   6.687   8.854 -0.7207 -0.9637 -0.7999
   62SAPC     N 4845   0.205   5.682  10.993 -0.9369  0.1891  0.0682
   62SAPC   C12 4846   0.245   5.593  10.869  0.5961  0.2352 -0.2365
   62SAPC  H12A 4847   0.196   5.634  10.782  2.0057  0.2641 -1.0280
   62SAPC  H12B 4848   0.188   5.502  10.880 -1.1617  1.1826 -1.2974
   62SAPC   C13 4849   0.266   5.633  11.118  0.1356  0.0511 -0.4582
   62SAPC  H13A 4850   0.276   5.718  11.183 -0.6417 -0.6571  0.6019
   62SAPC  H13B 4851   0.200   5.567  11.174  1.5376 -2.1728 -1.3551
   62SAPC  H13C 4852   0.359   5.579  11.107 -0.3322 -1.3068  2.0279
   62SAPC   C14 4853   0.250   5.829  10.971 -0.7086  0.1014 -0.3024
   62SAPC  H14A 4854   0.207   5.902  11.038 -1.5055 -1.4392  0.8941
   62SAPC  H14B 4855   0.357   5.831  10.987 -0.8366 -0.1162  0.6052
   62SAPC  H14C 4856   0.232   5.858  10.869 -1.3155 -0.0257 -0.2298
   62SAPC   C15 4857   0.066   5.686  11.016  0.2195  0.1028  0.7297
   62SAPC  H15A 4858   0.044   5.753  11.099 -1.2025  0.8825 -0.2527
   62SAPC  H15B 4859   0.024   5.732  10.927  0.9650  0.7494  0.7046
   62SAPC  H15C 4860   0.021   5.589  11.030 -0.8527  0.7454  1.8785
   62SAPC   C11 4861   0.391   5.547  10.840 -0.1307 -0.0456 -1.0444
   62SAPC  H11A 4862   0.398   5.475  10.756 -0.1772 -0.5793 -0.5959
   62SAPC  H11B 4863   0.407   5.489  10.934  2.0930  1.8146 -0.2394
   62SAPC     P 4864   0.598   5.655  10.738 -0.1312 -0.0744  0.2616
   62SAPC   O13 4865   0.690   5.766  10.782 -0.3444  0.0290  0.1651
   62SAPC   O14 4866   0.654   5.522  10.714 -0.1612  0.1743 -0.0428
   62SAPC   O12 4867   0.493   5.643  10.859 -0.4824 -0.3194  0.2480
   62SAPC   O11 4868   0.502   5.700  10.621 -0.4133  0.2630 -0.3536
   62SAPC    C1 4869   0.413   5.811  10.627  0.3440  0.8307  0.0656
   62SAPC    HA 4870   0.338   5.785  10.704  0.5654 -1.8941 -0.5977
   62SAPC    HB 4871   0.476   5.901  10.644  0.6842  0.8569 -1.2840
   62SAPC    C2 4872   0.323   5.817  10.500 -0.5565 -1.0049  0.4238
   62SAPC    HS 4873   0.228   5.759  10.503 -0.6864 -0.9112 -1.1733
   62SAPC   O21 4874   0.401   5.788  10.383 -0.0799  0.0054 -0.1660
   62SAPC   C21 4875   0.390   5.656  10.348 -0.3185 -0.0506  0.7980
   62SAPC   O22 4876   0.311   5.577  10.396 -0.2938 -0.0313 -0.3623
   62SAPC   C22 4877   0.488   5.632  10.225  0.0987 -0.9682 -0.0303
   62SAPC   H2R 4878   0.522   5.730  10.185 -0.2418 -0.5524  0.6931
   62SAPC   H2S 4879   0.581   5.590  10.269  1.3386  2.2188  0.5598
   62SAPC    C3 4880   0.277   5.968  10.476 -0.7969  0.0250  0.0907
   62SAPC    HX 4881   0.363   6.030  10.445 -0.1106 -0.5459  0.8339
   62SAPC    HY 4882   0.229   5.996  10.573 -1.6284 -1.4463  0.1199
   62SAPC   O31 4883   0.178   5.983  10.375 -0.1145  0.1155 -0.7811
   62SAPC   C31 4884   0.148   6.105  10.348 -0.3600  0.2314 -0.5493
   62SAPC   O32 4885   0.169   6.195  10.424  0.0385  0.4950  0.6639
   62SAPC   C32 4886   0.062   6.113  10.216  0.0226  0.5078  0.2915
   62SAPC   H2X 4887  -0.042   6.110  10.255 -0.5374 -0.8565 -1.2549
   62SAPC   H2Y 4888   0.084   6.022  10.157 -0.5743  1.4803 -1.4781
   62SAPC   C23 4889   0.428   5.536  10.120  0.2184  0.1920  0.0925
   62SAPC   H3R 4890   0.392   5.443  10.169 -2.5286  0.8598 -0.5678
   62SAPC   H3S 4891   0.502   5.516  10.039  0.4229 -1.1882  0.6145
   62SAPC   C24 4892   0.304   5.607  10.060  0.3749 -0.0431 -0.3142
   62SAPC   H4R 4893   0.345   5.696  10.009 -0.6829  0.2436 -0.6779
   62SAPC   H4S 4894   0.234   5.643  10.138  0.4432 -1.9737  0.6625
   62SAPC   C25 4895   0.225   5.529   9.962 -0.4206  0.2822  0.0253
   62SAPC   H5R 4896   0.149   5.473  10.019 -0.5988  0.4000 -0.0965
   62SAPC   C26 4897   0.229   5.520   9.834 -0.2317  0.4486  0.4226
   62SAPC   H6R 4898   0.145   5.467   9.786 -1.0390  1.9529  0.1293
   62SAPC   C27 4899   0.329   5.592   9.742  0.0082 -0.2742  0.3979
   62SAPC   H7R 4900   0.390   5.517   9.687 -1.1814  0.2358 -1.6745
   62SAPC   H7S 4901   0.413   5.650   9.786  0.9158 -0.0937 -1.5010
   62SAPC   C28 4902   0.264   5.705   9.656  0.0841  0.7876  1.0092
   62SAPC   H8R 4903   0.197   5.775   9.709  0.2153  0.9636  0.9416
   62SAPC   C29 4904   0.280   5.731   9.530  0.6511 -0.1195 -0.1434
   62SAPC   H9R 4905   0.212   5.806   9.487 -0.2635 -0.0982  1.3185
   62SAPC  C210 4906   0.371   5.670   9.428  0.3951  0.4595  0.2023
   62SAPC  H10R 4907   0.433   5.593   9.479  1.1101  1.8354  1.4341
   62SAPC  H10S 4908   0.442   5.746   9.390  1.0379 -0.4003 -0.3525
   62SAPC  C211 4909   0.291   5.596   9.323  0.3439 -0.9710  0.0706
   62SAPC  H11R 4910   0.237   5.514   9.373  0.0799  0.2016  1.7338
   62SAPC  C212 4911   0.278   5.624   9.191  1.0655 -0.2080  0.7417
   62SAPC  H12R 4912   0.229   5.548   9.128 -1.1752  0.9120  1.0806
   62SAPC  C213 4913   0.340   5.744   9.121  0.4811 -0.2140 -0.4145
   62SAPC  H13R 4914   0.327   5.736   9.011  0.8639  0.0002 -0.4765
   62SAPC  H13S 4915   0.450   5.739   9.126  0.4671 -1.0018 -0.8872
   62SAPC  C214 4916   0.300   5.878   9.174  0.2570  0.1786  0.4334
   62SAPC  H14R 4917   0.231   5.872   9.259 -0.6858  0.9269 -0.2630
   62SAPC  C215 4918   0.341   6.000   9.134 -0.5587 -0.2597  0.1228
   62SAPC  H15R 4919   0.297   6.085   9.188 -0.7111 -1.4768  1.9479
   62SAPC  C216 4920   0.442   6.033   9.025  0.8887 -0.4586  0.0998
   62SAPC  H16R 4921   0.494   5.940   8.992  0.7438  0.1245 -1.8077
   62SAPC  H16S 4922   0.514   6.111   9.056  0.3835  0.2734 -0.5532
   62SAPC  C217 4923   0.372   6.105   8.909  0.1180 -0.2718  0.6280
   62SAPC  H17R 4924   0.317   6.194   8.948  0.0973 -1.0350  2.3707
   62SAPC  H17S 4925   0.309   6.036   8.849  0.3007  0.8081 -0.8430
   62SAPC  C218 4926   0.477   6.166   8.799 -0.3719  0.2101 -0.0195
   62SAPC  H18R 4927   0.557   6.090   8.797 -0.4377  0.1362 -2.8699
   62SAPC  H18S 4928   0.508   6.266   8.836 -0.4342  0.7141 -1.2858
   62SAPC  C219 4929   0.419   6.190   8.655 -0.2650 -0.5904  0.2337
   62SAPC  H19R 4930   0.493   6.262   8.615 -0.1275 -0.4943  0.6590
   62SAPC  H19S 4931   0.317   6.234   8.668  0.5132  1.3370 -0.0021
   62SAPC  C220 4932   0.403   6.069   8.562  0.3568 -1.2618 -0.6185
   62SAPC  H20R 4933   0.350   5.988   8.618  0.1122  0.4984  1.7658
   62SAPC  H20S 4934   0.503   6.029   8.535  0.9213 -0.8989  0.9157
   62SAPC  H20T 4935   0.347   6.088   8.468  0.1103 -2.9314 -0.8214
   62SAPC   C33 4936   0.081   6.237  10.132  0.0881 -0.4908 -0.4559
   62SAPC   H3X 4937   0.190   6.250  10.118  0.3242 -0.8369  0.9848
   62SAPC   H3Y 4938   0.056   6.329  10.189  0.1508  0.4168 -1.8583
   62SAPC   C34 4939   0.013   6.237   9.995 -0.7729 -0.0044 -0.0845
   62SAPC   H4X 4940  -0.094   6.242  10.023 -0.7105  1.4913 -0.0608
   62SAPC   H4Y 4941   0.031   6.143   9.938 -0.9776  0.2275 -0.5337
   62SAPC   C35 4942   0.050   6.356   9.904 -0.3121  0.0900 -0.0673
   62SAPC   H5X 4943   0.153   6.336   9.866 -0.4079 -1.8433  0.6128
   62SAPC   H5Y 4944   0.049   6.446   9.968  0.7308  0.0299  0.0411
   62SAPC   C36 4945  -0.045   6.373   9.786 -0.5103 -0.0458  0.9725
   62SAPC   H6X 4946  -0.150   6.398   9.811 -0.1650  0.3941  2.0030
   62SAPC   H6Y 4947  -0.050   6.269   9.745  2.7385  0.1187 -0.0026
   62SAPC   C37 4948   0.015   6.471   9.685  0.0279  0.2859  0.2209
   62SAPC   H7X 4949   0.125   6.474   9.701  0.1913 -2.4096 -0.3184
   62SAPC   H7Y 4950  -0.017   6.571   9.724 -0.6883  0.9267 -1.9333
   62SAPC   C38 4951  -0.016   6.456   9.535  0.7110 -0.0243 -0.1171
   62SAPC   H8X 4952  -0.127   6.451   9.531  0.7829 -3.7781  0.6138
   62SAPC   H8Y 4953   0.037   6.366   9.497 -0.7272 -1.6523  1.5821
   62SAPC   C39 4954   0.043   6.579   9.459  0.2394 -0.2632 -0.1352
   62SAPC   H9X 4955   0.147   6.588   9.497 -0.2558 -1.0335  1.4227
   62SAPC   H9Y 4956  -0.012   6.665   9.502 -0.0820 -0.0201 -1.0281
   62SAPC  C310 4957   0.041   6.567   9.306  0.3209  0.2191  0.3455
   62SAPC  H10X 4958  -0.065   6.538   9.290  0.7153 -0.4426 -1.1854
   62SAPC  H10Y 4959   0.100   6.481   9.268  1.4924  1.1959 -0.0724
   62SAPC  C311 4960   0.072   6.704   9.230  0.8070  0.3064  1.2297
   62SAPC  H11X 4961   0.179   6.706   9.199  0.6814 -0.6880  0.6983
   62SAPC  H11Y 4962   0.069   6.794   9.295  2.1786  0.9515  0.4388
   62SAPC  C312 4963  -0.018   6.699   9.103 -0.6942  0.2719 -0.4801
   62SAPC  H12X 4964  -0.124   6.684   9.133 -0.3586 -0.9246  0.1092
   62SAPC  H12Y 4965   0.010   6.607   9.049 -1.0889 -0.3698  0.3955
   62SAPC  C313 4966  -0.001   6.827   9.017  0.1167 -0.8812 -0.8266
   62SAPC  H13X 4967   0.106   6.847   8.995  0.5632 -0.5208  1.5633
   62SAPC  H13Y 4968  -0.041   6.904   9.087  2.8044 -0.1672 -0.0127
   62SAPC  C314 4969  -0.077   6.815   8.890  0.0616  0.5858  0.3006
   62SAPC  H14X 4970  -0.097   6.913   8.842 -0.1044  0.3012 -0.2205
   62SAPC  H14Y 4971  -0.182   6.783   8.911 -0.2940  0.8443 -1.0186
   62SAPC  C315 4972  -0.020   6.725   8.781  0.2203 -0.2594  0.3366
   62SAPC  H15X 4973   0.012   6.630   8.828 -1.1656 -0.6287  0.5723
   62SAPC  H15Y 4974   0.070   6.771   8.735 -1.0208  0.3400 -1.5444
   62SAPC  C316 4975  -0.126   6.673   8.680 -0.3592  0.1248  0.4428
   62SAPC  H16X 4976  -0.176   6.761   8.633  0.6185  1.0955  1.1973
   62SAPC  H16Y 4977  -0.201   6.601   8.717 -0.1252 -0.6563 -0.5842
   62SAPC  C317 4978  -0.064   6.596   8.565 -0.2587  0.5056  0.5874
   62SAPC  H17X 4979  -0.012   6.508   8.608 -0.7958 -1.2319 -2.1373
   62SAPC  H17Y 4980   0.013   6.658   8.514 -0.1993 -0.9954 -1.2142
   62SAPC  C318 4981  -0.168   6.537   8.466  0.1616 -0.2399 -0.3039
   62SAPC  H18X 4982  -0.248   6.612   8.445  0.0822  0.1321  1.2258
   62SAPC  H18Y 4983  -0.227   6.454   8.511 -0.4677  0.4246  0.1153
   62SAPC  H18Z 4984  -0.121   6.504   8.371 -0.9923 -1.6356 -0.4139
   63SAPC     N 4985   3.077   5.516   6.053 -0.2032  0.4828  0.1888
   63SAPC   C12 4986   3.053   5.664   6.081 -0.0150  0.1990 -0.0692
   63SAPC  H12A 4987   2.956   5.696   6.116  1.8882  3.7510  2.2660
   63SAPC  H12B 4988   3.065   5.712   5.984  1.9995  1.0171  0.5710
   63SAPC   C13 4989   2.978   5.471   5.948  0.8094 -0.4310 -0.1938
   63SAPC  H13A 4990   2.875   5.460   5.977  0.4169  0.8711 -1.1134
   63SAPC  H13B 4991   2.993   5.523   5.855  1.5348 -3.0140 -1.5870
   63SAPC  H13C 4992   3.017   5.371   5.933  0.2991 -0.8873  1.3914
   63SAPC   C14 4993   3.219   5.488   6.002  0.3808  0.0577 -0.4708
   63SAPC  H14A 4994   3.245   5.532   5.906  3.0587  2.9926  1.5029
   63SAPC  H14B 4995   3.282   5.539   6.073  0.7384  1.6540 -1.8839
   63SAPC  H14C 4996   3.247   5.384   6.002  1.1132  0.2482  1.7129
   63SAPC   C15 4997   3.048   5.440   6.177 -0.4232  0.2584 -0.4469
   63SAPC  H15A 4998   3.086   5.499   6.259 -2.6657  1.1532 -0.0185
   63SAPC  H15B 4999   2.941   5.429   6.187 -0.0713 -2.4444  0.7181
   63SAPC  H15C 5000   3.089   5.340   6.171  0.0617  0.4870 -1.0329
   63SAPC   C11 5001   3.160   5.736   6.166 -0.0994  0.0087 -0.2560
   63SAPC  H11A 5002   3.133   5.844   6.167  0.2279  0.0848  0.4019
   63SAPC  H11B 5003   3.254   5.727   6.109  1.0485  0.3039  1.5521
   63SAPC     P 5004   3.093   5.741   6.418  0.3455 -0.0221 -0.1957
   63SAPC   O13 5005   2.951   5.774   6.380 -0.2846  0.1486  0.4545
   63SAPC   O14 5006   3.104   5.637   6.528 -0.7726 -0.1594  0.1591
   63SAPC   O12 5007   3.174   5.682   6.298  0.2521 -0.0200 -0.3148
   63SAPC   O11 5008   3.171   5.867   6.458 -0.1438  0.2443  0.1703
   63SAPC    C1 5009   3.315   5.861   6.475 -0.3589  0.2413 -0.5539
   63SAPC    HA 5010   3.365   5.780   6.418 -0.6928  1.1662 -2.1799
   63SAPC    HB 5011   3.366   5.953   6.441  3.6831 -1.0145  1.6434
   63SAPC    C2 5012   3.361   5.856   6.622  0.6506 -0.5480 -0.6484
   63SAPC    HS 5013   3.467   5.890   6.624  0.5717 -0.3267 -0.0581
   63SAPC   O21 5014   3.354   5.723   6.676 -0.3215  0.3431  0.2059
   63SAPC   C21 5015   3.437   5.630   6.643  0.2471 -0.1743 -0.3817
   63SAPC   O22 5016   3.517   5.630   6.549 -0.2538  0.5042 -0.5164
   63SAPC   C22 5017   3.431   5.523   6.751 -0.5220  0.3958 -0.7298
   63SAPC   H2R 5018   3.326   5.488   6.749 -0.3649 -0.0270 -1.9271
   63SAPC   H2S 5019   3.499   5.438   6.732  0.6034  0.8314  1.2318
   63SAPC    C3 5020   3.278   5.962   6.706  0.2159 -0.4855  0.0921
   63SAPC    HX 5021   3.174   5.923   6.697 -0.9262  2.1070  1.4632
   63SAPC    HY 5022   3.274   6.052   6.640  0.9645 -1.7495 -1.7055
   63SAPC   O31 5023   3.338   5.989   6.837 -0.3196 -0.0616 -0.8859
   63SAPC   C31 5024   3.272   5.917   6.934 -0.9706 -0.7639 -1.5701
   63SAPC   O32 5025   3.175   5.853   6.918  0.6039  0.2462 -0.4591
   63SAPC   C32 5026   3.349   5.936   7.064  0.2339  0.0631 -0.4025
   63SAPC   H2X 5027   3.321   6.041   7.091 -0.3647 -0.5123  1.2865
   63SAPC   H2Y 5028   3.458   5.928   7.042  0.5279  0.6526  0.7968
   63SAPC   C23 5029   3.456   5.568   6.891  0.3291 -0.1415 -0.3527
   63SAPC   H3R 5030   3.368   5.622   6.932  1.0160  0.5927  0.1593
   63SAPC   H3S 5031   3.532   5.649   6.898 -1.0580  1.1636 -0.0874
   63SAPC   C24 5032   3.469   5.451   6.998 -0.8895 -0.0393 -0.2547
   63SAPC   H4R 5033   3.392   5.376   6.972 -1.8563  0.3094  1.5076
   63SAPC   H4S 5034   3.427   5.478   7.097 -0.2790 -2.6088  0.7293
   63SAPC   C25 5035   3.612   5.392   7.001 -0.3132  0.3258 -1.3953
   63SAPC   H5R 5036   3.652   5.332   6.918  3.6596 -1.2992  1.5369
   63SAPC   C26 5037   3.686   5.401   7.105 -0.0325  0.0707 -0.2039
   63SAPC   H6R 5038   3.779   5.342   7.103 -0.1822 -0.1763  0.1785
   63SAPC   C27 5039   3.647   5.453   7.246 -0.2905 -0.0492  0.7024
   63SAPC   H7R 5040   3.707   5.400   7.323  1.5642  0.1570 -0.5562
   63SAPC   H7S 5041   3.543   5.417   7.262 -1.5796  2.7817 -0.9789
   63SAPC   C28 5042   3.655   5.599   7.261 -0.1694  0.4582 -0.4591
   63SAPC   H8R 5043   3.637   5.660   7.170 -0.3849 -0.1374 -0.8174
   63SAPC   C29 5044   3.697   5.648   7.376  0.0562 -0.0526 -0.0201
   63SAPC   H9R 5045   3.686   5.757   7.383 -2.0207 -0.2783  0.6342
   63SAPC  C210 5046   3.737   5.576   7.502 -0.4218  0.5894  0.1063
   63SAPC  H10R 5047   3.807   5.495   7.475  0.0815  1.8085 -2.4088
   63SAPC  H10S 5048   3.651   5.531   7.556  0.8756 -0.8623  0.9835
   63SAPC  C211 5049   3.808   5.672   7.599 -0.0003  0.4407 -0.1526
   63SAPC  H11R 5050   3.823   5.779   7.577  0.8213  0.5047  0.6769
   63SAPC  C212 5051   3.847   5.625   7.722  0.4746  0.0352  0.3648
   63SAPC  H12R 5052   3.899   5.690   7.795  0.9711  1.6914 -1.4099
   63SAPC  C213 5053   3.842   5.488   7.781  0.0419 -0.6617  0.1602
   63SAPC  H13R 5054   3.943   5.453   7.812 -0.4432 -2.6870 -0.4716
   63SAPC  H13S 5055   3.820   5.409   7.706 -1.5398 -0.4575  0.3875
   63SAPC  C214 5056   3.742   5.479   7.893 -0.0527  0.7116 -0.9885
   63SAPC  H14R 5057   3.636   5.486   7.863 -0.0725 -0.4917 -1.2597
   63SAPC  C215 5058   3.769   5.438   8.019 -0.3028 -0.6132 -0.0425
   63SAPC  H15R 5059   3.685   5.427   8.090  1.2625 -1.3378  1.7394
   63SAPC  C216 5060   3.905   5.402   8.084  0.2986 -0.5554  0.5526
   63SAPC  H16R 5061   3.956   5.491   8.125 -1.9531  0.9843  0.0833
   63SAPC  H16S 5062   3.977   5.370   8.005  0.2394 -1.6986  0.9509
   63SAPC  C217 5063   3.892   5.284   8.170 -0.4316  0.5003 -0.5993
   63SAPC  H17R 5064   3.851   5.199   8.111 -0.2898 -0.0712  0.1244
   63SAPC  H17S 5065   3.827   5.306   8.257  2.6493 -2.3518  2.5891
   63SAPC  C218 5066   4.036   5.236   8.217 -0.2472 -0.4049 -0.3612
   63SAPC  H18R 5067   4.086   5.327   8.256 -0.0583 -0.7622  0.2263
   63SAPC  H18S 5068   4.082   5.211   8.119 -0.1668 -1.5972 -0.0285
   63SAPC  C219 5069   4.032   5.116   8.304 -0.3143 -0.1775 -0.3531
   63SAPC  H19R 5070   4.135   5.073   8.309  0.1188  0.5884 -2.1648
   63SAPC  H19S 5071   3.968   5.035   8.262 -2.4904  1.1961  0.2702
   63SAPC  C220 5072   3.998   5.149   8.454 -0.2779 -0.0152  0.3892
   63SAPC  H20R 5073   3.888   5.167   8.460 -0.6746 -0.9750 -3.0631
   63SAPC  H20S 5074   4.046   5.243   8.489  0.9098  0.4235 -2.2719
   63SAPC  H20T 5075   4.028   5.062   8.517  1.6782  1.9711  2.2770
   63SAPC   C33 5076   3.288   5.851   7.182 -0.5322 -0.5386 -0.5519
   63SAPC   H3X 5077   3.301   5.741   7.167 -1.2744 -0.9380  1.5282
   63SAPC   H3Y 5078   3.177   5.851   7.178 -0.4739  0.1080 -3.6921
   63SAPC   C34 5079   3.368   5.881   7.313 -1.1096  0.5667  0.4488
   63SAPC   H4X 5080   3.368   5.991   7.329  0.3203  0.4517  1.3452
   63SAPC   H4Y 5081   3.475   5.852   7.298 -1.3916 -0.2177 -0.0750
   63SAPC   C35 5082   3.311   5.813   7.439 -0.2652 -0.4064 -0.5419
   63SAPC   H5X 5083   3.350   5.709   7.445 -0.2487 -0.2838  2.2055
   63SAPC   H5Y 5084   3.200   5.807   7.443 -0.1344 -2.4472  0.7562
   63SAPC   C36 5085   3.360   5.874   7.575  0.7859  0.1164  0.9193
   63SAPC   H6X 5086   3.305   5.970   7.582  0.6081  0.2197 -1.3894
   63SAPC   H6Y 5087   3.470   5.892   7.571  1.5028 -3.8656  0.4383
   63SAPC   C37 5088   3.325   5.781   7.693 -1.1435  0.0210  0.5746
   63SAPC   H7X 5089   3.387   5.689   7.682 -1.7831 -0.4693  1.0491
   63SAPC   H7Y 5090   3.220   5.749   7.676 -1.7399 -0.1680  4.1801
   63SAPC   C38 5091   3.345   5.843   7.832  0.1785  0.2988  0.8283
   63SAPC   H8X 5092   3.312   5.763   7.901  2.8981 -0.0320  1.7752
   63SAPC   H8Y 5093   3.274   5.927   7.852 -1.3747 -1.1714  1.6210
   63SAPC   C39 5094   3.490   5.887   7.863  0.1807  0.5300 -0.1513
   63SAPC   H9X 5095   3.521   5.940   7.770 -2.7329 -2.2196 -2.7927
   63SAPC   H9Y 5096   3.553   5.795   7.860 -0.2007  0.2955 -2.7821
   63SAPC  C310 5097   3.522   5.986   7.974  0.7021  0.0371 -0.6592
   63SAPC  H10X 5098   3.456   6.075   7.962 -0.0724 -0.4083  0.2256
   63SAPC  H10Y 5099   3.627   6.020   7.962  0.7812 -0.2644 -0.8304
   63SAPC  C311 5100   3.510   5.929   8.115  0.1010  0.7455  0.5043
   63SAPC  H11X 5101   3.416   5.869   8.117 -0.8837  2.2664  1.9223
   63SAPC  H11Y 5102   3.497   6.007   8.194 -2.4835  0.0428  0.8228
   63SAPC  C312 5103   3.632   5.841   8.156  0.1877  0.1159  0.0624
   63SAPC  H12X 5104   3.724   5.901   8.140 -0.2942  0.6357 -0.8625
   63SAPC  H12Y 5105   3.631   5.753   8.089  0.3399 -0.4471  0.8025
   63SAPC  C313 5106   3.628   5.805   8.305  0.1852  0.3613 -0.1999
   63SAPC  H13X 5107   3.545   5.732   8.320  0.1016  0.6435  0.7702
   63SAPC  H13Y 5108   3.598   5.901   8.353 -2.6904  0.1100 -1.3978
   63SAPC  C314 5109   3.762   5.748   8.351 -0.1943  0.4607  0.1473
   63SAPC  H14X 5110   3.842   5.818   8.317 -1.1171  0.3791 -2.3302
   63SAPC  H14Y 5111   3.782   5.652   8.298  0.9664  2.2475 -2.7827
   63SAPC  C315 5112   3.778   5.726   8.506  0.3197 -0.8397 -0.5401
   63SAPC  H15X 5113   3.677   5.717   8.551  0.2149 -2.6216 -1.0858
   63SAPC  H15Y 5114   3.827   5.810   8.561 -2.2672 -0.2588  0.9604
   63SAPC  C316 5115   3.865   5.605   8.534 -0.8024 -0.8527 -0.3324
   63SAPC  H16X 5116   3.959   5.602   8.476 -1.3349 -0.2178 -1.2320
   63SAPC  H16Y 5117   3.808   5.512   8.510 -1.8669 -0.0492 -0.9683
   63SAPC  C317 5118   3.895   5.601   8.682  0.4840  0.1694  0.7890
   63SAPC  H17X 5119   3.800   5.567   8.728  1.5683 -0.9398  2.2919
   63SAPC  H17Y 5120   3.922   5.704   8.711 -0.5548  0.5610  0.3849
   63SAPC  C318 5121   3.999   5.501   8.726  0.5458  0.3061 -0.0289
   63SAPC  H18X 5122   4.099   5.547   8.710  0.4588  1.3636  2.3260
   63SAPC  H18Y 5123   4.001   5.410   8.662  1.4034 -0.3396  0.9118
   63SAPC  H18Z 5124   3.983   5.471   8.831  1.5190  0.4543  0.1574
   64SAPC     N 5125   5.953   4.680   5.784  0.4614 -0.3914 -0.0553
   64SAPC   C12 5126   6.008   4.588   5.889  0.0425 -0.2916 -0.5114
   64SAPC  H12A 5127   6.070   4.509   5.849 -0.7395 -1.7457  1.1008
   64SAPC  H12B 5128   5.926   4.533   5.933 -0.3706  1.1159  0.4983
   64SAPC   C13 5129   6.058   4.740   5.698  0.4253  0.3926  0.1841
   64SAPC  H13A 5130   6.121   4.811   5.751 -0.2482 -0.1441  1.7069
   64SAPC  H13B 5131   6.132   4.664   5.676 -1.4424 -0.2757 -4.3384
   64SAPC  H13C 5132   6.020   4.778   5.604  2.9848  0.0341 -1.0459
   64SAPC   C14 5133   5.871   4.598   5.689 -0.4798  0.3387  0.5140
   64SAPC  H14A 5134   5.942   4.534   5.640 -0.6591 -0.7669  1.6673
   64SAPC  H14B 5135   5.793   4.535   5.731  1.2452 -1.3544  1.2434
   64SAPC  H14C 5136   5.834   4.662   5.611 -0.5765  0.3319  0.5536
   64SAPC   C15 5137   5.879   4.797   5.841  0.2959 -0.1763 -0.2255
   64SAPC  H15A 5138   5.868   4.879   5.772 -1.8151 -0.3129 -0.0881
   64SAPC  H15B 5139   5.781   4.758   5.865  0.5848 -1.6439 -1.3454
   64SAPC  H15C 5140   5.927   4.839   5.928 -0.2216 -1.3243  0.6384
   64SAPC   C11 5141   6.098   4.647   6.002  0.2279 -0.4838 -0.1551
   64SAPC  H11A 5142   6.182   4.688   5.943 -0.0421  0.0388 -0.1808
   64SAPC  H11B 5143   6.114   4.557   6.065  0.0207  0.6908  1.6022
   64SAPC     P 5144   6.105   4.872   6.127 -0.0336 -0.2267 -0.1407
   64SAPC   O13 5145   6.247   4.884   6.099 -0.0474 -0.2158 -0.5139
   64SAPC   O14 5146   6.021   4.983   6.074 -0.3188 -0.0469 -0.0613
   64SAPC   O12 5147   6.037   4.740   6.086  0.1414 -0.7282 -0.2555
   64SAPC   O11 5148   6.083   4.863   6.280 -0.0379  0.3387 -0.0966
   64SAPC    C1 5149   5.952   4.819   6.331 -0.4817  0.4980 -0.2932
   64SAPC    HA 5150   5.869   4.867   6.275 -1.6047 -0.9053  0.1442
   64SAPC    HB 5151   5.939   4.709   6.328 -0.0949  0.4168  0.7966
   64SAPC    C2 5152   5.922   4.866   6.477 -0.6899  0.4641  0.5993
   64SAPC    HS 5153   5.916   4.977   6.475  1.4960  0.5890 -1.9024
   64SAPC   O21 5154   6.024   4.811   6.565 -0.1296  0.1398  0.2287
   64SAPC   C21 5155   6.044   4.871   6.675 -0.0061 -0.5280  0.2379
   64SAPC   O22 5156   6.007   4.985   6.706 -0.1715 -0.4927  0.1357
   64SAPC   C22 5157   6.114   4.774   6.762  0.3119 -0.5701  0.0224
   64SAPC   H2R 5158   6.118   4.671   6.721  3.0738 -0.5967  0.2291
   64SAPC   H2S 5159   6.218   4.813   6.775 -0.1854  1.7167 -2.3618
   64SAPC    C3 5160   5.788   4.808   6.524  0.4143  0.3954 -0.0827
   64SAPC    HX 5161   5.804   4.699   6.513  0.2149  0.0906  2.4450
   64SAPC    HY 5162   5.715   4.844   6.448 -0.5011  0.2075  0.6958
   64SAPC   O31 5163   5.759   4.831   6.663  0.0106 -0.0156 -0.1393
   64SAPC   C31 5164   5.686   4.937   6.683  1.6957 -0.3481  0.0544
   64SAPC   O32 5165   5.632   5.005   6.597 -0.6389  0.0911  0.4743
   64SAPC   C32 5166   5.681   4.974   6.832  0.2869  0.7168  0.4209
   64SAPC   H2X 5167   5.779   4.944   6.876  2.2008  2.1590 -2.6583
   64SAPC   H2Y 5168   5.595   4.919   6.875 -0.8200  0.9669 -1.4318
   64SAPC   C23 5169   6.034   4.757   6.894 -0.1160  0.1165 -0.0313
   64SAPC   H3R 5170   5.932   4.727   6.861 -0.2935 -0.5093  1.0405
   64SAPC   H3S 5171   6.041   4.855   6.947 -1.8612  1.0866 -1.5647
   64SAPC   C24 5172   6.108   4.653   6.982  0.5879  0.7293 -0.1464
   64SAPC   H4R 5173   6.141   4.571   6.916  0.3175 -0.3584  1.0532
   64SAPC   H4S 5174   6.055   4.606   7.068  2.0804 -1.6605 -0.4858
   64SAPC   C25 5175   6.231   4.703   7.053  0.1166 -0.2238 -0.2408
   64SAPC   H5R 5176   6.324   4.691   6.996  0.4398 -0.1857  0.2771
   64SAPC   C26 5177   6.233   4.773   7.167  0.1848 -0.3073 -0.5307
   64SAPC   H6R 5178   6.327   4.819   7.200 -0.4864  0.1673  0.7722
   64SAPC   C27 5179   6.118   4.810   7.262 -0.8113 -0.1277  0.3510
   64SAPC   H7R 5180   6.029   4.844   7.206  0.1812  3.7678  1.0089
   64SAPC   H7S 5181   6.159   4.891   7.326 -2.0352 -0.4937  1.6289
   64SAPC   C28 5182   6.079   4.696   7.350 -0.0178  0.4723  0.3560
   64SAPC   H8R 5183   6.098   4.599   7.303 -1.3674 -0.7320  2.2266
   64SAPC   C29 5184   6.045   4.702   7.479  0.4810  0.0644 -0.4903
   64SAPC   H9R 5185   6.017   4.607   7.527  0.2642  0.4863  0.2252
   64SAPC  C210 5186   6.032   4.823   7.574  0.6322  0.3300 -0.3572
   64SAPC  H10R 5187   6.130   4.874   7.566 -0.3090  2.0194 -1.2946
   64SAPC  H10S 5188   6.023   4.786   7.679 -0.2855 -0.5141 -0.7165
   64SAPC  C211 5189   5.912   4.916   7.557 -0.3204 -0.1609 -0.5779
   64SAPC  H11R 5190   5.877   4.936   7.454 -2.6192 -2.8173 -0.3825
   64SAPC  C212 5191   5.847   4.983   7.651 -0.5864 -0.1837 -0.1501
   64SAPC  H12R 5192   5.759   5.040   7.619 -0.5927  0.9363  1.7942
   64SAPC  C213 5193   5.879   4.993   7.799  0.7204  0.5116 -0.5083
   64SAPC  H13R 5194   5.984   4.968   7.824  1.7164  3.1694 -1.8944
   64SAPC  H13S 5195   5.808   4.928   7.855  0.2576  0.4857 -1.1266
   64SAPC  C214 5196   5.854   5.135   7.842  0.1346 -0.1289 -0.0951
   64SAPC  H14R 5197   5.832   5.213   7.768  0.9006  0.3184  0.1463
   64SAPC  C215 5198   5.867   5.184   7.968 -0.2863  0.0269  0.4499
   64SAPC  H15R 5199   5.857   5.289   7.998 -2.6130  0.1002 -0.4821
   64SAPC  C216 5200   5.901   5.104   8.093  0.0762  0.3497 -0.7908
   64SAPC  H16R 5201   6.004   5.128   8.129 -1.1606  0.2746  2.9934
   64SAPC  H16S 5202   5.902   4.996   8.067  0.8594 -0.4843  2.4206
   64SAPC  C217 5203   5.798   5.120   8.209  0.2780  0.0827 -0.3721
   64SAPC  H17R 5204   5.778   5.223   8.244 -2.8393 -1.1962  1.8440
   64SAPC  H17S 5205   5.841   5.067   8.297 -0.9422  1.6224  1.1663
   64SAPC  C218 5206   5.664   5.054   8.175 -0.2239  0.1269  0.2916
   64SAPC  H18R 5207   5.679   4.947   8.149  2.8501  1.2260 -2.8757
   64SAPC  H18S 5208   5.619   5.093   8.081 -1.1988  0.8243  1.0395
   64SAPC  C219 5209   5.556   5.066   8.288  0.1934 -0.1198  0.2181
   64SAPC  H19R 5210   5.462   5.027   8.242  0.5414  0.6180 -1.1587
   64SAPC  H19S 5211   5.520   5.170   8.304 -1.3140 -0.8953  2.1626
   64SAPC  C220 5212   5.578   4.997   8.424 -0.0704 -0.3009  0.2467
   64SAPC  H20R 5213   5.664   5.047   8.473  1.0598 -0.6189 -1.3795
   64SAPC  H20S 5214   5.584   4.888   8.405  0.0448  0.1802 -2.8137
   64SAPC  H20T 5215   5.483   5.019   8.478 -1.3361 -1.3038 -1.4970
   64SAPC   C33 5216   5.655   5.124   6.856  0.4830 -0.6652 -0.0766
   64SAPC   H3X 5217   5.563   5.148   6.798 -0.7624  1.6636  2.7154
   64SAPC   H3Y 5218   5.735   5.187   6.811  3.7182  0.2638  6.4368
   64SAPC   C34 5219   5.630   5.175   7.003 -0.0881  0.5135  0.1053
   64SAPC   H4X 5220   5.529   5.145   7.037  1.0864 -2.1536  1.4221
   64SAPC   H4Y 5221   5.611   5.283   6.987  0.1062  0.4086 -0.8953
   64SAPC   C35 5222   5.743   5.145   7.110  0.0656  0.0914 -0.5769
   64SAPC   H5X 5223   5.845   5.163   7.069  0.3081 -0.2504 -0.1312
   64SAPC   H5Y 5224   5.724   5.039   7.135  0.2549  0.3737  0.8431
   64SAPC   C36 5225   5.720   5.221   7.246  0.7285  0.1550 -0.0192
   64SAPC   H6X 5226   5.725   5.330   7.223  2.3663  0.0698 -0.1208
   64SAPC   H6Y 5227   5.799   5.185   7.315  1.9980  0.6627 -1.2004
   64SAPC   C37 5228   5.588   5.199   7.321 -0.0570  0.5131  0.5215
   64SAPC   H7X 5229   5.554   5.094   7.307 -0.0090  0.6036 -0.3143
   64SAPC   H7Y 5230   5.513   5.259   7.265  1.2217 -0.4702 -2.3617
   64SAPC   C38 5231   5.585   5.249   7.465  0.3269  0.4338 -0.6050
   64SAPC   H8X 5232   5.594   5.360   7.471  0.4038  0.3446  0.9629
   64SAPC   H8Y 5233   5.676   5.217   7.519  0.6908 -1.4825 -2.2956
   64SAPC   C39 5234   5.466   5.204   7.547  0.8670 -0.7646 -0.1248
   64SAPC   H9X 5235   5.455   5.094   7.560  3.0431 -0.7711  1.8905
   64SAPC   H9Y 5236   5.363   5.238   7.522  0.2224  0.1065  3.3644
   64SAPC  C310 5237   5.488   5.242   7.703  0.1419  0.2789 -0.3523
   64SAPC  H10X 5238   5.567   5.179   7.750  0.8471  2.0246  0.8715
   64SAPC  H10Y 5239   5.401   5.198   7.756 -1.0336  2.1244 -0.6990
   64SAPC  C311 5240   5.497   5.393   7.727 -0.0664  0.1076  1.1016
   64SAPC  H11X 5241   5.396   5.430   7.701 -0.2491 -0.6114  0.7683
   64SAPC  H11Y 5242   5.580   5.434   7.665  0.5282 -0.7872  1.3027
   64SAPC  C312 5243   5.527   5.418   7.868 -0.1109  0.1186 -0.1220
   64SAPC  H12X 5244   5.588   5.511   7.881 -0.8652  0.6950 -0.6741
   64SAPC  H12Y 5245   5.596   5.335   7.894 -0.6443 -0.1837  0.3328
   64SAPC  C313 5246   5.402   5.422   7.957  0.1079  0.2669  0.0512
   64SAPC  H13X 5247   5.349   5.330   7.924 -0.2646  0.8473 -0.9854
   64SAPC  H13Y 5248   5.330   5.505   7.940  0.4150  0.5686  0.2245
   64SAPC  C314 5249   5.421   5.415   8.108  0.0919 -0.0085 -0.1129
   64SAPC  H14X 5250   5.495   5.487   8.148  1.6821 -0.5864 -1.9127
   64SAPC  H14Y 5251   5.451   5.308   8.115 -2.1738 -0.6924 -0.5794
   64SAPC  C315 5252   5.293   5.418   8.190 -0.6762 -0.6985 -0.2082
   64SAPC  H15X 5253   5.216   5.341   8.168 -0.2642 -0.5068 -2.4006
   64SAPC  H15Y 5254   5.233   5.508   8.165 -2.5545 -1.4945  1.3915
   64SAPC  C316 5255   5.321   5.429   8.346 -0.1537 -0.2010  1.0679
   64SAPC  H16X 5256   5.402   5.502   8.366 -2.1950  2.0843  1.3444
   64SAPC  H16Y 5257   5.355   5.329   8.378  2.2303  0.4323  0.5943
   64SAPC  C317 5258   5.200   5.472   8.431  0.3611 -0.0831 -0.8745
   64SAPC  H17X 5259   5.109   5.417   8.400  0.0720 -0.4326  0.5452
   64SAPC  H17Y 5260   5.178   5.579   8.410  1.0915  0.2851  0.1619
   64SAPC  C318 5261   5.215   5.457   8.586  0.5321  0.6177  0.7085
   64SAPC  H18X 5262   5.299   5.517   8.627  3.0761 -2.2725 -0.1202
   64SAPC  H18Y 5263   5.243   5.353   8.612 -0.5351  0.7657  2.5513
   64SAPC  H18Z 5264   5.119   5.473   8.640 -0.3591  0.5448 -0.8481
   65SAPC     N 5265   5.448   0.643   5.877 -0.3854  0.4897  0.0672
   65SAPC   C12 5266   5.524   0.544   5.971  0.0531 -0.2181 -0.6048
   65SAPC  H12A 5267   5.630   0.557   5.986 -0.0617 -1.7888  1.7723
   65SAPC  H12B 5268   5.527   0.448   5.922  2.0390 -1.1912  1.3608
   65SAPC   C13 5269   5.303   0.608   5.871  0.3683 -0.0077  0.9870
   65SAPC  H13A 5270   5.257   0.609   5.969 -0.4998  2.9305  0.6191
   65SAPC  H13B 5271   5.245   0.671   5.804 -0.1677 -1.7740 -0.2300
   65SAPC  H13C 5272   5.290   0.511   5.826  0.9233  0.5357 -0.3594
   65SAPC   C14 5273   5.454   0.779   5.929 -0.1232  0.3584  0.1636
   65SAPC  H14A 5274   5.437   0.770   6.036 -0.2210  0.8019  0.1871
   65SAPC  H14B 5275   5.544   0.836   5.908  0.5238 -1.6785 -2.8639
   65SAPC  H14C 5276   5.378   0.848   5.896  0.8745  2.0619  1.3293
   65SAPC   C15 5277   5.499   0.636   5.736 -0.0967 -0.3557  0.7152
   65SAPC  H15A 5278   5.429   0.691   5.674  0.0687 -0.0120  0.8323
   65SAPC  H15B 5279   5.600   0.671   5.723  0.0372 -0.7423  0.7081
   65SAPC  H15C 5280   5.493   0.533   5.705  2.1599 -0.4013  0.3643
   65SAPC   C11 5281   5.461   0.511   6.109  0.0950  0.1740  0.6655
   65SAPC  H11A 5282   5.417   0.606   6.147 -2.2879 -1.0451  1.0794
   65SAPC  H11B 5283   5.548   0.496   6.177  0.1809 -0.9592  0.3226
   65SAPC     P 5284   5.410   0.265   6.110  0.1477  0.0838  0.7102
   65SAPC   O13 5285   5.301   0.190   6.051 -0.1127 -0.3740 -0.0869
   65SAPC   O14 5286   5.536   0.252   6.036 -0.2186  0.6783 -0.3256
   65SAPC   O12 5287   5.361   0.411   6.114 -0.3112 -0.7389 -0.5748
   65SAPC   O11 5288   5.426   0.223   6.257  0.0526 -0.1101  0.1562
   65SAPC    C1 5289   5.319   0.221   6.346  0.3504 -0.3069 -0.3628
   65SAPC    HA 5290   5.294   0.327   6.366  1.4753 -0.4158  1.6935
   65SAPC    HB 5291   5.225   0.178   6.306 -0.3888  1.3559 -0.4479
   65SAPC    C2 5292   5.344   0.131   6.467 -0.4878 -0.2369 -0.3569
   65SAPC    HS 5293   5.258   0.115   6.536 -0.1148  0.2745  0.2247
   65SAPC   O21 5294   5.453   0.176   6.551  0.0566  0.0171 -0.0314
   65SAPC   C21 5295   5.449   0.304   6.587  0.3017  0.7705 -0.2247
   65SAPC   O22 5296   5.348   0.368   6.579  0.0754 -0.1788 -0.4551
   65SAPC   C22 5297   5.588   0.349   6.629 -0.3868  0.0026 -0.5966
   65SAPC   H2R 5298   5.631   0.265   6.687  1.5880  1.4652  0.0994
   65SAPC   H2S 5299   5.653   0.371   6.541  1.8054 -0.0647  0.9735
   65SAPC    C3 5300   5.369  -0.015   6.427 -0.0441  0.3431  0.1249
   65SAPC    HX 5301   5.441  -0.022   6.342 -1.0656  0.5216 -0.7621
   65SAPC    HY 5302   5.278  -0.060   6.382  0.8100 -0.9373 -0.3332
   65SAPC   O31 5303   5.423  -0.108   6.529  0.0110  0.0338  0.3576
   65SAPC   C31 5304   5.558  -0.098   6.554  0.2662  0.3256 -0.5208
   65SAPC   O32 5305   5.641  -0.049   6.480 -0.1565 -1.3075 -0.2804
   65SAPC   C32 5306   5.592  -0.165   6.694  0.0925  0.3904 -0.7948
   65SAPC   H2X 5307   5.581  -0.274   6.679  2.0629 -0.1583  1.5115
   65SAPC   H2Y 5308   5.518  -0.133   6.770  2.5355  1.0142  1.3992
   65SAPC   C23 5309   5.589   0.474   6.725 -1.1330  0.0495 -0.0900
   65SAPC   H3R 5310   5.500   0.480   6.790 -1.1927  1.3439 -0.2705
   65SAPC   H3S 5311   5.573   0.557   6.653 -2.4075  0.9783  1.2397
   65SAPC   C24 5312   5.725   0.496   6.797  0.4773  0.9889  0.3732
   65SAPC   H4R 5313   5.801   0.498   6.717 -0.0867 -0.5537 -0.2139
   65SAPC   H4S 5314   5.739   0.399   6.849 -0.4040 -0.9633 -2.8547
   65SAPC   C25 5315   5.745   0.618   6.893 -0.0465 -0.0767 -0.0069
   65SAPC   H5R 5316   5.728   0.719   6.852  0.1983  0.2308  0.6334
   65SAPC   C26 5317   5.785   0.607   7.020  0.3839  0.2330  0.4075
   65SAPC   H6R 5318   5.803   0.699   7.079  1.9833 -0.8987  1.7317
   65SAPC   C27 5319   5.805   0.478   7.100 -0.9501  1.0820  0.0061
   65SAPC   H7R 5320   5.904   0.485   7.150  0.0898  0.2641 -1.8825
   65SAPC   H7S 5321   5.810   0.391   7.031  3.0777 -1.8495  3.7805
   65SAPC   C28 5322   5.693   0.458   7.200 -0.4666  0.3723  0.8879
   65SAPC   H8R 5323   5.599   0.417   7.160 -0.4364  2.0837 -1.0212
   65SAPC   C29 5324   5.709   0.475   7.336 -0.4236  0.3564 -0.1136
   65SAPC   H9R 5325   5.623   0.459   7.404  0.3321 -0.4293  0.6762
   65SAPC  C210 5326   5.825   0.536   7.411 -0.2871  0.5319 -0.4680
   65SAPC  H10R 5327   5.784   0.617   7.476 -0.0577  0.7069 -0.5419
   65SAPC  H10S 5328   5.909   0.576   7.351  1.3628 -0.3754  1.1823
   65SAPC  C211 5329   5.887   0.433   7.504 -0.2176  1.4162 -0.3727
   65SAPC  H11R 5330   5.895   0.332   7.460  1.4847  1.2784  0.2201
   65SAPC  C212 5331   5.915   0.447   7.634 -0.0639 -0.3537 -0.0027
   65SAPC  H12R 5332   5.951   0.362   7.693 -1.2880  0.3487  1.8086
   65SAPC  C213 5333   5.906   0.574   7.721  0.4490 -0.1547 -0.2740
   65SAPC  H13R 5334   5.957   0.651   7.658 -2.7981  1.9430 -0.4557
   65SAPC  H13S 5335   5.963   0.554   7.814 -0.8916  1.2093  0.8610
   65SAPC  C214 5336   5.763   0.616   7.765  0.5264 -0.1055  1.0369
   65SAPC  H14R 5337   5.703   0.688   7.707 -1.7256 -0.4974  2.8273
   65SAPC  C215 5338   5.687   0.558   7.858  0.1382 -0.3566  0.3076
   65SAPC  H15R 5339   5.588   0.600   7.884  1.4348  2.1841  1.3312
   65SAPC  C216 5340   5.727   0.437   7.939 -0.0122 -0.1427 -0.1567
   65SAPC  H16R 5341   5.835   0.416   7.930 -0.3115 -2.6668  1.5696
   65SAPC  H16S 5342   5.681   0.347   7.892 -0.9003  0.1244  0.1974
   65SAPC  C217 5343   5.705   0.449   8.087 -0.2005 -0.0879  0.5839
   65SAPC  H17R 5344   5.723   0.353   8.141  0.9446  1.7391  3.5537
   65SAPC  H17S 5345   5.605   0.488   8.115 -0.9525 -0.8116 -1.0074
   65SAPC  C218 5346   5.803   0.556   8.156 -0.0937  0.1022  0.2826
   65SAPC  H18R 5347   5.758   0.605   8.245 -2.9791 -0.7816 -0.6299
   65SAPC  H18S 5348   5.811   0.642   8.086  1.7028 -1.3019 -1.2862
   65SAPC  C219 5349   5.948   0.511   8.185  0.2706 -0.4096 -0.9782
   65SAPC  H19R 5350   6.002   0.602   8.218 -1.8082  0.1564  0.9931
   65SAPC  H19S 5351   5.995   0.489   8.086  2.2925  0.3406 -0.2030
   65SAPC  C220 5352   5.962   0.406   8.296 -1.0857  0.3826  0.0597
   65SAPC  H20R 5353   6.066   0.369   8.310 -0.5218  2.1208  0.5557
   65SAPC  H20S 5354   5.914   0.316   8.252 -1.4418 -0.8255  2.8271
   65SAPC  H20T 5355   5.924   0.444   8.393  0.2611 -0.7695  1.0573
   65SAPC   C33 5356   5.734  -0.136   6.743 -0.1539 -0.1538 -0.0120
   65SAPC   H3X 5357   5.740  -0.032   6.781  1.2310 -0.0333 -0.5052
   65SAPC   H3Y 5358   5.800  -0.156   6.655 -0.4603 -1.7067  0.1026
   65SAPC   C34 5359   5.776  -0.235   6.853 -0.0908  0.4519 -0.2335
   65SAPC   H4X 5360   5.886  -0.237   6.863  0.1635  0.1435 -2.7165
   65SAPC   H4Y 5361   5.768  -0.338   6.812 -0.3548  0.3066  0.1793
   65SAPC   C35 5362   5.706  -0.224   6.984 -0.2463 -0.2277 -0.1626
   65SAPC   H5X 5363   5.724  -0.307   7.056  0.3662  3.2875  3.9846
   65SAPC   H5Y 5364   5.597  -0.236   6.966 -0.4700 -0.2795  1.1921
   65SAPC   C36 5365   5.756  -0.097   7.061 -0.6302  0.5157  0.0347
   65SAPC   H6X 5366   5.715  -0.011   7.004  0.3203  0.4502 -0.7605
   65SAPC   H6Y 5367   5.867  -0.091   7.066 -0.6697  1.6847 -0.4255
   65SAPC   C37 5368   5.702  -0.088   7.206  0.7173 -0.5929 -0.0954
   65SAPC   H7X 5369   5.658  -0.184   7.238  0.3556 -0.8078 -1.2082
   65SAPC   H7Y 5370   5.610  -0.026   7.200  0.6457 -0.5005  1.7050
   65SAPC   C38 5371   5.800  -0.020   7.298  0.4353  0.4504 -0.4303
   65SAPC   H8X 5372   5.829   0.081   7.262 -2.4516  2.3987  2.3923
   65SAPC   H8Y 5373   5.884  -0.090   7.316 -1.5088 -1.6219  0.8332
   65SAPC   C39 5374   5.738  -0.009   7.439  0.9248  0.6180  0.2384
   65SAPC   H9X 5375   5.813   0.034   7.508 -1.2949  0.0520  3.0713
   65SAPC   H9Y 5376   5.728  -0.111   7.483  2.1615  0.5619  0.3949
   65SAPC  C310 5377   5.606   0.067   7.447  0.3857  0.0401  0.2356
   65SAPC  H10X 5378   5.524   0.016   7.391  0.3637  0.9108 -0.5347
   65SAPC  H10Y 5379   5.616   0.169   7.405 -0.8552  0.0872  0.0279
   65SAPC  C311 5380   5.564   0.085   7.592  0.1547  0.3107  0.1860
   65SAPC  H11X 5381   5.630   0.160   7.641  0.7771 -0.0403 -0.1081
   65SAPC  H11Y 5382   5.564  -0.009   7.651  2.4688 -0.5933 -1.1922
   65SAPC  C312 5383   5.427   0.152   7.598  0.0597 -0.4414  0.1347
   65SAPC  H12X 5384   5.421   0.243   7.535 -2.7788 -0.2327  0.6199
   65SAPC  H12Y 5385   5.410   0.193   7.700 -0.9298  1.2358 -0.6769
   65SAPC  C313 5386   5.314   0.057   7.563  0.5130 -0.7745  0.2330
   65SAPC  H13X 5387   5.336  -0.035   7.620 -1.7883 -1.4349  0.1143
   65SAPC  H13Y 5388   5.311   0.025   7.457  0.0108  0.2076 -0.0595
   65SAPC  C314 5389   5.178   0.099   7.614 -1.3112 -0.0984 -0.2919
   65SAPC  H14X 5390   5.148   0.193   7.562 -0.7087 -0.2783 -0.9656
   65SAPC  H14Y 5391   5.197   0.126   7.720 -4.2145 -1.8164  0.7164
   65SAPC  C315 5392   5.065  -0.005   7.599  0.7333 -0.3147 -0.4632
   65SAPC  H15X 5393   4.986   0.022   7.672  1.9532 -0.4511  0.9336
   65SAPC  H15Y 5394   5.118  -0.100   7.622  0.0001 -0.5247  0.3689
   65SAPC  C316 5395   4.995  -0.007   7.464  0.1358  0.2658 -0.0306
   65SAPC  H16X 5396   4.991   0.091   7.414  0.1028  0.6662  0.7436
   65SAPC  H16Y 5397   4.892  -0.048   7.476  1.1079 -2.1142  0.4869
   65SAPC  C317 5398   5.073  -0.093   7.367  0.5126  0.2201  0.2556
   65SAPC  H17X 5399   5.133  -0.165   7.427 -1.3788  0.3497  2.3730
   65SAPC  H17Y 5400   5.140  -0.030   7.305  0.5451  0.4457  0.5147
   65SAPC  C318 5401   4.974  -0.170   7.276 -0.3367  0.4344  0.2327
   65SAPC  H18X 5402   4.925  -0.094   7.212 -0.2798 -0.5306 -0.9752
   65SAPC  H18Y 5403   4.899  -0.231   7.331 -1.9066  2.0313 -0.1103
   65SAPC  H18Z 5404   5.033  -0.241   7.215 -0.4152  0.4643  0.1225
   66SAPC     N 5405   3.079   6.550   5.858  0.0506 -0.2717  0.6854
   66SAPC   C12 5406   3.142   6.521   5.994  0.1278  0.1761 -0.1123
   66SAPC  H12A 5407   3.176   6.613   6.040 -1.6297  0.4112  0.7672
   66SAPC  H12B 5408   3.223   6.451   5.984  0.0499  0.2022 -0.9567
   66SAPC   C13 5409   2.947   6.602   5.868 -0.1975 -0.4314  0.4900
   66SAPC  H13A 5410   2.877   6.522   5.886 -0.0111 -0.6838  0.1070
   66SAPC  H13B 5411   2.940   6.683   5.939  1.9825  0.2256  0.0132
   66SAPC  H13C 5412   2.916   6.654   5.779 -0.7382 -0.6168  0.5709
   66SAPC   C14 5413   3.169   6.657   5.797  0.0433  0.3513 -0.1808
   66SAPC  H14A 5414   3.165   6.745   5.858  0.8724 -0.2314  0.7385
   66SAPC  H14B 5415   3.274   6.633   5.785  0.2799  1.2057  0.1921
   66SAPC  H14C 5416   3.149   6.669   5.691  2.2979  1.5314 -0.4982
   66SAPC   C15 5417   3.085   6.427   5.771 -0.3988  0.4186  0.0479
   66SAPC  H15A 5418   3.189   6.400   5.765  0.3445  3.6376 -2.9915
   66SAPC  H15B 5419   3.041   6.341   5.820 -1.8100 -0.7766 -3.1403
   66SAPC  H15C 5420   3.044   6.444   5.673 -0.6815 -0.8393 -0.0637
   66SAPC   C11 5421   3.060   6.443   6.107  0.1806 -0.0222  0.1187
   66SAPC  H11A 5422   2.955   6.480   6.111  0.2989  0.3573 -0.3199
   66SAPC  H11B 5423   3.102   6.466   6.207  0.7158 -2.3366  0.4600
   66SAPC     P 5424   3.170   6.206   6.093  0.8236  0.1762  0.2241
   66SAPC   O13 5425   3.145   6.069   6.046 -0.4548 -0.2228  0.4551
   66SAPC   O14 5426   3.297   6.273   6.053 -0.1873  0.4994  0.2114
   66SAPC   O12 5427   3.053   6.307   6.060 -0.3755 -0.0749  0.3723
   66SAPC   O11 5428   3.171   6.214   6.247 -0.1446 -0.6263  0.5766
   66SAPC    C1 5429   3.063   6.147   6.324 -0.2603 -0.7281  0.6224
   66SAPC    HA 5430   3.026   6.054   6.277  1.3746 -1.6446  1.0880
   66SAPC    HB 5431   3.119   6.099   6.408  0.4495 -1.1788 -0.0959
   66SAPC    C2 5432   2.951   6.247   6.379 -0.4069  0.2913  0.0421
   66SAPC    HS 5433   2.874   6.269   6.301 -0.2690  0.1134 -0.1456
   66SAPC   O21 5434   3.028   6.363   6.420  0.4191  0.6225 -0.3508
   66SAPC   C21 5435   2.954   6.468   6.457 -0.2958  0.2438  0.5465
   66SAPC   O22 5436   2.832   6.473   6.444 -0.0092 -0.0727 -0.6877
   66SAPC   C22 5437   3.047   6.579   6.492 -0.2927 -1.0428 -0.1861
   66SAPC   H2R 5438   3.146   6.542   6.526  0.5824  1.6311  0.2928
   66SAPC   H2S 5439   3.054   6.647   6.405  1.6295  0.7662  1.3280
   66SAPC    C3 5440   2.871   6.169   6.493  0.0523  0.2509  0.8379
   66SAPC    HX 5441   2.835   6.070   6.457  1.3864  0.1521 -0.2680
   66SAPC    HY 5442   2.785   6.236   6.511  1.0326  0.8942  3.3458
   66SAPC   O31 5443   2.959   6.147   6.608  0.3542  0.0593  0.7141
   66SAPC   C31 5444   2.941   6.238   6.704 -0.1044  0.0457  0.3869
   66SAPC   O32 5445   2.871   6.338   6.706  0.0669  0.6618 -0.0538
   66SAPC   C32 5446   3.015   6.192   6.826  0.1746  0.4668 -0.1646
   66SAPC   H2X 5447   3.120   6.188   6.792  0.8756  3.5999  1.3819
   66SAPC   H2Y 5448   2.977   6.088   6.838  1.8965 -0.0737  0.7563
   66SAPC   C23 5449   2.979   6.666   6.596  0.2639 -0.7401 -0.6166
   66SAPC   H3R 5450   2.984   6.613   6.694 -0.5960 -0.1185 -0.2211
   66SAPC   H3S 5451   2.869   6.682   6.597  0.4320  0.7012  2.2344
   66SAPC   C24 5452   3.053   6.798   6.618 -0.0353  0.3113  0.0664
   66SAPC   H4R 5453   3.159   6.769   6.602  0.5374  0.5549  3.1343
   66SAPC   H4S 5454   3.038   6.838   6.720  0.0318 -1.3963  0.7604
   66SAPC   C25 5455   3.022   6.908   6.514  0.9407  0.0896  0.1558
   66SAPC   H5R 5456   3.086   6.911   6.424  0.7993  2.0986  0.0979
   66SAPC   C26 5457   2.945   7.016   6.529 -0.4327  0.1796  0.1667
   66SAPC   H6R 5458   2.941   7.090   6.448 -2.4994  0.3350  0.3867
   66SAPC   C27 5459   2.862   7.050   6.654  0.2089 -0.4656 -0.3567
   66SAPC   H7R 5460   2.810   6.964   6.700  0.3009  0.0069  0.6457
   66SAPC   H7S 5461   2.774   7.105   6.614  0.3787 -0.5130 -0.8031
   66SAPC   C28 5462   2.953   7.121   6.753 -0.1254  0.1099  0.0524
   66SAPC   H8R 5463   2.997   7.215   6.718 -0.2593  0.4327  0.7324
   66SAPC   C29 5464   2.976   7.095   6.882 -0.3138 -0.6801  0.2982
   66SAPC   H9R 5465   3.041   7.166   6.935 -0.5447 -0.1511 -0.1151
   66SAPC  C210 5466   2.918   6.983   6.967 -0.4801 -0.3448  1.0426
   66SAPC  H10R 5467   2.856   6.915   6.904  0.1101 -0.3522  0.4703
   66SAPC  H10S 5468   2.840   7.019   7.037 -0.5765  0.2307  0.6386
   66SAPC  C211 5469   3.019   6.904   7.052  0.5126 -0.2989  0.2185
   66SAPC  H11R 5470   3.075   6.827   6.998 -1.7140 -1.1236 -0.9786
   66SAPC  C212 5471   3.045   6.915   7.187  0.7649 -0.6583 -0.0380
   66SAPC  H12R 5472   3.124   6.857   7.237  0.5684 -1.7130 -0.9210
   66SAPC  C213 5473   2.978   7.008   7.281  0.6506  0.6683  0.3489
   66SAPC  H13R 5474   2.898   6.949   7.332  0.8011 -0.6742 -0.9335
   66SAPC  H13S 5475   2.926   7.093   7.233  0.3618 -0.2127 -0.9241
   66SAPC  C214 5476   3.072   7.054   7.394  0.4193 -0.9868 -0.1558
   66SAPC  H14R 5477   3.122   7.152   7.383 -0.4096 -0.8147 -2.6320
   66SAPC  C215 5478   3.108   6.983   7.502 -0.2511  0.6398  0.0956
   66SAPC  H15R 5479   3.158   7.040   7.582 -3.0929  1.3996  1.3743
   66SAPC  C216 5480   3.060   6.844   7.546  0.0966  0.2083 -0.6374
   66SAPC  H16R 5481   3.140   6.767   7.541 -0.8565 -0.7254 -1.8038
   66SAPC  H16S 5482   2.977   6.815   7.478 -0.9746  3.0961 -0.6563
   66SAPC  C217 5483   3.007   6.845   7.692  0.6360 -0.4827  0.2456
   66SAPC  H17R 5484   2.972   6.743   7.720 -0.6105  0.0029  0.4691
   66SAPC  H17S 5485   2.927   6.918   7.714  2.7091  0.9142  3.6605
   66SAPC  C218 5486   3.124   6.869   7.794  1.0185 -0.6905  0.2695
   66SAPC  H18R 5487   3.155   6.975   7.782  2.8961 -1.2988 -0.3949
   66SAPC  H18S 5488   3.208   6.802   7.765 -0.4400 -2.3852 -0.1760
   66SAPC  C219 5489   3.090   6.834   7.939  0.1449 -0.3232  0.0207
   66SAPC  H19R 5490   3.192   6.851   7.980 -0.5865 -1.4073  2.3848
   66SAPC  H19S 5491   3.061   6.727   7.951  1.8352 -0.8287 -0.2175
   66SAPC  C220 5492   2.986   6.933   8.004 -0.1311  0.3736 -0.1429
   66SAPC  H20R 5493   2.895   6.923   7.942  1.2511  0.7997 -2.2978
   66SAPC  H20S 5494   3.023   7.037   7.995  0.6477 -0.0248 -1.8558
   66SAPC  H20T 5495   2.977   6.912   8.113  0.9486  2.8452  0.4656
   66SAPC   C33 5496   3.020   6.289   6.948 -0.3705  0.4927  0.0958
   66SAPC   H3X 5497   2.915   6.310   6.977 -1.2569 -3.0514 -0.2142
   66SAPC   H3Y 5498   3.077   6.378   6.915 -1.3133  0.4028 -1.8701
   66SAPC   C34 5499   3.089   6.217   7.060 -0.0517 -0.5036 -0.3522
   66SAPC   H4X 5500   3.193   6.186   7.034 -0.3768  0.1441 -2.4910
   66SAPC   H4Y 5501   3.030   6.125   7.080 -2.2789  0.5512 -1.9139
   66SAPC   C35 5502   3.092   6.292   7.199 -0.9130 -0.0408  0.2962
   66SAPC   H5X 5503   2.987   6.299   7.235 -1.2777 -0.9307 -0.5623
   66SAPC   H5Y 5504   3.140   6.391   7.183 -0.7665 -0.4575 -1.9506
   66SAPC   C36 5505   3.173   6.221   7.311 -0.9848 -0.7639  0.5288
   66SAPC   H6X 5506   3.272   6.191   7.269 -1.3248  0.9786 -1.5861
   66SAPC   H6Y 5507   3.115   6.130   7.338  0.8360 -1.8014  1.0638
   66SAPC   C37 5508   3.194   6.303   7.442 -0.2499  0.0216  0.9109
   66SAPC   H7X 5509   3.107   6.272   7.504 -1.8467  1.9025 -0.3209
   66SAPC   H7Y 5510   3.182   6.411   7.417  1.3279 -0.0579 -0.2879
   66SAPC   C38 5511   3.331   6.260   7.503 -0.0343 -0.2204  0.1508
   66SAPC   H8X 5512   3.408   6.328   7.459 -0.7088 -0.4239 -1.3461
   66SAPC   H8Y 5513   3.354   6.154   7.482 -1.3874 -0.5426  0.3088
   66SAPC   C39 5514   3.347   6.300   7.655  0.4064  0.5518 -0.2601
   66SAPC   H9X 5515   3.447   6.296   7.702  1.0093  1.4651 -1.4391
   66SAPC   H9Y 5516   3.278   6.231   7.708 -0.1393 -1.1867 -3.1342
   66SAPC  C310 5517   3.308   6.451   7.691 -0.2514  0.6518  0.2725
   66SAPC  H10X 5518   3.204   6.471   7.658  0.3270 -0.1611 -2.0910
   66SAPC  H10Y 5519   3.369   6.527   7.637  1.0924 -0.6976 -0.1520
   66SAPC  C311 5520   3.323   6.491   7.839  0.5007 -0.1182 -0.2350
   66SAPC  H11X 5521   3.297   6.598   7.848  0.4523 -0.2445  1.2853
   66SAPC  H11Y 5522   3.431   6.500   7.864 -0.0185  0.9853  1.7113
   66SAPC  C312 5523   3.252   6.405   7.938 -0.4748  0.6846 -0.7428
   66SAPC  H12X 5524   3.293   6.302   7.924 -0.9518  0.5755 -1.3759
   66SAPC  H12Y 5525   3.147   6.401   7.902 -0.9155  1.2450  0.4707
   66SAPC  C313 5526   3.250   6.445   8.089  0.8482  0.3739  0.0566
   66SAPC  H13X 5527   3.187   6.379   8.151  0.5178 -0.0831 -0.7576
   66SAPC  H13Y 5528   3.205   6.547   8.095 -0.2568 -0.2231  2.4106
   66SAPC  C314 5529   3.383   6.442   8.166 -0.1434 -0.4914  1.1656
   66SAPC  H14X 5530   3.364   6.439   8.275 -0.1372 -0.2477  1.1747
   66SAPC  H14Y 5531   3.449   6.525   8.133  0.9643 -2.7138 -2.4564
   66SAPC  C315 5532   3.466   6.308   8.133  0.0133  0.7921  0.3148
   66SAPC  H15X 5533   3.481   6.298   8.023 -1.1035  2.1069  0.0310
   66SAPC  H15Y 5534   3.414   6.220   8.176 -1.5231  2.8041  2.6698
   66SAPC  C316 5535   3.594   6.307   8.216 -0.2301  0.4304  0.2025
   66SAPC  H16X 5536   3.589   6.214   8.278 -1.0578  0.9387  0.9223
   66SAPC  H16Y 5537   3.598   6.405   8.268 -0.8188  1.0408 -0.9005
   66SAPC  C317 5538   3.721   6.305   8.120 -0.2862 -0.6744  0.1769
   66SAPC  H17X 5539   3.734   6.407   8.078  1.0494 -1.8097 -2.2512
   66SAPC  H17Y 5540   3.699   6.232   8.039 -1.9931  1.0048 -0.9136
   66SAPC  C318 5541   3.853   6.259   8.193  0.2196 -0.2793  0.1707
   66SAPC  H18X 5542   3.880   6.333   8.272 -1.9529  0.8646 -0.0964
   66SAPC  H18Y 5543   3.929   6.260   8.112 -1.8940  2.1100 -1.8816
   66SAPC  H18Z 5544   3.840   6.157   8.235  0.4014 -0.4387 -0.1605
   67SAPC     N 5545   6.134   1.485   6.532 -0.0358 -0.8077  0.6281
   67SAPC   C12 5546   6.062   1.368   6.474  0.0317 -0.6062  0.3585
   67SAPC  H12A 5547   6.131   1.284   6.480  1.3264  0.2178 -2.0430
   67SAPC  H12B 5548   6.049   1.367   6.366 -5.7388  0.0900  0.9039
   67SAPC   C13 5549   6.133   1.499   6.673  0.1770  0.5607  0.0287
   67SAPC  H13A 5550   6.191   1.585   6.701 -2.5851  2.4414  0.1178
   67SAPC  H13B 5551   6.033   1.521   6.709  0.4530 -0.3636  1.4195
   67SAPC  H13C 5552   6.176   1.412   6.721  1.7994 -0.4198 -3.1269
   67SAPC   C14 5553   6.278   1.478   6.477  0.2878 -0.3565  0.4924
   67SAPC  H14A 5554   6.275   1.474   6.369  0.9725  0.5777  0.4297
   67SAPC  H14B 5555   6.345   1.552   6.518 -0.4191  0.1220  0.7988
   67SAPC  H14C 5556   6.322   1.383   6.502 -0.3280 -0.4992  1.0575
   67SAPC   C15 5557   6.082   1.613   6.468 -0.5142  0.0257  0.4950
   67SAPC  H15A 5558   5.984   1.635   6.508 -1.3162 -0.8226 -0.9555
   67SAPC  H15B 5559   6.147   1.692   6.501  0.2683 -0.7626  0.8686
   67SAPC  H15C 5560   6.067   1.603   6.361 -0.0613  1.2847  0.3102
   67SAPC   C11 5561   5.937   1.321   6.558 -0.4810 -0.1214 -0.1659
   67SAPC  H11A 5562   5.960   1.292   6.662 -1.4794  0.9930  0.3651
   67SAPC  H11B 5563   5.890   1.226   6.525 -0.2276 -0.6752  1.0480
   67SAPC     P 5564   5.728   1.439   6.452  0.0937  0.0090 -0.3188
   67SAPC   O13 5565   5.686   1.580   6.446  0.3638 -0.5985  0.6951
   67SAPC   O14 5566   5.771   1.382   6.325  0.1636 -0.1085  0.0442
   67SAPC   O12 5567   5.842   1.431   6.561  0.2350 -0.0330  0.1810
   67SAPC   O11 5568   5.613   1.359   6.519  0.3048  0.8690 -0.5946
   67SAPC    C1 5569   5.571   1.392   6.655 -1.1863  0.0142 -1.0458
   67SAPC    HA 5570   5.642   1.359   6.734 -0.8934  1.2262 -0.8050
   67SAPC    HB 5571   5.558   1.502   6.657 -0.4183  0.0964 -0.6754
   67SAPC    C2 5572   5.429   1.334   6.688  0.6050  0.5194  0.0361
   67SAPC    HS 5573   5.406   1.349   6.796  0.4275 -1.7044  0.3223
   67SAPC   O21 5574   5.408   1.205   6.631  0.0440 -0.3277  0.1600
   67SAPC   C21 5575   5.461   1.118   6.704  0.3409  0.1483  0.1782
   67SAPC   O22 5576   5.517   1.140   6.807 -0.1286 -0.2211 -0.4759
   67SAPC   C22 5577   5.426   0.974   6.657 -1.1473  0.5018  0.5413
   67SAPC   H2R 5578   5.471   0.950   6.559  1.6238 -0.8453  2.0686
   67SAPC   H2S 5579   5.488   0.908   6.722 -0.6328 -0.1364 -0.5907
   67SAPC    C3 5580   5.332   1.418   6.602  0.1446  0.2410 -0.4978
   67SAPC    HX 5581   5.236   1.362   6.601  0.6634 -0.7025  1.1727
   67SAPC    HY 5582   5.378   1.427   6.501  1.7621 -0.3622  0.1680
   67SAPC   O31 5583   5.309   1.547   6.660  0.0527 -0.4652 -0.0084
   67SAPC   C31 5584   5.203   1.593   6.707 -0.7689 -0.1436  0.4281
   67SAPC   O32 5585   5.091   1.546   6.697 -0.0814  0.5533 -0.2001
   67SAPC   C32 5586   5.232   1.724   6.781 -0.8204 -0.2145  0.1574
   67SAPC   H2X 5587   5.133   1.774   6.775  0.6210  2.8250  0.7048
   67SAPC   H2Y 5588   5.303   1.779   6.715 -1.5295  1.5000  0.7745
   67SAPC   C23 5589   5.282   0.940   6.639  0.1700 -0.1664 -0.4565
   67SAPC   H3R 5590   5.293   0.866   6.557  1.0082  1.0013 -1.4308
   67SAPC   H3S 5591   5.221   1.025   6.602 -2.0608 -2.4100 -2.0892
   67SAPC   C24 5592   5.220   0.880   6.760 -0.4980  0.2754 -0.2845
   67SAPC   H4R 5593   5.111   0.866   6.743 -0.5854 -0.1088  0.5720
   67SAPC   H4S 5594   5.235   0.954   6.842 -1.9882  0.9644 -0.6141
   67SAPC   C25 5595   5.290   0.752   6.799  0.2142  0.1177  0.5249
   67SAPC   H5R 5596   5.274   0.684   6.713  2.1335  1.8991 -1.3054
   67SAPC   C26 5597   5.372   0.726   6.902 -0.2892 -0.4165  0.2913
   67SAPC   H6R 5598   5.410   0.623   6.904 -1.5480 -0.8668  2.0530
   67SAPC   C27 5599   5.403   0.820   7.013 -0.4306  0.2098  0.2380
   67SAPC   H7R 5600   5.408   0.920   6.965  1.9081  0.1550  0.2863
   67SAPC   H7S 5601   5.499   0.798   7.065 -0.1548  1.2278  0.1738
   67SAPC   C28 5602   5.290   0.824   7.112  0.5592  0.2425  0.5364
   67SAPC   H8R 5603   5.197   0.785   7.068  0.7348  0.1780  0.2219
   67SAPC   C29 5604   5.303   0.849   7.242 -0.2680  0.7324 -0.3628
   67SAPC   H9R 5605   5.210   0.845   7.301  0.2357 -1.8521  0.2896
   67SAPC  C210 5606   5.426   0.890   7.320  0.9246 -0.8148  0.3277
   67SAPC  H10R 5607   5.402   0.976   7.388  0.0050  0.0263 -1.0337
   67SAPC  H10S 5608   5.501   0.943   7.258  0.3018 -1.5968 -1.0976
   67SAPC  C211 5609   5.483   0.771   7.396  0.2450  0.0805 -0.1179
   67SAPC  H11R 5610   5.575   0.726   7.356  1.7680  0.3200  3.0154
   67SAPC  C212 5611   5.429   0.716   7.507 -0.3135 -0.5571 -0.3989
   67SAPC  H12R 5612   5.481   0.636   7.561 -1.9078 -0.7229  0.9076
   67SAPC  C213 5613   5.298   0.764   7.581  0.0549 -0.5520  0.5729
   67SAPC  H13R 5614   5.262   0.673   7.634  1.2927 -1.8235 -0.7399
   67SAPC  H13S 5615   5.215   0.789   7.512 -0.7649  0.2649  1.8350
   67SAPC  C214 5616   5.329   0.877   7.679  0.4604 -0.2816 -0.1163
   67SAPC  H14R 5617   5.347   0.974   7.630 -2.5277  0.2160 -0.2696
   67SAPC  C215 5618   5.334   0.873   7.814 -0.1173  0.4167  0.1803
   67SAPC  H15R 5619   5.382   0.957   7.866  0.7754  0.6073 -0.9349
   67SAPC  C216 5620   5.302   0.744   7.893  0.2281  0.8056 -0.3839
   67SAPC  H16R 5621   5.380   0.670   7.868 -1.0016 -1.6431  2.6554
   67SAPC  H16S 5622   5.203   0.695   7.878  2.0755 -3.0731 -0.4695
   67SAPC  C217 5623   5.305   0.768   8.041 -1.1593 -0.0093 -0.1646
   67SAPC  H17R 5624   5.268   0.681   8.100 -1.3098  0.1224 -0.0635
   67SAPC  H17S 5625   5.237   0.850   8.074  1.5173  2.2627 -0.0948
   67SAPC  C218 5626   5.445   0.796   8.105 -0.2452 -0.2501  0.7397
   67SAPC  H18R 5627   5.487   0.892   8.068 -0.5270 -0.6471 -0.6618
   67SAPC  H18S 5628   5.516   0.717   8.072 -1.0569 -0.3515 -0.8129
   67SAPC  C219 5629   5.442   0.803   8.255  0.0102  0.6141  1.0522
   67SAPC  H19R 5630   5.396   0.707   8.286 -1.6639  0.9610 -0.3029
   67SAPC  H19S 5631   5.380   0.890   8.287 -0.6791 -0.0406  1.5105
   67SAPC  C220 5632   5.579   0.829   8.314  0.3896 -0.2003 -0.1327
   67SAPC  H20R 5633   5.655   0.756   8.279  0.8018  0.7580 -1.2443
   67SAPC  H20S 5634   5.581   0.822   8.425 -0.2122  0.3505 -0.0817
   67SAPC  H20T 5635   5.616   0.930   8.285  1.3520  0.3534  2.7749
   67SAPC   C33 5636   5.288   1.703   6.922 -0.0368  0.3627 -0.2731
   67SAPC   H3X 5637   5.322   1.799   6.966  1.8231  0.2094 -1.2972
   67SAPC   H3Y 5638   5.384   1.653   6.897 -0.1307  0.0516 -0.0147
   67SAPC   C34 5639   5.218   1.625   7.024 -0.3663  0.3660 -0.0816
   67SAPC   H4X 5640   5.174   1.525   7.003  0.2251 -0.1876  1.2835
   67SAPC   H4Y 5641   5.125   1.683   7.043 -0.9759 -0.1458 -1.4152
   67SAPC   C35 5642   5.303   1.599   7.153  0.6860  0.2041 -0.2331
   67SAPC   H5X 5643   5.329   1.697   7.198  0.0069  0.0994  0.4050
   67SAPC   H5Y 5644   5.397   1.549   7.121  0.4306  0.5298 -1.5152
   67SAPC   C36 5645   5.224   1.509   7.248  0.4108  0.6083 -0.4130
   67SAPC   H6X 5646   5.206   1.422   7.181 -1.3050 -0.2718  1.1568
   67SAPC   H6Y 5647   5.121   1.543   7.272  0.3139  0.3490 -0.4587
   67SAPC   C37 5648   5.292   1.480   7.381  0.0353 -0.1816  0.0645
   67SAPC   H7X 5649   5.216   1.455   7.459  2.0497 -0.0397  2.1340
   67SAPC   H7Y 5650   5.343   1.573   7.416 -0.5174  0.4371 -0.7660
   67SAPC   C38 5651   5.391   1.365   7.363 -0.2520 -0.6484  0.9471
   67SAPC   H8X 5652   5.474   1.402   7.299 -2.6538  1.7171 -0.8915
   67SAPC   H8Y 5653   5.361   1.266   7.323  0.6034 -1.2956  1.8670
   67SAPC   C39 5654   5.470   1.341   7.494 -0.0344  0.2626 -0.6713
   67SAPC   H9X 5655   5.393   1.305   7.566 -0.5067  1.5889 -0.5008
   67SAPC   H9Y 5656   5.504   1.434   7.545  2.1057 -1.5546  1.3437
   67SAPC  C310 5657   5.585   1.238   7.499  0.1091  0.2045 -0.1653
   67SAPC  H10X 5658   5.666   1.295   7.448  1.1310 -1.0017  0.1090
   67SAPC  H10Y 5659   5.551   1.157   7.431 -0.3850 -1.5775  2.1581
   67SAPC  C311 5660   5.633   1.186   7.633  0.6715  0.5543  1.1404
   67SAPC  H11X 5661   5.550   1.142   7.692  0.1582  2.2081  1.6785
   67SAPC  H11Y 5662   5.676   1.275   7.684  1.1940  0.0054  1.6601
   67SAPC  C312 5663   5.753   1.085   7.616  0.6787  0.0217 -0.0431
   67SAPC  H12X 5664   5.841   1.138   7.573  0.1628  1.1693  0.2824
   67SAPC  H12Y 5665   5.729   1.008   7.539 -0.0135  1.1761 -1.0001
   67SAPC  C313 5666   5.795   1.031   7.752 -0.0338 -0.2306 -0.3535
   67SAPC  H13X 5667   5.709   0.991   7.811  0.8086 -2.0913 -0.3577
   67SAPC  H13Y 5668   5.827   1.118   7.812 -0.0576  0.2993 -1.0991
   67SAPC  C314 5669   5.915   0.933   7.740 -0.0571 -0.0965 -0.1995
   67SAPC  H14X 5670   6.004   0.993   7.712  0.3740 -1.3379 -1.5412
   67SAPC  H14Y 5671   5.896   0.863   7.656 -1.0011 -0.7446  0.5395
   67SAPC  C315 5672   5.952   0.868   7.875  0.4375  0.9525 -0.9854
   67SAPC  H15X 5673   6.030   0.789   7.869 -0.0809  0.6292 -4.1451
   67SAPC  H15Y 5674   5.855   0.821   7.905  0.1278  0.6328 -2.4489
   67SAPC  C316 5675   6.004   0.965   7.979 -0.0061  0.1990 -0.4098
   67SAPC  H16X 5676   6.078   1.039   7.941  0.4927 -0.9098 -1.6331
   67SAPC  H16Y 5677   6.064   0.910   8.055 -0.0071  0.5257 -0.1727
   67SAPC  C317 5678   5.889   1.036   8.062  0.7894 -0.0476  0.6389
   67SAPC  H17X 5679   5.790   0.994   8.034 -0.2929 -0.3449  4.5420
   67SAPC  H17Y 5680   5.888   1.147   8.056 -2.5046 -0.0331  0.4252
   67SAPC  C318 5681   5.898   1.014   8.212 -0.2249  1.1734  0.5241
   67SAPC  H18X 5682   5.996   1.047   8.255  0.8812 -1.5216  0.1847
   67SAPC  H18Y 5683   5.881   0.906   8.233  0.1256  1.1577  0.7315
   67SAPC  H18Z 5684   5.828   1.078   8.270 -3.3485 -2.7227  1.2767
   68SAPC     N 5685   2.705   0.540   5.912  0.6276  0.2822 -0.8326
   68SAPC   C12 5686   2.728   0.545   6.066 -0.1272  0.2807 -0.2985
   68SAPC  H12A 5687   2.636   0.551   6.123 -0.7253 -1.7846 -1.0001
   68SAPC  H12B 5688   2.783   0.635   6.088 -0.0217  0.2402 -0.4002
   68SAPC   C13 5689   2.835   0.545   5.834 -0.0776  0.6135 -0.7266
   68SAPC  H13A 5690   2.891   0.456   5.857 -2.0818 -0.5574 -0.2534
   68SAPC  H13B 5691   2.810   0.528   5.730 -1.2485  0.2278 -0.3939
   68SAPC  H13C 5692   2.883   0.642   5.836  1.3544 -0.0865 -1.1391
   68SAPC   C14 5693   2.625   0.425   5.884 -0.1172  0.7854 -0.1156
   68SAPC  H14A 5694   2.684   0.342   5.921 -1.4573  0.3042  0.9550
   68SAPC  H14B 5695   2.536   0.424   5.944  1.6291  1.2822  2.5897
   68SAPC  H14C 5696   2.610   0.414   5.777 -0.7877  1.5093 -0.0961
   68SAPC   C15 5697   2.628   0.658   5.862 -0.7208  0.5040  0.0407
   68SAPC  H15A 5698   2.530   0.678   5.904 -0.6886  2.2594 -0.6863
   68SAPC  H15B 5699   2.684   0.743   5.897  0.1673  0.2517 -0.7279
   68SAPC  H15C 5700   2.626   0.652   5.754 -0.3799 -0.5637  0.0802
   68SAPC   C11 5701   2.806   0.425   6.128  0.4412 -0.5746 -0.4570
   68SAPC  H11A 5702   2.735   0.341   6.119  2.3449 -2.0186 -2.6736
   68SAPC  H11B 5703   2.821   0.435   6.238 -1.3943  0.5844 -0.2962
   68SAPC     P 5704   3.062   0.436   6.095  0.1524  0.5070 -0.1958
   68SAPC   O13 5705   3.156   0.403   5.987  0.1012  0.3407  0.7082
   68SAPC   O14 5706   3.064   0.582   6.135  0.3677  0.0943  0.1181
   68SAPC   O12 5707   2.922   0.381   6.052  0.3768  0.0878 -0.0901
   68SAPC   O11 5708   3.089   0.339   6.225  0.2597  0.1681 -0.0673
   68SAPC    C1 5709   3.160   0.406   6.338 -0.7551  0.1459 -0.2626
   68SAPC    HA 5710   3.107   0.501   6.360 -1.5879 -0.3177 -0.2374
   68SAPC    HB 5711   3.143   0.337   6.423  0.7466  0.5024  0.3261
   68SAPC    C2 5712   3.317   0.421   6.315 -0.1486 -0.0349  0.4926
   68SAPC    HS 5713   3.329   0.483   6.224  1.7330  1.8716  2.0090
   68SAPC   O21 5714   3.367   0.287   6.292  0.3002 -0.2955 -0.1336
   68SAPC   C21 5715   3.484   0.281   6.230  0.2877 -0.1548 -0.9874
   68SAPC   O22 5716   3.547   0.377   6.190  0.0061  0.1021 -0.0105
   68SAPC   C22 5717   3.525   0.141   6.191 -0.0127 -0.1524 -0.0202
   68SAPC   H2R 5718   3.463   0.068   6.246 -0.3584 -0.7984 -1.2382
   68SAPC   H2S 5719   3.492   0.140   6.085 -2.5632 -1.4308  0.7415
   68SAPC    C3 5720   3.385   0.486   6.438 -0.4749  0.3059 -0.8110
   68SAPC    HX 5721   3.342   0.589   6.437 -2.1140 -0.3493  0.3717
   68SAPC    HY 5722   3.495   0.491   6.425 -0.3746 -1.0490 -0.5406
   68SAPC   O31 5723   3.342   0.430   6.562  0.8714  0.6756 -0.1109
   68SAPC   C31 5724   3.425   0.334   6.607  0.6255 -0.8260 -0.7298
   68SAPC   O32 5725   3.525   0.304   6.554  0.4444  0.2111  0.2607
   68SAPC   C32 5726   3.379   0.268   6.734 -0.5555 -0.2543  0.0012
   68SAPC   H2X 5727   3.429   0.170   6.749 -2.8962 -1.7328 -1.4211
   68SAPC   H2Y 5728   3.269   0.256   6.747 -0.5318 -0.3794  0.0915
   68SAPC   C23 5729   3.674   0.117   6.206 -0.4884  0.7120  0.1912
   68SAPC   H3R 5730   3.739   0.204   6.183  0.1748 -0.0556 -0.8775
   68SAPC   H3S 5731   3.710   0.043   6.132 -0.3973  1.4338 -0.4976
   68SAPC   C24 5732   3.715   0.059   6.346  0.2677  0.6607  0.0302
   68SAPC   H4R 5733   3.678   0.124   6.428 -1.9433 -1.7091  1.0086
   68SAPC   H4S 5734   3.826   0.058   6.342  0.3674  0.6966  2.1712
   68SAPC   C25 5735   3.660  -0.082   6.366 -0.4848  0.9533 -0.1103
   68SAPC   H5R 5736   3.701  -0.146   6.287  2.0613 -1.6481  3.2184
   68SAPC   C26 5737   3.583  -0.125   6.468 -0.3429  0.2941  0.0915
   68SAPC   H6R 5738   3.558  -0.233   6.468 -2.7893  0.8143 -1.6103
   68SAPC   C27 5739   3.530  -0.048   6.590  0.4888  0.2329 -0.3891
   68SAPC   H7R 5740   3.426  -0.088   6.595  0.9309 -0.8798  0.0395
   68SAPC   H7S 5741   3.532   0.061   6.568 -1.2749  0.3310 -0.1669
   68SAPC   C28 5742   3.601  -0.084   6.722  0.1797 -1.1602  0.5003
   68SAPC   H8R 5743   3.710  -0.098   6.713  0.2666  0.2031 -0.7622
   68SAPC   C29 5744   3.538  -0.122   6.836 -0.3339 -0.8077  0.3891
   68SAPC   H9R 5745   3.598  -0.136   6.927 -1.9763  2.7467  2.1348
   68SAPC  C210 5746   3.390  -0.113   6.872  0.1027 -0.0290  0.0483
   68SAPC  H10R 5747   3.314  -0.111   6.792  0.5519  0.6106 -0.3702
   68SAPC  H10S 5748   3.385  -0.012   6.917 -0.7212 -0.0828  0.0713
   68SAPC  C211 5749   3.350  -0.212   6.981 -0.2285  0.0671  0.1311
   68SAPC  H11R 5750   3.270  -0.283   6.955 -1.0871  1.3146 -0.6906
   68SAPC  C212 5751   3.396  -0.216   7.113 -0.1931 -0.5918 -0.4363
   68SAPC  H12R 5752   3.359  -0.288   7.187 -4.0712  1.7616  0.1107
   68SAPC  C213 5753   3.497  -0.129   7.180  0.2058  0.1844 -0.0713
   68SAPC  H13R 5754   3.586  -0.105   7.118  1.2210  1.0297  1.6819
   68SAPC  H13S 5755   3.536  -0.193   7.262  2.0227 -0.6314 -1.5095
   68SAPC  C214 5756   3.439  -0.002   7.234 -0.5271 -0.3265 -0.2158
   68SAPC  H14R 5757   3.397   0.053   7.148  1.0605  1.4303  0.1150
   68SAPC  C215 5758   3.414   0.036   7.361 -0.0289  0.4843  0.5288
   68SAPC  H15R 5759   3.374   0.135   7.384  1.3975  1.2256 -0.0660
   68SAPC  C216 5760   3.443  -0.050   7.486 -0.0661  0.1862 -0.2309
   68SAPC  H16R 5761   3.437  -0.160   7.473 -2.1014  0.0212  1.7703
   68SAPC  H16S 5762   3.366  -0.028   7.563  0.1752  0.6252 -0.1179
   68SAPC  C217 5763   3.592  -0.023   7.535  0.3446 -0.3288  0.1461
   68SAPC  H17R 5764   3.583   0.082   7.568  0.8851 -0.5056  0.8770
   68SAPC  H17S 5765   3.671  -0.036   7.458  0.7358 -0.6945  0.6031
   68SAPC  C218 5766   3.633  -0.100   7.661 -0.6785  0.3041 -0.9110
   68SAPC  H18R 5767   3.620  -0.211   7.661  1.6833 -0.0945  2.8882
   68SAPC  H18S 5768   3.574  -0.064   7.748  0.9026 -0.9273  0.7247
   68SAPC  C219 5769   3.771  -0.052   7.707 -0.5593 -0.5290  0.3231
   68SAPC  H19R 5770   3.758   0.058   7.706 -0.2532 -0.4863 -2.5242
   68SAPC  H19S 5771   3.846  -0.087   7.633 -1.2104 -0.1414 -0.5340
   68SAPC  C220 5772   3.833  -0.110   7.835 -0.2383  0.5746 -0.2162
   68SAPC  H20R 5773   3.897  -0.200   7.821  0.9725  1.4309 -0.2123
   68SAPC  H20S 5774   3.756  -0.136   7.910 -0.0259  0.9739  0.1431
   68SAPC  H20T 5775   3.890  -0.036   7.894  0.2668 -0.0967  0.1510
   68SAPC   C33 5776   3.416   0.367   6.844 -0.1169  0.3146 -0.4876
   68SAPC   H3X 5777   3.354   0.460   6.847  1.9224  1.7440 -1.6270
   68SAPC   H3Y 5778   3.524   0.393   6.843 -0.5974  2.4110 -0.1594
   68SAPC   C34 5779   3.389   0.302   6.982  0.1293  0.1991 -0.6915
   68SAPC   H4X 5780   3.433   0.200   6.984  0.7087  0.3469 -3.3800
   68SAPC   H4Y 5781   3.283   0.291   7.014  0.7721  0.5424  1.6680
   68SAPC   C35 5782   3.461   0.395   7.083  0.5837  0.1097  0.1936
   68SAPC   H5X 5783   3.410   0.493   7.071 -1.4618 -0.8794  0.5617
   68SAPC   H5Y 5784   3.566   0.402   7.048  0.2337  0.8716 -0.7423
   68SAPC   C36 5785   3.458   0.351   7.232  0.7946  0.1674 -0.1146
   68SAPC   H6X 5786   3.531   0.269   7.248  1.2405  0.6287  0.2473
   68SAPC   H6Y 5787   3.357   0.307   7.247  0.3757  0.6890 -1.3500
   68SAPC   C37 5788   3.475   0.461   7.338 -0.6663  0.9643  0.3566
   68SAPC   H7X 5789   3.378   0.513   7.357 -0.5746  1.2017  0.1810
   68SAPC   H7Y 5790   3.547   0.532   7.292 -1.2126  0.4625 -1.2764
   68SAPC   C38 5791   3.533   0.398   7.458 -0.1364  0.7848 -0.6656
   68SAPC   H8X 5792   3.590   0.477   7.512 -1.2833 -0.7598  3.0086
   68SAPC   H8Y 5793   3.607   0.318   7.439  1.3016  2.1796 -1.0373
   68SAPC   C39 5794   3.429   0.353   7.560  0.3782  0.6086 -0.8942
   68SAPC   H9X 5795   3.393   0.250   7.536 -1.1846  1.5951 -2.8935
   68SAPC   H9Y 5796   3.339   0.418   7.570 -0.4981 -0.8193  0.7841
   68SAPC  C310 5797   3.507   0.335   7.689  0.7398  0.4004 -0.1138
   68SAPC  H10X 5798   3.530   0.438   7.723  3.3218 -0.1560 -0.0420
   68SAPC  H10Y 5799   3.597   0.271   7.677 -0.1998 -0.3651 -3.4213
   68SAPC  C311 5800   3.423   0.258   7.799  0.3207  0.6182  0.7832
   68SAPC  H11X 5801   3.406   0.154   7.764  0.9442  0.6522  0.3842
   68SAPC  H11Y 5802   3.338   0.329   7.811 -1.3931 -1.3852  0.6232
   68SAPC  C312 5803   3.490   0.244   7.933 -0.3015  0.9966 -0.3580
   68SAPC  H12X 5804   3.425   0.184   8.000  1.8966 -0.8065  0.2047
   68SAPC  H12Y 5805   3.492   0.342   7.985 -1.1958  0.8052  0.0577
   68SAPC  C313 5806   3.639   0.196   7.939 -0.1875  0.8607 -0.7276
   68SAPC  H13X 5807   3.690   0.258   7.863 -1.8288  3.2265  0.0278
   68SAPC  H13Y 5808   3.652   0.088   7.918  1.3121  0.8820  0.0404
   68SAPC  C314 5809   3.697   0.239   8.073  0.4317  0.4851  0.5275
   68SAPC  H14X 5810   3.681   0.346   8.097 -2.4277  0.4379 -0.9680
   68SAPC  H14Y 5811   3.807   0.230   8.058  0.2207 -0.3078 -0.6429
   68SAPC  C315 5812   3.650   0.159   8.205 -0.3609 -0.6632  0.0098
   68SAPC  H15X 5813   3.541   0.135   8.201  0.0101 -2.4042 -0.0986
   68SAPC  H15Y 5814   3.672   0.215   8.299 -0.8299  1.6186 -1.2094
   68SAPC  C316 5815   3.734   0.032   8.200  0.2962 -0.1013  0.4393
   68SAPC  H16X 5816   3.771   0.019   8.096 -0.1143  1.3331  0.0986
   68SAPC  H16Y 5817   3.665  -0.055   8.207  0.8446 -0.4620  1.4708
   68SAPC  C317 5818   3.858   0.026   8.296  0.2413 -0.8318  0.6515
   68SAPC  H17X 5819   3.905  -0.074   8.285  0.2478 -0.8655  0.9790
   68SAPC  H17Y 5820   3.819   0.048   8.398 -1.8194  0.3256 -0.3430
   68SAPC  C318 5821   3.974   0.120   8.258  0.1146 -0.2169  0.1853
   68SAPC  H18X 5822   3.939   0.222   8.232  1.8203  0.1349 -0.8364
   68SAPC  H18Y 5823   4.023   0.079   8.167 -2.1926 -0.6917 -0.8752
   68SAPC  H18Z 5824   4.035   0.132   8.350 -1.6017  2.4649  1.0264
   69SLPC     N 5825   2.195   6.357  11.143  0.1868 -0.5235  0.8506
   69SLPC   C13 5826   2.211   6.237  11.229  0.0779  0.2976 -1.1768
   69SLPC  H13A 5827   2.124   6.232  11.292  0.7642  0.7244 -0.1956
   69SLPC  H13B 5828   2.222   6.146  11.172  2.6490 -1.3859  1.8277
   69SLPC  H13C 5829   2.286   6.255  11.305 -0.8720  0.2368 -0.2257
   69SLPC   C14 5830   2.198   6.475  11.225 -0.1912 -0.4052 -0.1739
   69SLPC  H14A 5831   2.114   6.474  11.293  0.8877  3.1727  1.3554
   69SLPC  H14B 5832   2.289   6.498  11.279 -1.4798  2.0221  1.0739
   69SLPC  H14C 5833   2.185   6.562  11.162 -0.8842 -0.4347 -0.0724
   69SLPC   C15 5834   2.065   6.354  11.065  0.2136  0.7429  0.1796
   69SLPC  H15A 5835   2.072   6.423  10.983 -0.1251  0.3789 -0.1615
   69SLPC  H15B 5836   2.059   6.261  11.010 -0.5807  0.4751  0.7155
   69SLPC  H15C 5837   1.975   6.371  11.122 -0.3552 -0.5877 -0.2952
   69SLPC   C12 5838   2.318   6.361  11.045  0.2099  0.1519  0.5205
   69SLPC  H12A 5839   2.407   6.352  11.105  0.1027  0.7073  0.7610
   69SLPC  H12B 5840   2.321   6.458  10.998 -2.0879  0.7983  1.6571
   69SLPC   C11 5841   2.315   6.262  10.928  0.1035 -0.3979 -0.2199
   69SLPC  H11A 5842   2.381   6.304  10.849 -0.7414 -1.3603 -1.4615
   69SLPC  H11B 5843   2.218   6.259  10.873 -1.4249 -0.0693  2.3583
   69SLPC     P 5844   2.486   6.062  10.916  0.2599 -0.1025 -0.0839
   69SLPC   O13 5845   2.592   6.163  10.931  0.7036  0.2604  0.2691
   69SLPC   O14 5846   2.502   5.926  10.977 -0.0969 -0.4227 -0.3634
   69SLPC   O12 5847   2.352   6.128  10.964  0.0587 -0.2927 -0.3365
   69SLPC   O11 5848   2.459   6.053  10.760 -0.8360  0.2207  0.3256
   69SLPC    C1 5849   2.356   5.958  10.712 -0.1254 -0.0146  1.0195
   69SLPC    HA 5850   2.379   5.851  10.731  0.2292  0.0749  1.0887
   69SLPC    HB 5851   2.256   5.989  10.750 -0.6254  2.6584 -2.2412
   69SLPC    C2 5852   2.348   5.961  10.551 -0.2608 -0.0988 -0.4403
   69SLPC    HS 5853   2.453   5.966  10.516  0.2902 -1.8454  0.8753
   69SLPC   O21 5854   2.263   6.070  10.514  0.2866 -0.2119  0.6801
   69SLPC   C21 5855   2.295   6.124  10.400 -0.3286 -0.5469 -0.3702
   69SLPC   O22 5856   2.392   6.096  10.326  0.1729 -0.4325  0.1144
   69SLPC   C22 5857   2.172   6.198  10.348  0.1664  0.1222  0.0258
   69SLPC   H2R 5858   2.085   6.156  10.404 -0.2768 -1.8899 -2.1078
   69SLPC   H2S 5859   2.178   6.305  10.377  2.8063 -0.3438  1.3872
   69SLPC    C3 5860   2.283   5.831  10.500 -0.6802 -0.2801 -0.1293
   69SLPC    HX 5861   2.178   5.828  10.534  0.0574  2.3362  2.6734
   69SLPC    HY 5862   2.326   5.737  10.542  0.4684 -0.5030 -1.7648
   69SLPC   O31 5863   2.296   5.824  10.356  0.1712  0.2572  0.1366
   69SLPC   C31 5864   2.413   5.784  10.301  0.1336 -0.1121  0.2958
   69SLPC   O32 5865   2.502   5.731  10.363 -0.1142 -0.0173  0.4352
   69SLPC   C32 5866   2.398   5.805  10.153  0.3530  0.0717  0.5658
   69SLPC   H2X 5867   2.377   5.912  10.136  1.5557 -0.0084 -1.6015
   69SLPC   H2Y 5868   2.316   5.739  10.117  0.7301 -0.3300  0.4297
   69SLPC   C23 5869   2.152   6.186  10.200 -0.5164  0.2954  0.4703
   69SLPC   H3R 5870   2.244   6.205  10.142 -2.2031  0.8707 -2.1155
   69SLPC   H3S 5871   2.080   6.260  10.158 -0.1073 -0.4105 -1.5234
   69SLPC   C24 5872   2.088   6.048  10.157  0.1356 -0.6375 -0.0208
   69SLPC   H4R 5873   1.979   6.037  10.172 -0.0713  0.6269 -0.4951
   69SLPC   H4S 5874   2.153   5.969  10.201  0.2433 -1.2335 -1.2361
   69SLPC   C25 5875   2.111   6.028  10.005 -0.6351 -0.4443 -0.2187
   69SLPC   H5R 5876   2.221   6.028   9.985 -0.6261 -2.0749 -0.2137
   69SLPC   H5S 5877   2.075   6.121   9.955  1.9677  0.3758 -0.6659
   69SLPC   C26 5878   2.059   5.903   9.935 -0.2728  0.1777  0.1182
   69SLPC   H6R 5879   2.040   5.834  10.021 -0.3820 -0.4187 -0.3789
   69SLPC   H6S 5880   2.134   5.851   9.871  1.2492 -1.0482  2.7827
   69SLPC   C27 5881   1.930   5.909   9.851  0.2741 -0.6619 -0.0240
   69SLPC   H7R 5882   1.958   5.969   9.762 -0.9224  1.2566  0.8577
   69SLPC   H7S 5883   1.845   5.964   9.899  1.0616 -0.0020  0.6265
   69SLPC   C28 5884   1.880   5.766   9.822  0.5214 -0.3395  0.3030
   69SLPC   H8R 5885   1.783   5.775   9.768  1.6959  1.0030 -1.6288
   69SLPC   H8S 5886   1.854   5.723   9.921 -0.9466 -3.2571 -1.2811
   69SLPC   C29 5887   1.966   5.672   9.749 -0.2439 -0.2993 -0.2299
   69SLPC   H9R 5888   2.045   5.627   9.811  1.1125 -0.7611 -2.2299
   69SLPC  C210 5889   1.959   5.629   9.619  0.7720 -0.3870 -0.3155
   69SLPC  H10R 5890   2.045   5.577   9.574  1.3033  0.7705 -0.6515
   69SLPC  C211 5891   1.856   5.677   9.521  0.1282  0.1178 -0.1430
   69SLPC  H11R 5892   1.767   5.719   9.572 -0.6812 -0.2073 -1.2509
   69SLPC  H11S 5893   1.813   5.590   9.466 -1.2221  0.4319  0.4015
   69SLPC  C212 5894   1.914   5.785   9.426  0.6829 -0.4543  0.7365
   69SLPC  H12R 5895   1.925   5.887   9.464  0.7642 -0.2354  0.1290
   69SLPC  C213 5896   1.958   5.749   9.307 -0.0761  0.3945  0.0400
   69SLPC  H13R 5897   1.999   5.822   9.236 -2.2801 -0.1307 -1.7944
   69SLPC  C214 5898   1.950   5.610   9.245 -0.1264 -0.1568  0.0239
   69SLPC  H14R 5899   1.944   5.530   9.322  0.1072  1.2562  1.5396
   69SLPC  H14S 5900   2.030   5.602   9.168  1.6599  1.6160  1.6356
   69SLPC  C215 5901   1.821   5.612   9.153 -0.7081 -0.3229  0.5027
   69SLPC  H15R 5902   1.817   5.689   9.074  2.0877 -1.9509 -1.2971
   69SLPC  H15S 5903   1.724   5.616   9.209 -1.6380  0.4017 -1.1478
   69SLPC  C216 5904   1.811   5.483   9.071 -0.4759  0.3514 -0.0054
   69SLPC  H16R 5905   1.712   5.433   9.080 -0.4784  0.5448  1.1909
   69SLPC  H16S 5906   1.889   5.416   9.113  0.9672  2.3679  0.6005
   69SLPC  C217 5907   1.833   5.514   8.915  0.8800  0.2272 -0.2164
   69SLPC  H17R 5908   1.933   5.562   8.905  0.4867  0.9944 -0.5340
   69SLPC  H17S 5909   1.757   5.590   8.887 -0.2554 -0.3314  1.2434
   69SLPC  C218 5910   1.828   5.385   8.835  0.5198 -0.8921  0.6902
   69SLPC  H18R 5911   1.888   5.303   8.881  0.6490 -1.6400 -0.7596
   69SLPC  H18S 5912   1.875   5.404   8.736 -1.6016 -0.8081 -0.3214
   69SLPC  H18T 5913   1.725   5.347   8.818  0.0582 -0.2417  1.9923
   69SLPC   C33 5914   2.530   5.761  10.083  0.0127  0.3769 -0.1886
   69SLPC   H3X 5915   2.565   5.655  10.086  2.2519  1.0054 -2.5038
   69SLPC   H3Y 5916   2.615   5.824  10.115  1.7726 -0.7117 -2.5701
   69SLPC   C34 5917   2.518   5.791   9.935  0.9472 -0.4945  0.3891
   69SLPC   H4X 5918   2.612   5.780   9.877 -0.4114  0.7868 -2.1720
   69SLPC   H4Y 5919   2.486   5.896   9.920  3.0565  0.1652  0.4809
   69SLPC   C35 5920   2.419   5.697   9.860  0.0540 -0.3850  0.4084
   69SLPC   H5X 5921   2.314   5.725   9.883 -0.0683  0.1498 -0.7725
   69SLPC   H5Y 5922   2.444   5.596   9.898  2.1508  0.1573  0.5463
   69SLPC   C36 5923   2.434   5.701   9.713  0.4483  0.3250  0.9531
   69SLPC   H6X 5924   2.536   5.673   9.680  0.1477 -0.2540  0.4961
   69SLPC   H6Y 5925   2.419   5.809   9.692  1.5869  0.3075  0.0089
   69SLPC   C37 5926   2.333   5.600   9.655 -0.1369 -0.6511  0.3616
   69SLPC   H7X 5927   2.234   5.642   9.684  0.3554 -0.7133  2.1302
   69SLPC   H7Y 5928   2.349   5.494   9.682  1.6587 -1.0018 -1.9770
   69SLPC   C38 5929   2.335   5.594   9.500  0.1022  0.5204 -0.1034
   69SLPC   H8X 5930   2.347   5.702   9.476 -4.0612  0.7457 -1.4967
   69SLPC   H8Y 5931   2.238   5.551   9.469  0.3552 -0.7863  0.8653
   69SLPC   C39 5932   2.450   5.517   9.430 -0.2683  0.0402  0.3740
   69SLPC   H9X 5933   2.469   5.411   9.459  1.5674 -0.2959 -1.8866
   69SLPC   H9Y 5934   2.542   5.573   9.456 -0.8794  1.5529 -0.6621
   69SLPC  C310 5935   2.445   5.543   9.280  0.7367 -0.1479  0.1423
   69SLPC  H10X 5936   2.548   5.521   9.246  0.5466 -0.1813 -0.4085
   69SLPC  H10Y 5937   2.417   5.648   9.256 -2.1468 -1.3985 -2.2778
   69SLPC  C311 5938   2.351   5.441   9.211 -0.4802 -0.7899 -0.8192
   69SLPC  H11X 5939   2.247   5.477   9.227  0.3809  1.7038 -0.6266
   69SLPC  H11Y 5940   2.356   5.347   9.270 -1.2313  0.8362  1.9161
   69SLPC  C312 5941   2.368   5.422   9.057  0.5579 -0.4305 -0.2634
   69SLPC  H12X 5942   2.289   5.367   9.002  0.3113  0.8375 -1.2096
   69SLPC  H12Y 5943   2.460   5.360   9.047  0.0883 -0.9736 -1.2428
   69SLPC  C313 5944   2.404   5.551   8.979  0.0172 -0.0484 -0.0176
   69SLPC  H13X 5945   2.496   5.593   9.024  1.6591 -2.0342 -1.4216
   69SLPC  H13Y 5946   2.334   5.635   8.997  0.7352  0.7505 -0.9020
   69SLPC  C314 5947   2.425   5.531   8.833 -0.9185  0.3733 -0.2438
   69SLPC  H14X 5948   2.326   5.516   8.785  0.0303 -2.9465 -1.3068
   69SLPC  H14Y 5949   2.487   5.441   8.814 -0.1907  0.7298  0.3771
   69SLPC  C315 5950   2.495   5.649   8.748 -0.1953 -0.0982 -0.0658
   69SLPC  H15X 5951   2.587   5.663   8.810 -0.9769  0.7101  0.9303
   69SLPC  H15Y 5952   2.432   5.740   8.750  2.2052  1.6921 -2.9182
   69SLPC  C316 5953   2.540   5.598   8.604  0.0473  0.3930 -0.0294
   69SLPC  H16X 5954   2.608   5.510   8.614 -1.4218 -0.9806 -1.8827
   69SLPC  H16Y 5955   2.606   5.680   8.568  0.2497 -0.2764 -1.1987
   69SLPC  C317 5956   2.434   5.567   8.507  0.2952  0.4499  0.3290
   69SLPC  H17X 5957   2.388   5.473   8.546 -0.6959  1.0508  0.6219
   69SLPC  H17Y 5958   2.482   5.565   8.407  1.2652 -2.8747  0.7844
   69SLPC  C318 5959   2.317   5.666   8.512 -0.8541 -0.0743 -0.3118
   69SLPC  H18X 5960   2.246   5.641   8.593 -1.1369  0.2137 -0.4680
   69SLPC  H18Y 5961   2.265   5.687   8.416 -1.8378  1.6304  0.5686
   69SLPC  H18Z 5962   2.360   5.768   8.518  2.0537 -1.2492 -0.6892
   70SLPC     N 5963   3.622   3.671  10.830 -0.2149 -0.1277  0.3140
   70SLPC   C13 5964   3.682   3.605  10.703 -0.4718  0.6181  0.3559
   70SLPC  H13A 5965   3.626   3.636  10.616  0.9936  3.1371  0.2807
   70SLPC  H13B 5966   3.785   3.632  10.688 -0.4540  0.8856  0.9446
   70SLPC  H13C 5967   3.671   3.497  10.706  0.3710  0.4248 -2.3360
   70SLPC   C14 5968   3.637   3.825  10.807 -0.1298  0.5551  0.0913
   70SLPC  H14A 5969   3.606   3.884  10.892 -2.5724 -1.8707  0.9290
   70SLPC  H14B 5970   3.740   3.847  10.782 -0.4181 -1.1037 -2.7265
   70SLPC  H14C 5971   3.564   3.860  10.736 -0.7195 -0.3686  0.2432
   70SLPC   C15 5972   3.716   3.629  10.943 -0.1232  0.5672 -0.4501
   70SLPC  H15A 5973   3.704   3.523  10.958  1.5597  0.1429 -1.9451
   70SLPC  H15B 5974   3.822   3.641  10.926 -0.3303  1.2645 -1.2643
   70SLPC  H15C 5975   3.683   3.677  11.034 -1.2135 -0.1198 -0.4647
   70SLPC   C12 5976   3.480   3.626  10.848  0.4558  0.1292 -0.3729
   70SLPC  H12A 5977   3.470   3.519  10.856 -1.7705  0.1291 -2.6169
   70SLPC  H12B 5978   3.421   3.654  10.762 -0.9746  0.0490  0.5547
   70SLPC   C11 5979   3.400   3.682  10.967 -0.4935  0.7607 -0.0795
   70SLPC  H11A 5980   3.470   3.680  11.053  0.1163  0.5621 -0.5814
   70SLPC  H11B 5981   3.312   3.616  10.986  0.2341  0.2933  1.7526
   70SLPC     P 5982   3.247   3.852  10.834 -0.3177 -0.2872 -0.4078
   70SLPC   O13 5983   3.108   3.817  10.878 -0.7818 -0.6022  0.3018
   70SLPC   O14 5984   3.267   3.992  10.805 -0.0733 -0.1473  0.3539
   70SLPC   O12 5985   3.348   3.815  10.940  0.2896 -0.5965  0.3303
   70SLPC   O11 5986   3.282   3.765  10.708 -0.9669  0.4472 -0.1240
   70SLPC    C1 5987   3.192   3.743  10.602  0.5128  0.7918  0.0075
   70SLPC    HA 5988   3.085   3.769  10.621  0.4412  1.5008 -1.2466
   70SLPC    HB 5989   3.232   3.803  10.518 -1.1256 -0.4256 -1.6961
   70SLPC    C2 5990   3.193   3.597  10.559 -0.6423  0.8166 -0.3075
   70SLPC    HS 5991   3.140   3.538  10.637 -0.7983  3.0401  1.3219
   70SLPC   O21 5992   3.328   3.554  10.533  0.8270  0.1838 -0.3782
   70SLPC   C21 5993   3.347   3.426  10.552 -0.7588 -0.5400 -0.5041
   70SLPC   O22 5994   3.288   3.349  10.623  0.0748  0.7099 -0.8670
   70SLPC   C22 5995   3.464   3.384  10.462  0.4208  0.3347  0.0951
   70SLPC   H2R 5996   3.516   3.466  10.409  3.0305 -0.7368  0.9333
   70SLPC   H2S 5997   3.540   3.333  10.524 -1.4977 -2.2306  0.4465
   70SLPC    C3 5998   3.114   3.578  10.431 -0.1378  0.2600  1.4227
   70SLPC    HX 5999   3.188   3.618  10.359  0.0681 -0.9296  0.9511
   70SLPC    HY 6000   3.012   3.621  10.424 -0.4830 -0.4912  1.7900
   70SLPC   O31 6001   3.096   3.441  10.399 -0.8399 -0.0528  0.3620
   70SLPC   C31 6002   3.010   3.377  10.476 -0.2275 -0.6063  0.1047
   70SLPC   O32 6003   2.959   3.413  10.581 -0.6814  0.7375 -0.4026
   70SLPC   C32 6004   2.970   3.245  10.401  0.7028 -0.9132 -0.1047
   70SLPC   H2X 6005   2.887   3.198  10.458  0.5847 -0.8488 -0.2263
   70SLPC   H2Y 6006   3.042   3.161  10.411 -1.5274 -2.7273  1.2928
   70SLPC   C23 6007   3.422   3.271  10.362  0.3307 -0.7569 -0.2125
   70SLPC   H3R 6008   3.334   3.303  10.303  2.3221  0.9053 -2.3672
   70SLPC   H3S 6009   3.392   3.190  10.432 -0.8458  1.6604  2.1966
   70SLPC   C24 6010   3.539   3.228  10.270  0.3576 -0.2609  0.5852
   70SLPC   H4R 6011   3.522   3.129  10.222 -2.3411  0.2616  0.3874
   70SLPC   H4S 6012   3.630   3.204  10.329 -0.0859 -0.8458  1.0421
   70SLPC   C25 6013   3.571   3.307  10.138  0.0757  0.0583  0.3758
   70SLPC   H5R 6014   3.603   3.407  10.173  3.9849 -1.5125  1.6021
   70SLPC   H5S 6015   3.476   3.325  10.084  1.0435  0.3558 -1.2672
   70SLPC   C26 6016   3.668   3.238  10.035 -0.0620  0.4921 -0.5942
   70SLPC   H6R 6017   3.744   3.178  10.089 -1.2538  0.1502  0.7139
   70SLPC   H6S 6018   3.720   3.330  10.000 -2.7382  1.8092 -1.2870
   70SLPC   C27 6019   3.594   3.177   9.919 -0.0133  0.0090  0.1293
   70SLPC   H7R 6020   3.530   3.258   9.879  1.9148  1.0859 -0.8577
   70SLPC   H7S 6021   3.532   3.094   9.959 -2.9159  1.0537 -2.0583
   70SLPC   C28 6022   3.687   3.121   9.809  0.6373  0.0891  0.1045
   70SLPC   H8R 6023   3.639   3.078   9.719 -1.6423 -0.6674  1.6284
   70SLPC   H8S 6024   3.736   3.037   9.862 -0.4146 -0.7045 -0.1526
   70SLPC   C29 6025   3.788   3.225   9.765 -0.3631 -0.5835 -0.2814
   70SLPC   H9R 6026   3.849   3.271   9.845 -1.7467  0.2498  0.3243
   70SLPC  C210 6027   3.794   3.277   9.641 -0.3344  0.0924 -0.1096
   70SLPC  H10R 6028   3.848   3.372   9.626 -0.6334  0.5682  1.7739
   70SLPC  C211 6029   3.716   3.232   9.525  0.5090 -0.6333  0.2284
   70SLPC  H11R 6030   3.687   3.323   9.468  1.8075 -0.5299 -0.2848
   70SLPC  H11S 6031   3.618   3.194   9.560  1.1826  1.0809  4.1847
   70SLPC  C212 6032   3.777   3.129   9.439 -0.7380 -0.6730  0.0611
   70SLPC  H12R 6033   3.818   3.045   9.497  1.4982  1.8855  2.3157
   70SLPC  C213 6034   3.795   3.135   9.304  0.5017  0.9509 -0.0562
   70SLPC  H13R 6035   3.845   3.048   9.260  0.7426  0.9286  0.2652
   70SLPC  C214 6036   3.758   3.246   9.210 -0.0046 -0.7738 -0.0864
   70SLPC  H14R 6037   3.732   3.343   9.259 -2.6199 -0.9220 -1.1259
   70SLPC  H14S 6038   3.669   3.208   9.157 -2.4011  0.5736  2.8079
   70SLPC  C215 6039   3.882   3.254   9.125 -0.1059  0.0908  0.5021
   70SLPC  H15R 6040   3.974   3.254   9.187 -1.0336  0.4550  1.9200
   70SLPC  H15S 6041   3.887   3.355   9.079 -0.3313  0.2258  0.7703
   70SLPC  C216 6042   3.890   3.150   9.011  0.1931 -0.1809 -0.0310
   70SLPC  H16R 6043   3.791   3.147   8.961 -1.5564  1.3370  3.1962
   70SLPC  H16S 6044   3.916   3.053   9.058 -0.2529  1.0735  2.8982
   70SLPC  C217 6045   3.991   3.192   8.902 -0.4249  0.1022 -0.1878
   70SLPC  H17R 6046   4.082   3.236   8.947 -0.0898 -0.4443 -0.3237
   70SLPC  H17S 6047   3.936   3.276   8.855 -0.4827  0.3178  0.2637
   70SLPC  C218 6048   4.027   3.101   8.781 -0.3142 -0.3295  0.3841
   70SLPC  H18R 6049   3.939   3.040   8.752 -0.2975  0.7872 -2.1195
   70SLPC  H18S 6050   4.112   3.033   8.806 -0.0705  0.5255  1.9670
   70SLPC  H18T 6051   4.050   3.171   8.698  0.7721 -0.6623  0.3916
   70SLPC   C33 6052   2.905   3.262  10.260  0.5061 -0.0859  0.2317
   70SLPC   H3X 6053   2.821   3.334  10.253  1.8899  1.3429 -2.5729
   70SLPC   H3Y 6054   2.861   3.161  10.244 -2.3154  0.9925  0.9586
   70SLPC   C34 6055   3.015   3.282  10.156  0.2243 -0.1187 -0.4527
   70SLPC   H4X 6056   3.101   3.216  10.178  1.4462  0.9378 -1.9202
   70SLPC   H4Y 6057   3.050   3.385  10.176  0.8056 -0.2707 -0.6768
   70SLPC   C35 6058   2.970   3.257  10.011 -0.3025 -0.4291 -0.2797
   70SLPC   H5X 6059   2.871   3.301   9.987 -0.0486  0.9398  1.1266
   70SLPC   H5Y 6060   2.962   3.148   9.988 -0.2750 -0.6293  0.6592
   70SLPC   C36 6061   3.069   3.317   9.907  0.2799  0.1410  0.4028
   70SLPC   H6X 6062   3.163   3.265   9.934  1.1101  2.1956  1.5713
   70SLPC   H6Y 6063   3.073   3.428   9.919  2.4716  0.6436 -4.0855
   70SLPC   C37 6064   3.019   3.285   9.767  0.5215  0.0704  0.2419
   70SLPC   H7X 6065   2.911   3.305   9.749  0.9650  1.7539 -0.6189
   70SLPC   H7Y 6066   3.032   3.175   9.756  0.9121 -0.1534  2.7214
   70SLPC   C38 6067   3.099   3.357   9.648  0.2742  0.3254 -0.1011
   70SLPC   H8X 6068   3.196   3.303   9.642 -1.0699 -2.0406 -1.6957
   70SLPC   H8Y 6069   3.115   3.460   9.684 -0.2442 -0.0387  1.1776
   70SLPC   C39 6070   3.026   3.358   9.513 -0.1142  0.0465  0.1273
   70SLPC   H9X 6071   2.927   3.407   9.524 -0.2718 -0.4518  1.0158
   70SLPC   H9Y 6072   3.003   3.257   9.474 -0.3486  0.2511 -0.2613
   70SLPC  C310 6073   3.114   3.452   9.422  0.0925 -0.4612  0.2394
   70SLPC  H10X 6074   3.206   3.391   9.404  1.1226  1.5162 -1.4507
   70SLPC  H10Y 6075   3.144   3.549   9.467 -1.3364  0.7012 -1.2859
   70SLPC  C311 6076   3.039   3.490   9.288 -0.0424  0.0045 -0.0381
   70SLPC  H11X 6077   2.987   3.586   9.310 -0.5065  0.1930 -1.9007
   70SLPC  H11Y 6078   2.964   3.411   9.271  1.4476 -1.1022 -1.5881
   70SLPC  C312 6079   3.132   3.518   9.164  0.4801 -0.2734  0.5319
   70SLPC  H12X 6080   3.148   3.422   9.109  0.9630 -0.0316  0.2445
   70SLPC  H12Y 6081   3.228   3.564   9.195  1.7242 -1.0316 -1.9949
   70SLPC  C313 6082   3.055   3.595   9.053 -0.3903 -0.4169  0.3899
   70SLPC  H13X 6083   3.083   3.702   9.050  0.9910 -0.7856 -0.3980
   70SLPC  H13Y 6084   2.946   3.606   9.072 -0.6161 -0.3723 -0.9113
   70SLPC  C314 6085   3.080   3.527   8.916  0.0290  0.2730 -0.1972
   70SLPC  H14X 6086   3.064   3.418   8.923 -0.6406  0.2984 -1.3046
   70SLPC  H14Y 6087   3.182   3.562   8.887  0.3899  0.9156  1.7523
   70SLPC  C315 6088   2.990   3.590   8.812  0.0890  0.4412 -0.0680
   70SLPC  H15X 6089   2.979   3.699   8.833  0.3257  0.5518 -0.5072
   70SLPC  H15Y 6090   2.891   3.541   8.820 -2.2832  4.7120 -1.4228
   70SLPC  C316 6091   3.050   3.586   8.673  0.5851 -0.7804  0.5460
   70SLPC  H16X 6092   3.065   3.482   8.639  0.3443 -0.3534 -0.8984
   70SLPC  H16Y 6093   3.139   3.651   8.657  0.9882 -1.3934  0.2928
   70SLPC  C317 6094   2.956   3.648   8.570  0.2594  0.6116  0.7297
   70SLPC  H17X 6095   2.949   3.759   8.571  1.2862  0.7253 -1.5193
   70SLPC  H17Y 6096   2.852   3.610   8.582 -1.0318  3.6431 -0.1820
   70SLPC  C318 6097   3.005   3.618   8.429  0.0274  0.3228  0.4200
   70SLPC  H18X 6098   3.104   3.663   8.407 -0.0600 -0.4488 -1.6860
   70SLPC  H18Y 6099   2.926   3.645   8.355  0.4513 -2.2851 -1.0382
   70SLPC  H18Z 6100   3.022   3.510   8.413 -0.5819  0.2918 -0.0522
   71SLPC     N 6101   2.683   1.258  10.878 -0.0249 -0.4739 -0.0245
   71SLPC   C13 6102   2.759   1.343  10.967  0.1303 -0.1920 -0.1781
   71SLPC  H13A 6103   2.863   1.315  10.968  0.6691  1.7878  0.0351
   71SLPC  H13B 6104   2.754   1.445  10.933  0.9436 -0.3370 -0.7387
   71SLPC  H13C 6105   2.710   1.334  11.063 -1.0524  0.9921 -0.6497
   71SLPC   C14 6106   2.534   1.271  10.901  0.3559 -0.0777  0.3972
   71SLPC  H14A 6107   2.491   1.370  10.905 -0.6270 -0.3856 -1.8825
   71SLPC  H14B 6108   2.478   1.216  10.827 -0.0551 -1.5685  1.7616
   71SLPC  H14C 6109   2.510   1.221  10.994  0.2854 -0.6750  0.0628
   71SLPC   C15 6110   2.716   1.115  10.912 -0.0104  0.0696 -0.5622
   71SLPC  H15A 6111   2.684   1.089  11.011  0.2345 -0.0256 -0.5069
   71SLPC  H15B 6112   2.673   1.044  10.842 -1.3782 -0.5192  0.8552
   71SLPC  H15C 6113   2.824   1.109  10.906  0.0421  1.8381 -1.7622
   71SLPC   C12 6114   2.721   1.293  10.736  0.1222 -0.5611  0.4146
   71SLPC  H12A 6115   2.679   1.214  10.676  3.1207 -0.5404 -1.8145
   71SLPC  H12B 6116   2.826   1.277  10.719  0.4289  1.6008  0.0967
   71SLPC   C11 6117   2.677   1.432  10.672 -0.5483  0.3149 -0.1072
   71SLPC  H11A 6118   2.569   1.441  10.695 -0.6571  0.3584 -0.6372
   71SLPC  H11B 6119   2.679   1.427  10.561  0.5211  1.2144 -0.1436
   71SLPC     P 6120   2.891   1.581  10.687  0.1077  0.5444  0.1019
   71SLPC   O13 6121   2.952   1.646  10.800 -0.0681  0.7824  0.3320
   71SLPC   O14 6122   2.958   1.457  10.635  0.3248  0.0249 -0.5961
   71SLPC   O12 6123   2.741   1.549  10.727 -0.0564 -0.5436 -0.3712
   71SLPC   O11 6124   2.879   1.691  10.571  0.0264 -0.2533  0.6261
   71SLPC    C1 6125   2.812   1.812  10.580 -0.3834 -0.0212  0.0928
   71SLPC    HA 6126   2.759   1.823  10.677 -0.7149 -1.1522  0.0512
   71SLPC    HB 6127   2.888   1.892  10.563 -1.8539  1.4367  0.2589
   71SLPC    C2 6128   2.706   1.823  10.466 -0.1378 -0.5443 -0.0652
   71SLPC    HS 6129   2.637   1.736  10.468  0.3380 -0.9735 -1.6960
   71SLPC   O21 6130   2.757   1.825  10.330  0.3074  0.5912 -0.1058
   71SLPC   C21 6131   2.785   1.711  10.274 -0.1212 -0.3371  1.1340
   71SLPC   O22 6132   2.765   1.598  10.315 -0.5583 -0.3667  0.5068
   71SLPC   C22 6133   2.837   1.743  10.131 -0.2058  0.4303 -0.3392
   71SLPC   H2R 6134   2.802   1.843  10.096 -0.0750  0.2511 -0.9843
   71SLPC   H2S 6135   2.948   1.738  10.124 -0.1323  0.8042  0.4878
   71SLPC    C3 6136   2.612   1.950  10.480  0.6757  0.0359  0.4454
   71SLPC    HX 6137   2.671   2.025  10.536  1.3035 -0.8891  1.0330
   71SLPC    HY 6138   2.531   1.925  10.552  0.5376  1.5140  0.8105
   71SLPC   O31 6139   2.564   1.999  10.350  0.2995  0.2500 -0.1609
   71SLPC   C31 6140   2.643   2.092  10.282  0.2582  0.2817  0.6413
   71SLPC   O32 6141   2.760   2.121  10.308  0.5356  0.3621 -0.3756
   71SLPC   C32 6142   2.561   2.129  10.157  0.6196  0.9049 -0.2717
   71SLPC   H2X 6143   2.477   2.196  10.187 -0.7821 -1.0622  0.2730
   71SLPC   H2Y 6144   2.510   2.038  10.121 -0.2514  1.0667  0.5263
   71SLPC   C23 6145   2.776   1.636  10.031  0.2373  0.0257 -0.5922
   71SLPC   H3R 6146   2.671   1.621  10.064  0.1215  0.0016 -0.9742
   71SLPC   H3S 6147   2.832   1.542  10.048 -0.5090 -0.4720 -0.8826
   71SLPC   C24 6148   2.792   1.684   9.886 -0.4528 -0.3611 -0.1239
   71SLPC   H4R 6149   2.813   1.602   9.815 -2.2619 -0.5654 -0.4403
   71SLPC   H4S 6150   2.886   1.743   9.883 -0.5190 -0.1235  1.8263
   71SLPC   C25 6151   2.666   1.764   9.844 -0.9726  0.3795 -0.3971
   71SLPC   H5R 6152   2.684   1.864   9.889  0.6548  0.1491 -0.5066
   71SLPC   H5S 6153   2.572   1.719   9.882 -0.2863 -0.7341  0.0297
   71SLPC   C26 6154   2.661   1.770   9.694  0.1544 -0.1469 -1.2141
   71SLPC   H6R 6155   2.753   1.821   9.657  2.3898 -1.9850  1.5556
   71SLPC   H6S 6156   2.570   1.831   9.676 -0.1985  0.1545  1.4859
   71SLPC   C27 6157   2.652   1.637   9.621 -0.3422 -0.5158  0.8876
   71SLPC   H7R 6158   2.597   1.580   9.699 -0.8866 -0.1048  0.8113
   71SLPC   H7S 6159   2.743   1.575   9.606  0.5526  0.8442  0.5236
   71SLPC   C28 6160   2.572   1.644   9.496 -0.2089 -0.1480 -0.0703
   71SLPC   H8R 6161   2.630   1.709   9.427 -1.2841 -0.0842 -0.9369
   71SLPC   H8S 6162   2.474   1.696   9.496 -0.1651 -0.0443  1.1140
   71SLPC   C29 6163   2.552   1.504   9.444  0.2938  0.5166 -0.1942
   71SLPC   H9R 6164   2.493   1.441   9.512  0.4818 -0.0642 -0.5638
   71SLPC  C210 6165   2.576   1.457   9.320 -0.1589 -0.1106  0.6727
   71SLPC  H10R 6166   2.565   1.349   9.298  3.2803 -0.3937  0.0583
   71SLPC  C211 6167   2.640   1.527   9.201 -0.3279  0.3352 -0.9322
   71SLPC  H11R 6168   2.638   1.637   9.220  1.1094 -0.0097  1.4258
   71SLPC  H11S 6169   2.584   1.509   9.107 -2.8381  2.6055  0.0524
   71SLPC  C212 6170   2.773   1.469   9.171  0.0156  0.0726 -0.6009
   71SLPC  H12R 6171   2.811   1.382   9.227 -0.0546  0.5020  0.1121
   71SLPC  C213 6172   2.858   1.521   9.075  0.4600  1.0561 -0.5365
   71SLPC  H13R 6173   2.954   1.469   9.061  0.2315  0.2721  0.7534
   71SLPC  C214 6174   2.841   1.641   8.984  0.2871  0.4628 -1.0215
   71SLPC  H14R 6175   2.943   1.669   8.948  0.7736  1.7250  1.2007
   71SLPC  H14S 6176   2.782   1.717   9.040  2.5078  2.5221 -1.3414
   71SLPC  C215 6177   2.762   1.598   8.863 -0.1769 -0.4615  0.3140
   71SLPC  H15R 6178   2.672   1.536   8.886 -0.7220  0.4236  0.6027
   71SLPC  H15S 6179   2.825   1.524   8.810 -0.5036 -0.0225 -0.6859
   71SLPC  C216 6180   2.719   1.713   8.771 -0.2089  0.1135 -0.1718
   71SLPC  H16R 6181   2.811   1.769   8.746  0.8044 -1.7912 -0.8024
   71SLPC  H16S 6182   2.643   1.777   8.821 -0.1256 -0.4580  0.6919
   71SLPC  C217 6183   2.659   1.658   8.638  0.7676  0.7044 -0.1701
   71SLPC  H17R 6184   2.562   1.604   8.649  0.8880  0.6122  0.4590
   71SLPC  H17S 6185   2.728   1.590   8.584  0.1662 -0.1557  0.1237
   71SLPC  C218 6186   2.618   1.778   8.544  0.6882 -0.5561 -0.2395
   71SLPC  H18R 6187   2.694   1.857   8.531 -0.3037  0.9214  2.3915
   71SLPC  H18S 6188   2.537   1.841   8.587  1.4316 -1.6114  2.8206
   71SLPC  H18T 6189   2.587   1.734   8.447  0.9823 -0.6478 -0.2927
   71SLPC   C33 6190   2.653   2.188  10.044  0.5558 -0.1945  0.2121
   71SLPC   H3X 6191   2.719   2.108  10.005  1.3543  0.7784 -0.4558
   71SLPC   H3Y 6192   2.722   2.268  10.077  0.3646 -0.3998  1.1337
   71SLPC   C34 6193   2.572   2.247   9.925 -0.4559  0.1013 -0.1140
   71SLPC   H4X 6194   2.646   2.290   9.854  2.9220 -3.4500  1.1045
   71SLPC   H4Y 6195   2.510   2.333   9.956 -1.4488 -0.1501 -1.3875
   71SLPC   C35 6196   2.483   2.150   9.851 -0.2189  0.4124 -0.3519
   71SLPC   H5X 6197   2.394   2.142   9.917 -0.6018  0.5816 -0.8442
   71SLPC   H5Y 6198   2.530   2.052   9.826 -1.9686 -0.9751  1.6784
   71SLPC   C36 6199   2.438   2.216   9.720  0.9031  0.9880 -0.9667
   71SLPC   H6X 6200   2.416   2.321   9.751 -0.4836  0.1136  1.1236
   71SLPC   H6Y 6201   2.345   2.167   9.684  0.7024  0.4700  0.2295
   71SLPC   C37 6202   2.551   2.210   9.619  0.5200  0.0680 -0.1541
   71SLPC   H7X 6203   2.645   2.162   9.653  0.3472 -0.2548 -0.1358
   71SLPC   H7Y 6204   2.579   2.312   9.585  0.4367  0.2626  0.3464
   71SLPC   C38 6205   2.521   2.129   9.490 -0.1063  1.0856 -0.1672
   71SLPC   H8X 6206   2.428   2.172   9.448 -0.1802  0.8651 -0.2320
   71SLPC   H8Y 6207   2.497   2.023   9.513  1.2610  1.2325  2.1625
   71SLPC   C39 6208   2.621   2.141   9.383 -0.3495  0.0319 -0.2894
   71SLPC   H9X 6209   2.724   2.165   9.416  0.5875  0.3590 -3.2555
   71SLPC   H9Y 6210   2.605   2.231   9.320  0.7981  0.4518  0.0055
   71SLPC  C310 6211   2.622   2.015   9.291 -0.4331 -0.6449 -0.6512
   71SLPC  H10X 6212   2.631   1.927   9.359 -2.3497  0.3271  0.8926
   71SLPC  H10Y 6213   2.707   2.025   9.219  1.3942 -3.1991  1.0513
   71SLPC  C311 6214   2.491   2.008   9.209  0.0924  0.5129  0.2530
   71SLPC  H11X 6215   2.488   2.111   9.166  0.8850  1.2218  1.8827
   71SLPC  H11Y 6216   2.401   1.990   9.272  0.8989  0.5014  1.3990
   71SLPC  C312 6217   2.497   1.915   9.090 -0.1072  0.4905  0.7474
   71SLPC  H12X 6218   2.509   1.807   9.114 -0.0843  0.4727  0.6584
   71SLPC  H12Y 6219   2.586   1.937   9.027  1.5406 -2.3556  1.9671
   71SLPC  C313 6220   2.365   1.942   9.013 -0.3324  0.1458  0.3813
   71SLPC  H13X 6221   2.355   2.047   8.979 -0.7928  0.8270  2.5326
   71SLPC  H13Y 6222   2.277   1.924   9.079 -1.4739  1.2310 -0.8205
   71SLPC  C314 6223   2.352   1.851   8.889 -0.3294  0.1310  0.3006
   71SLPC  H14X 6224   2.342   1.754   8.942  0.8737 -1.0826 -1.6221
   71SLPC  H14Y 6225   2.436   1.838   8.818 -0.7706  3.5194 -0.9291
   71SLPC  C315 6226   2.217   1.878   8.814 -0.1603 -1.0069  1.0647
   71SLPC  H15X 6227   2.145   1.937   8.874  0.7938  1.2392  0.0423
   71SLPC  H15Y 6228   2.172   1.777   8.796  0.0567 -0.7799 -0.8784
   71SLPC  C316 6229   2.231   1.939   8.670 -0.3420  0.1159 -0.3634
   71SLPC  H16X 6230   2.151   1.902   8.602 -0.1118 -3.8132  1.3259
   71SLPC  H16Y 6231   2.325   1.903   8.622  0.9466  1.4411  1.1052
   71SLPC  C317 6232   2.235   2.090   8.673 -1.0839 -0.5084  0.2225
   71SLPC  H17X 6233   2.176   2.132   8.758 -0.7397 -0.9930  0.7100
   71SLPC  H17Y 6234   2.191   2.136   8.582  1.2718  0.4657 -0.4537
   71SLPC  C318 6235   2.379   2.142   8.684 -0.4700  0.3142  0.3891
   71SLPC  H18X 6236   2.368   2.227   8.755  0.7309  1.2609 -0.5340
   71SLPC  H18Y 6237   2.419   2.157   8.582 -0.5795 -1.4395  0.0673
   71SLPC  H18Z 6238   2.439   2.061   8.732  0.3540 -0.3272 -1.6931
   72SLPC     N 6239   3.503   0.581  10.600 -0.1964 -0.1790 -0.0372
   72SLPC   C13 6240   3.438   0.704  10.650  0.5705  0.8188  0.6935
   72SLPC  H13A 6241   3.378   0.689  10.738 -0.8011  0.3417 -0.3109
   72SLPC  H13B 6242   3.524   0.766  10.669  1.4164  0.1024 -0.7548
   72SLPC  H13C 6243   3.369   0.741  10.575  1.0843  0.3944  0.0076
   72SLPC   C14 6244   3.570   0.512  10.715 -0.0598  0.0576  0.6756
   72SLPC  H14A 6245   3.671   0.546  10.733 -0.8881  1.0894  3.6136
   72SLPC  H14B 6246   3.505   0.518  10.801 -1.5525  2.2260 -0.5469
   72SLPC  H14C 6247   3.572   0.407  10.688  1.1024  0.1759  0.2812
   72SLPC   C15 6248   3.609   0.617  10.498  0.0778  0.6675  0.2269
   72SLPC  H15A 6249   3.691   0.675  10.538  0.0142  0.3943  0.7675
   72SLPC  H15B 6250   3.657   0.535  10.447 -0.6598 -1.0563  2.2351
   72SLPC  H15C 6251   3.553   0.668  10.421  1.8003  0.4558 -1.1944
   72SLPC   C12 6252   3.389   0.494  10.548 -0.4982 -0.0858 -0.1677
   72SLPC  H12A 6253   3.343   0.541  10.462 -1.7893 -0.7905  0.1212
   72SLPC  H12B 6254   3.315   0.471  10.623 -0.4003 -0.0133 -0.0495
   72SLPC   C11 6255   3.435   0.350  10.497  0.4394 -0.6072 -0.6059
   72SLPC  H11A 6256   3.511   0.369  10.418 -0.0649  1.6429 -0.5839
   72SLPC  H11B 6257   3.347   0.309  10.443  0.0674 -0.3233 -0.2196
   72SLPC     P 6258   3.359   0.188  10.681 -0.3150 -0.2094 -0.1293
   72SLPC   O13 6259   3.416   0.086  10.774  0.5949 -0.3661  0.0759
   72SLPC   O14 6260   3.271   0.287  10.739 -0.0519 -0.1788  0.3389
   72SLPC   O12 6261   3.477   0.263  10.604 -0.1471  0.8912  0.3643
   72SLPC   O11 6262   3.274   0.117  10.574  0.6231 -0.6001 -0.0686
   72SLPC    C1 6263   3.294  -0.006  10.505  0.0730 -0.5352 -1.0888
   72SLPC    HA 6264   3.345  -0.078  10.573 -1.7657 -0.3348  0.5617
   72SLPC    HB 6265   3.197  -0.049  10.474 -1.7594  0.7038  2.6282
   72SLPC    C2 6266   3.386  -0.004  10.384  0.3426  0.6460 -0.5272
   72SLPC    HS 6267   3.484   0.036  10.416  0.6912 -0.8983  0.3851
   72SLPC   O21 6268   3.332   0.078  10.279  0.8890  0.3255 -0.3586
   72SLPC   C21 6269   3.423   0.148  10.213  0.2595  0.5098 -0.6177
   72SLPC   O22 6270   3.540   0.141  10.232 -0.2968 -0.2996  0.1582
   72SLPC   C22 6271   3.355   0.207  10.082  0.6221  0.4679  0.1023
   72SLPC   H2R 6272   3.335   0.117  10.020 -0.3031  1.7592 -1.5328
   72SLPC   H2S 6273   3.253   0.245  10.109  0.0006  2.8888 -5.0282
   72SLPC    C3 6274   3.393  -0.145  10.331  0.3157  0.4478 -0.8886
   72SLPC    HX 6275   3.441  -0.211  10.406  2.3875  1.4219 -1.3151
   72SLPC    HY 6276   3.467  -0.142  10.248  1.5706  1.0278  0.2342
   72SLPC   O31 6277   3.265  -0.185  10.276 -0.3819 -0.1438 -0.2021
   72SLPC   C31 6278   3.258  -0.311  10.251 -0.3427 -0.3116  0.3572
   72SLPC   O32 6279   3.341  -0.401  10.260  0.2731  0.0537  0.0498
   72SLPC   C32 6280   3.114  -0.334  10.199  0.0483  0.0141 -0.1119
   72SLPC   H2X 6281   3.095  -0.256  10.122  0.0831  2.2773  2.1169
   72SLPC   H2Y 6282   3.046  -0.305  10.282 -1.2719 -1.8597 -0.4864
   72SLPC   C23 6283   3.421   0.327  10.019 -0.8569  0.1179  0.7253
   72SLPC   H3R 6284   3.525   0.304   9.987 -0.9370  1.5223 -0.5980
   72SLPC   H3S 6285   3.436   0.413  10.087 -1.4400  0.1312  0.8432
   72SLPC   C24 6286   3.349   0.365   9.889  0.2283 -0.1253  0.1863
   72SLPC   H4R 6287   3.406   0.444   9.836 -1.2530  1.7588  1.3221
   72SLPC   H4S 6288   3.250   0.405   9.920 -0.5123 -0.1084 -2.1230
   72SLPC   C25 6289   3.328   0.250   9.783  0.4739  0.2149 -0.1954
   72SLPC   H5R 6290   3.241   0.182   9.791  0.6182 -0.2115 -1.9803
   72SLPC   H5S 6291   3.417   0.184   9.790  0.1014 -0.2879 -0.1701
   72SLPC   C26 6292   3.320   0.301   9.636 -0.8456  0.1447 -0.2076
   72SLPC   H6R 6293   3.338   0.214   9.570  0.8104  1.7990 -2.0251
   72SLPC   H6S 6294   3.408   0.368   9.623 -0.0564 -0.8951 -0.3061
   72SLPC   C27 6295   3.189   0.362   9.588 -0.1000 -0.0314 -0.0126
   72SLPC   H7R 6296   3.152   0.422   9.673  1.8785  1.9182 -0.4882
   72SLPC   H7S 6297   3.112   0.281   9.586 -0.1936 -0.0184  2.0218
   72SLPC   C28 6298   3.197   0.431   9.457 -0.7330 -0.0323 -0.2432
   72SLPC   H8R 6299   3.279   0.502   9.481  0.0625 -1.1305  0.3396
   72SLPC   H8S 6300   3.108   0.492   9.431 -1.9520 -0.9975  1.5605
   72SLPC   C29 6301   3.237   0.338   9.345 -0.2957 -0.3742 -0.0400
   72SLPC   H9R 6302   3.328   0.282   9.371  0.0223  1.0688  2.0886
   72SLPC  C210 6303   3.180   0.333   9.223  0.0290  0.2014  0.6622
   72SLPC  H10R 6304   3.225   0.258   9.157  1.3288  0.8686  0.7729
   72SLPC  C211 6305   3.062   0.409   9.173 -0.1863 -1.0191 -0.2691
   72SLPC  H11R 6306   3.113   0.493   9.120  0.6203 -1.4912 -0.2459
   72SLPC  H11S 6307   3.002   0.445   9.260 -0.3790  0.0359 -0.8291
   72SLPC  C212 6308   2.981   0.336   9.073 -0.3952  0.7879  0.8659
   72SLPC  H12R 6309   2.998   0.227   9.073 -0.5433  0.7647 -0.0705
   72SLPC  C213 6310   2.875   0.391   9.005 -0.5893 -0.5657  0.1517
   72SLPC  H13R 6311   2.826   0.323   8.934  0.8330 -0.1848 -1.2161
   72SLPC  C214 6312   2.836   0.533   9.020  0.6385 -0.9252  0.1501
   72SLPC  H14R 6313   2.897   0.591   8.948  0.1371  3.5416  3.1088
   72SLPC  H14S 6314   2.867   0.580   9.116 -0.6809 -0.0841  0.1666
   72SLPC  C215 6315   2.690   0.552   8.990  0.0713  0.2572  0.8248
   72SLPC  H15R 6316   2.656   0.655   9.015  0.9810  0.9075 -0.5682
   72SLPC  H15S 6317   2.633   0.474   9.045  0.8943  0.9109  2.6572
   72SLPC  C216 6318   2.670   0.548   8.831  0.6977 -1.1413 -0.0778
   72SLPC  H16R 6319   2.691   0.440   8.813  0.2811 -0.9929 -1.5088
   72SLPC  H16S 6320   2.753   0.595   8.775  0.7353  0.1389  1.0404
   72SLPC  C217 6321   2.529   0.593   8.786  0.8667 -0.0593  0.2571
   72SLPC  H17R 6322   2.454   0.519   8.823  1.0686  0.7384  2.3526
   72SLPC  H17S 6323   2.528   0.586   8.676 -1.4650 -0.4637  0.2795
   72SLPC  C218 6324   2.493   0.736   8.827 -0.6880  0.3670  0.7806
   72SLPC  H18R 6325   2.426   0.788   8.755 -0.5518  0.7005  0.8959
   72SLPC  H18S 6326   2.583   0.801   8.826 -0.7174  0.4024  0.2332
   72SLPC  H18T 6327   2.436   0.745   8.923 -0.9092  0.8278  0.6098
   72SLPC   C33 6328   3.095  -0.475  10.162 -0.7499 -0.0351 -0.3079
   72SLPC   H3X 6329   2.989  -0.484  10.132 -0.4478  3.3030 -2.6774
   72SLPC   H3Y 6330   3.118  -0.543  10.246  1.8299  0.0531 -0.8768
   72SLPC   C34 6331   3.156  -0.517  10.029  0.7698  0.5391 -0.1873
   72SLPC   H4X 6332   3.154  -0.628  10.021 -0.7638  0.5672 -0.4365
   72SLPC   H4Y 6333   3.261  -0.482  10.032  0.7025  0.6836  0.4871
   72SLPC   C35 6334   3.088  -0.461   9.899 -0.2967  0.4568  0.2943
   72SLPC   H5X 6335   3.115  -0.354   9.895 -1.7091  0.7583 -2.7352
   72SLPC   H5Y 6336   2.978  -0.472   9.912 -0.4463  0.9463 -0.5212
   72SLPC   C36 6337   3.154  -0.532   9.777 -0.6708 -0.7573 -0.3991
   72SLPC   H6X 6338   3.120  -0.638   9.773 -1.7024 -0.4158 -0.9903
   72SLPC   H6Y 6339   3.264  -0.519   9.785 -0.9764  1.0532  1.3228
   72SLPC   C37 6340   3.114  -0.478   9.638  0.4876 -0.0901  0.6297
   72SLPC   H7X 6341   3.158  -0.381   9.608 -4.5147  2.1120 -0.0155
   72SLPC   H7Y 6342   3.003  -0.467   9.635  0.3412 -0.5362  3.0245
   72SLPC   C38 6343   3.158  -0.573   9.517 -1.2037 -0.1332 -0.4526
   72SLPC   H8X 6344   3.130  -0.678   9.541  0.4613 -0.6762 -0.8160
   72SLPC   H8Y 6345   3.267  -0.563   9.501 -1.4057  1.5287 -0.8648
   72SLPC   C39 6346   3.088  -0.531   9.390 -0.1968 -0.4244 -0.1582
   72SLPC   H9X 6347   3.120  -0.427   9.371  0.3763 -0.9679 -2.2580
   72SLPC   H9Y 6348   2.978  -0.519   9.403 -0.1366 -1.4114  1.4214
   72SLPC  C310 6349   3.128  -0.611   9.264  0.0431 -0.4301  0.0128
   72SLPC  H10X 6350   3.098  -0.718   9.258  1.1922 -0.6234 -2.8780
   72SLPC  H10Y 6351   3.239  -0.614   9.266  0.0374 -3.0948 -1.3867
   72SLPC  C311 6352   3.078  -0.549   9.130 -0.0985 -0.1508 -0.2551
   72SLPC  H11X 6353   3.075  -0.439   9.121 -0.5744  0.0508  2.0588
   72SLPC  H11Y 6354   2.971  -0.570   9.110 -0.3494  0.0383  0.8553
   72SLPC  C312 6355   3.151  -0.610   9.012 -0.1707 -0.4137 -0.2318
   72SLPC  H12X 6356   3.154  -0.721   9.019 -2.3842 -0.3892  1.7829
   72SLPC  H12Y 6357   3.258  -0.581   9.014 -0.5094  0.7973  1.0030
   72SLPC  C313 6358   3.084  -0.566   8.878 -0.0397 -0.6585 -0.5366
   72SLPC  H13X 6359   3.070  -0.456   8.873 -1.7857 -0.7470  1.4202
   72SLPC  H13Y 6360   2.984  -0.613   8.887 -0.1640 -0.7004 -2.0136
   72SLPC  C314 6361   3.140  -0.613   8.743 -0.1946  0.0546 -0.3228
   72SLPC  H14X 6362   3.085  -0.566   8.658 -0.9042 -2.8028 -1.4748
   72SLPC  H14Y 6363   3.114  -0.720   8.731  1.4838 -0.1774 -2.1654
   72SLPC  C315 6364   3.294  -0.588   8.729  0.1158 -0.5516  0.0508
   72SLPC  H15X 6365   3.352  -0.639   8.809  0.5625  0.5050  0.4083
   72SLPC  H15Y 6366   3.310  -0.479   8.742  2.4326 -1.1217  2.5869
   72SLPC  C316 6367   3.353  -0.624   8.594  0.1134  0.2460  0.4006
   72SLPC  H16X 6368   3.426  -0.552   8.551  0.3595 -0.1483  0.1505
   72SLPC  H16Y 6369   3.267  -0.631   8.523  0.0351  3.2776  0.1380
   72SLPC  C317 6370   3.420  -0.769   8.597  0.4277 -0.2638 -0.2195
   72SLPC  H17X 6371   3.523  -0.757   8.637  0.7624  0.0195 -1.1536
   72SLPC  H17Y 6372   3.422  -0.787   8.487 -0.2596  0.9775 -0.4475
   72SLPC  C318 6373   3.355  -0.879   8.675  0.4349  0.1706 -0.7274
   72SLPC  H18X 6374   3.404  -0.970   8.634  0.1615 -1.5592  2.5725
   72SLPC  H18Y 6375   3.247  -0.892   8.653  1.0053  0.3449 -3.7889
   72SLPC  H18Z 6376   3.381  -0.873   8.783  0.7532  0.4502 -0.8207
   73SLPC     N 6377   4.151   5.314  11.307  0.3036  0.6621 -0.6918
   73SLPC   C13 6378   4.110   5.274  11.440 -0.0323  0.6619 -0.2740
   73SLPC  H13A 6379   4.183   5.209  11.487 -0.4859  1.0054  0.9186
   73SLPC  H13B 6380   4.096   5.354  11.511 -0.9860  0.0111  0.2881
   73SLPC  H13C 6381   4.014   5.224  11.431  0.7366 -0.7438 -0.8705
   73SLPC   C14 6382   4.294   5.360  11.308 -0.4511 -0.5496 -0.1037
   73SLPC  H14A 6383   4.294   5.453  11.363 -0.3732 -0.7977  0.3144
   73SLPC  H14B 6384   4.360   5.284  11.345  1.6306  0.5820 -1.4247
   73SLPC  H14C 6385   4.322   5.390  11.208  0.4303  2.1472  0.9092
   73SLPC   C15 6386   4.064   5.424  11.261 -0.3732  0.3601  0.2405
   73SLPC  H15A 6387   4.060   5.510  11.327 -1.6021  0.6652 -0.2318
   73SLPC  H15B 6388   4.107   5.455  11.167 -0.2499 -0.3896  0.0475
   73SLPC  H15C 6389   3.963   5.386  11.254 -0.5385  0.5136  1.6339
   73SLPC   C12 6390   4.128   5.198  11.208 -0.3796  0.2382  0.2434
   73SLPC  H12A 6391   4.023   5.172  11.214 -0.0632 -1.8038 -2.0393
   73SLPC  H12B 6392   4.183   5.113  11.247  1.5450  0.0863 -2.5825
   73SLPC   C11 6393   4.173   5.218  11.056  0.1130  0.8584  0.2572
   73SLPC  H11A 6394   4.104   5.296  11.016 -0.5364 -0.0658 -0.4345
   73SLPC  H11B 6395   4.154   5.125  10.998  0.8596  0.0570  1.2960
   73SLPC     P 6396   4.383   5.366  10.955 -0.4652  0.1842 -0.1785
   73SLPC   O13 6397   4.332   5.497  11.002 -0.4060  0.2667  0.3617
   73SLPC   O14 6398   4.528   5.347  10.966  0.0785 -0.0410 -0.2658
   73SLPC   O12 6399   4.309   5.255  11.038 -0.7209 -0.4738  0.1478
   73SLPC   O11 6400   4.338   5.334  10.805  0.1055 -0.5482 -0.0845
   73SLPC    C1 6401   4.364   5.199  10.754 -0.2173 -0.2203  0.7216
   73SLPC    HA 6402   4.473   5.179  10.758 -0.1150  0.4395  1.4174
   73SLPC    HB 6403   4.318   5.114  10.809 -3.1035  0.9645  0.2348
   73SLPC    C2 6404   4.334   5.206  10.609 -0.3138 -0.7028 -0.4961
   73SLPC    HS 6405   4.375   5.304  10.575 -1.9730  0.1483 -0.1032
   73SLPC   O21 6406   4.190   5.215  10.616 -0.1584  0.7337 -0.4652
   73SLPC   C21 6407   4.130   5.269  10.513  0.0144  0.6164 -0.2862
   73SLPC   O22 6408   4.181   5.334  10.422  0.1003 -0.0064 -0.5866
   73SLPC   C22 6409   3.981   5.241  10.520  0.2406 -0.4337 -0.3418
   73SLPC   H2R 6410   3.956   5.162  10.593 -1.4833  0.3401 -0.0583
   73SLPC   H2S 6411   3.929   5.336  10.543 -2.6437 -1.5719 -1.9308
   73SLPC    C3 6412   4.382   5.092  10.511  0.0438 -0.3500 -0.4167
   73SLPC    HX 6413   4.346   4.995  10.552  0.7630 -1.1304 -1.6007
   73SLPC    HY 6414   4.493   5.089  10.518  0.0638 -1.1920 -1.0007
   73SLPC   O31 6415   4.346   5.094  10.372  0.2338  0.0205 -0.1133
   73SLPC   C31 6416   4.414   5.186  10.304  0.2913  0.3193  0.0934
   73SLPC   O32 6417   4.491   5.265  10.356 -0.2622 -0.4715  0.6719
   73SLPC   C32 6418   4.394   5.169  10.157 -0.4026 -0.5846  1.0292
   73SLPC   H2X 6419   4.286   5.179  10.133 -0.8175 -1.5904  2.4310
   73SLPC   H2Y 6420   4.426   5.066  10.130  2.6843  0.7520 -0.7964
   73SLPC   C23 6421   3.916   5.195  10.383  0.4872 -0.3024  0.0764
   73SLPC   H3R 6422   3.955   5.265  10.307 -0.3440 -1.3896 -1.3799
   73SLPC   H3S 6423   3.808   5.217  10.398  0.2825 -0.3827 -1.2149
   73SLPC   C24 6424   3.940   5.052  10.341 -0.6191 -0.0530  0.8659
   73SLPC   H4R 6425   3.882   4.980  10.404  2.2333 -0.3671  3.2305
   73SLPC   H4S 6426   4.044   5.022  10.366 -0.3772 -0.3046 -0.3960
   73SLPC   C25 6427   3.902   5.012  10.194 -0.0494  0.3222 -0.8579
   73SLPC   H5R 6428   3.806   5.063  10.172 -0.7531 -0.0187  1.3063
   73SLPC   H5S 6429   3.889   4.901  10.195 -0.5356  0.3492 -2.6661
   73SLPC   C26 6430   4.018   5.043  10.103 -0.1450  0.6514 -0.8762
   73SLPC   H6R 6431   4.112   4.993  10.135 -0.5715 -0.5256 -1.4209
   73SLPC   H6S 6432   4.025   5.154  10.107 -0.6312  0.7341 -2.0400
   73SLPC   C27 6433   3.993   4.990   9.958  0.6724  0.1065  0.1720
   73SLPC   H7R 6434   3.901   5.039   9.920  0.9884 -0.6749 -1.6974
   73SLPC   H7S 6435   3.974   4.880   9.965  0.6620  0.1258  0.4380
   73SLPC   C28 6436   4.118   5.018   9.869 -0.3378 -0.3339 -0.3540
   73SLPC   H8R 6437   4.198   4.964   9.923  0.0767 -0.0122 -0.6401
   73SLPC   H8S 6438   4.144   5.126   9.874  1.5898 -0.8246  0.9591
   73SLPC   C29 6439   4.099   4.967   9.732 -0.7379 -0.3364  0.2368
   73SLPC   H9R 6440   4.084   4.859   9.718  2.1791 -1.0132  1.8704
   73SLPC  C210 6441   4.132   5.040   9.623 -0.0710  0.0046 -0.1675
   73SLPC  H10R 6442   4.112   4.994   9.525  1.5944  0.3014 -0.6778
   73SLPC  C211 6443   4.191   5.178   9.617 -0.6942  0.1650 -0.1784
   73SLPC  H11R 6444   4.280   5.188   9.551  0.1209  0.6982  0.9730
   73SLPC  H11S 6445   4.229   5.201   9.719  0.2290  0.7794 -0.6487
   73SLPC  C212 6446   4.086   5.270   9.562  0.1947 -0.3916 -0.1121
   73SLPC  H12R 6447   4.036   5.236   9.471 -2.0354 -1.1536  1.3392
   73SLPC  C213 6448   4.049   5.390   9.617  0.4395  0.3761  0.4750
   73SLPC  H13R 6449   3.979   5.451   9.558 -2.3455 -2.5923  0.4829
   73SLPC  C214 6450   4.113   5.458   9.736  0.0831  0.3456 -0.3420
   73SLPC  H14R 6451   4.166   5.551   9.707  0.6426 -0.8313 -3.1872
   73SLPC  H14S 6452   4.184   5.389   9.786 -1.3327 -1.8658 -1.3440
   73SLPC  C215 6453   4.013   5.488   9.848  0.2712 -1.3009 -1.1658
   73SLPC  H15R 6454   3.927   5.546   9.807 -0.3864 -0.3352  1.4686
   73SLPC  H15S 6455   4.058   5.557   9.923  2.3498 -2.9107 -0.8835
   73SLPC  C216 6456   3.957   5.369   9.933 -0.0731  0.1268  0.2736
   73SLPC  H16R 6457   4.045   5.314   9.972  0.4181 -0.1842 -1.2236
   73SLPC  H16S 6458   3.895   5.312   9.860 -1.0128  1.6002 -0.0964
   73SLPC  C217 6459   3.881   5.417  10.052  0.2134 -0.2337  0.0633
   73SLPC  H17R 6460   3.948   5.482  10.113 -0.3399  0.9256 -0.5372
   73SLPC  H17S 6461   3.872   5.329  10.119  2.1684 -0.8867 -0.4757
   73SLPC  C218 6462   3.753   5.499  10.025  0.1671  0.1150 -0.1592
   73SLPC  H18R 6463   3.792   5.580   9.960 -1.3608 -0.4647 -1.8472
   73SLPC  H18S 6464   3.702   5.538  10.116  1.3947  1.2669  0.0459
   73SLPC  H18T 6465   3.685   5.431   9.969 -0.5160  0.3183  0.4190
   73SLPC   C33 6466   4.486   5.271  10.082 -0.2256 -0.2948 -0.4826
   73SLPC   H3X 6467   4.582   5.275  10.137 -1.2625 -0.1301  1.3648
   73SLPC   H3Y 6468   4.445   5.374  10.088  0.0021 -0.1448 -1.3417
   73SLPC   C34 6469   4.518   5.232   9.939 -0.7597 -0.4200 -0.8686
   73SLPC   H4X 6470   4.422   5.223   9.883 -1.9542 -0.5269  1.1688
   73SLPC   H4Y 6471   4.574   5.137   9.947  0.3559  0.1378 -1.9281
   73SLPC   C35 6472   4.622   5.323   9.866  0.1248  0.6318 -0.1001
   73SLPC   H5X 6473   4.721   5.291   9.903  0.0371 -0.8120 -1.0524
   73SLPC   H5Y 6474   4.620   5.428   9.902  0.6800  0.2894  0.9354
   73SLPC   C36 6475   4.613   5.323   9.710  0.4520  0.2436 -0.3280
   73SLPC   H6X 6476   4.620   5.214   9.686  0.3961 -0.3578  2.2758
   73SLPC   H6Y 6477   4.709   5.373   9.684  0.2958  1.8045  2.0008
   73SLPC   C37 6478   4.489   5.388   9.644  0.0796  0.6765  0.5512
   73SLPC   H7X 6479   4.486   5.498   9.662 -1.9394  1.1266 -2.1966
   73SLPC   H7Y 6480   4.396   5.348   9.688  0.7197 -0.9601  0.4456
   73SLPC   C38 6481   4.468   5.365   9.498 -0.0539 -0.6012  0.5876
   73SLPC   H8X 6482   4.365   5.386   9.465  0.0636  0.5423  0.9115
   73SLPC   H8Y 6483   4.473   5.258   9.470  4.2479 -0.4680  0.4953
   73SLPC   C39 6484   4.567   5.444   9.419 -0.0203 -0.8671  0.2537
   73SLPC   H9X 6485   4.668   5.411   9.452  0.8153  2.4639  1.1777
   73SLPC   H9Y 6486   4.556   5.552   9.442 -2.7123 -1.0075 -0.2164
   73SLPC  C310 6487   4.562   5.415   9.269  0.0048 -0.2864 -0.6120
   73SLPC  H10X 6488   4.554   5.305   9.256  0.7764 -0.6916  2.0368
   73SLPC  H10Y 6489   4.651   5.453   9.215 -0.1833  2.8261  1.1561
   73SLPC  C311 6490   4.442   5.490   9.202 -1.1428  0.5248 -0.2339
   73SLPC  H11X 6491   4.447   5.599   9.222  1.6449  0.6363 -1.2368
   73SLPC  H11Y 6492   4.348   5.446   9.242 -1.2658 -0.4350 -1.5253
   73SLPC  C312 6493   4.434   5.470   9.052 -0.1000  0.5230 -0.5260
   73SLPC  H12X 6494   4.336   5.500   9.009 -0.9738 -0.2722  0.8702
   73SLPC  H12Y 6495   4.433   5.359   9.060 -0.2276  0.6533  1.3774
   73SLPC  C313 6496   4.550   5.513   8.961  1.1111  0.0809  0.4667
   73SLPC  H13X 6497   4.649   5.468   8.985  0.3657 -1.1057  1.3715
   73SLPC  H13Y 6498   4.549   5.624   8.957 -1.9579  0.0388 -1.5664
   73SLPC  C314 6499   4.526   5.472   8.813 -0.0895  0.5591 -0.2591
   73SLPC  H14X 6500   4.599   5.540   8.764  2.3311  1.4415  4.3478
   73SLPC  H14Y 6501   4.432   5.525   8.787 -0.0747 -0.4705 -2.5438
   73SLPC  C315 6502   4.551   5.322   8.785 -0.1028  0.0635  0.0901
   73SLPC  H15X 6503   4.466   5.253   8.808  0.5779  0.0036  2.5274
   73SLPC  H15Y 6504   4.634   5.287   8.850 -1.8853 -1.3225  1.6916
   73SLPC  C316 6505   4.593   5.278   8.646  0.1905  0.1359  0.4331
   73SLPC  H16X 6506   4.612   5.169   8.639 -0.2520 -0.1108  2.5976
   73SLPC  H16Y 6507   4.685   5.338   8.627  1.6280 -2.4075 -0.8062
   73SLPC  C317 6508   4.494   5.326   8.538  0.0253  0.5803 -0.6485
   73SLPC  H17X 6509   4.513   5.275   8.441  1.3314  2.8958 -1.6644
   73SLPC  H17Y 6510   4.489   5.436   8.522  1.2100  0.6594 -0.5377
   73SLPC  C318 6511   4.345   5.281   8.573  0.0985  0.4219  0.1678
   73SLPC  H18X 6512   4.345   5.180   8.617 -0.1814 -0.6658 -2.2635
   73SLPC  H18Y 6513   4.290   5.287   8.477 -0.0698  0.6355  0.2779
   73SLPC  H18Z 6514   4.305   5.349   8.652  0.5242 -1.3726  1.9649
   74SLPC     N 6515   4.667   0.685  10.946  0.5564  0.2774  0.1965
   74SLPC   C13 6516   4.523   0.714  10.918 -0.0021  0.1629  0.5116
   74SLPC  H13A 6517   4.472   0.622  10.893 -3.0010  2.0206 -0.4937
   74SLPC  H13B 6518   4.485   0.766  11.005  3.2155  3.8756 -0.1882
   74SLPC  H13C 6519   4.525   0.775  10.829  2.6667  0.6434  0.8782
   74SLPC   C14 6520   4.685   0.596  11.066  0.2153  0.0259  0.1084
   74SLPC  H14A 6521   4.622   0.509  11.063  1.0155 -0.5523 -0.0482
   74SLPC  H14B 6522   4.787   0.562  11.080 -0.0544  0.0074  2.1506
   74SLPC  H14C 6523   4.652   0.652  11.152 -0.3098 -0.2911  0.1133
   74SLPC   C15 6524   4.737   0.811  10.977 -0.7313 -0.7921  0.2378
   74SLPC  H15A 6525   4.718   0.887  10.903 -0.9589 -2.0410 -1.0113
   74SLPC  H15B 6526   4.697   0.849  11.070  1.4899 -0.6149  1.1523
   74SLPC  H15C 6527   4.843   0.805  10.995 -0.6295  0.4863  0.1124
   74SLPC   C12 6528   4.733   0.617  10.825  0.3487 -0.6324 -0.3698
   74SLPC  H12A 6529   4.696   0.517  10.812 -1.0251 -0.1995  0.1570
   74SLPC  H12B 6530   4.839   0.606  10.843  0.4948  0.3538 -0.6211
   74SLPC   C11 6531   4.718   0.684  10.689  0.2252  0.2230  0.2681
   74SLPC  H11A 6532   4.801   0.639  10.630 -1.5501  0.2792 -2.3660
   74SLPC  H11B 6533   4.741   0.793  10.696  0.9842  0.0969 -0.1171
   74SLPC     P 6534   4.561   0.543  10.551 -0.0410  0.0907  0.0552
   74SLPC   O13 6535   4.575   0.426  10.639 -0.1701  0.3866  0.8339
   74SLPC   O14 6536   4.433   0.564  10.484  0.0305 -0.1691 -0.1417
   74SLPC   O12 6537   4.581   0.665  10.644  0.5160  0.1393  0.2526
   74SLPC   O11 6538   4.670   0.547  10.435 -0.1791  0.8559 -0.4751
   74SLPC    C1 6539   4.691   0.646  10.342  0.4147 -0.4129  1.1370
   74SLPC    HA 6540   4.633   0.738  10.365  0.2311 -0.6968  1.8186
   74SLPC    HB 6541   4.798   0.676  10.337  0.3877  0.0633  3.0173
   74SLPC    C2 6542   4.642   0.599  10.197 -0.4080  0.1084 -0.9622
   74SLPC    HS 6543   4.536   0.570  10.214 -0.4592  2.2649  3.1592
   74SLPC   O21 6544   4.736   0.497  10.162 -0.2707 -0.1364 -0.2839
   74SLPC   C21 6545   4.683   0.390  10.112 -0.4956  0.1429  0.2529
   74SLPC   O22 6546   4.562   0.373  10.097 -0.2361  0.0809  0.1724
   74SLPC   C22 6547   4.794   0.295  10.069  0.6646 -0.2032  0.4492
   74SLPC   H2R 6548   4.892   0.341  10.041 -0.4642  3.1685  1.8258
   74SLPC   H2S 6549   4.811   0.215  10.144 -0.4649 -1.1421 -0.2890
   74SLPC    C3 6550   4.649   0.705  10.095 -0.3487  0.1115 -0.4440
   74SLPC    HX 6551   4.753   0.743  10.094 -0.2164 -0.2494 -0.5393
   74SLPC    HY 6552   4.576   0.786  10.117 -0.9548 -0.6378  0.3735
   74SLPC   O31 6553   4.618   0.653   9.970  0.0738  0.4052 -0.6269
   74SLPC   C31 6554   4.561   0.731   9.878  0.2051 -0.5101  0.0967
   74SLPC   O32 6555   4.532   0.849   9.899 -0.0135  0.1475  0.2178
   74SLPC   C32 6556   4.558   0.657   9.748 -0.0143 -0.3749  0.2690
   74SLPC   H2X 6557   4.492   0.569   9.764 -0.1446 -0.4333 -0.5817
   74SLPC   H2Y 6558   4.658   0.625   9.711 -0.2436 -1.1671  0.3260
   74SLPC   C23 6559   4.747   0.202   9.945 -0.5285 -0.3093  0.1824
   74SLPC   H3R 6560   4.644   0.166   9.967 -1.3259  1.3400 -0.7931
   74SLPC   H3S 6561   4.807   0.109   9.934 -0.4834 -0.2320 -0.2305
   74SLPC   C24 6562   4.750   0.280   9.814 -0.6865 -0.0156 -0.0950
   74SLPC   H4R 6563   4.853   0.321   9.802  1.2423 -3.8892  2.1623
   74SLPC   H4S 6564   4.676   0.362   9.815 -0.7399  0.0521 -3.8528
   74SLPC   C25 6565   4.702   0.184   9.701  0.2281 -0.1398  0.4350
   74SLPC   H5R 6566   4.594   0.173   9.726  0.2398 -2.2438 -0.3427
   74SLPC   H5S 6567   4.755   0.087   9.712 -0.1612 -0.1049  2.7911
   74SLPC   C26 6568   4.724   0.241   9.557  0.0111  0.6559 -0.1817
   74SLPC   H6R 6569   4.830   0.226   9.529 -0.2780  0.6105 -1.2572
   74SLPC   H6S 6570   4.715   0.352   9.563  2.6764  0.9750 -1.3360
   74SLPC   C27 6571   4.635   0.187   9.450  0.0519 -0.2335  0.2206
   74SLPC   H7R 6572   4.528   0.197   9.481  0.3665 -0.0611  1.2413
   74SLPC   H7S 6573   4.666   0.082   9.435  1.2347 -0.0514  1.3554
   74SLPC   C28 6574   4.644   0.268   9.315 -0.3206  0.2596 -0.3343
   74SLPC   H8R 6575   4.605   0.368   9.342  0.1132  1.0392 -2.4431
   74SLPC   H8S 6576   4.578   0.210   9.248 -1.1766  0.7680  0.0687
   74SLPC   C29 6577   4.781   0.265   9.250 -0.4329  0.1703  1.0625
   74SLPC   H9R 6578   4.858   0.198   9.290  0.2661  0.3773  0.0818
   74SLPC  C210 6579   4.826   0.353   9.154  0.3790  0.3594 -0.4576
   74SLPC  H10R 6580   4.930   0.350   9.117 -0.2329 -1.2391 -2.1450
   74SLPC  C211 6581   4.735   0.453   9.082 -0.6847  0.7626 -0.5241
   74SLPC  H11R 6582   4.721   0.548   9.137 -0.4326  1.0435 -0.9423
   74SLPC  H11S 6583   4.633   0.410   9.090 -0.1736 -0.1193  2.0797
   74SLPC  C212 6584   4.778   0.473   8.944 -0.3324 -1.0179 -0.1220
   74SLPC  H12R 6585   4.862   0.542   8.929 -0.8870 -0.4799 -0.7511
   74SLPC  C213 6586   4.717   0.438   8.832 -0.4628 -0.3207 -0.1858
   74SLPC  H13R 6587   4.773   0.458   8.740 -0.0906  0.1350  0.1334
   74SLPC  C214 6588   4.582   0.360   8.817  0.0909  0.1370 -0.2833
   74SLPC  H14R 6589   4.499   0.420   8.774  0.5920  1.7254  0.8879
   74SLPC  H14S 6590   4.539   0.326   8.913 -0.9066  1.1165 -0.3794
   74SLPC  C215 6591   4.602   0.228   8.747  0.1414  0.1479 -1.1756
   74SLPC  H15R 6592   4.681   0.239   8.670  1.3440  1.1964  0.1631
   74SLPC  H15S 6593   4.506   0.190   8.706  0.5636 -1.2744 -0.8677
   74SLPC  C216 6594   4.650   0.109   8.837 -0.0452  0.5990  0.2564
   74SLPC  H16R 6595   4.578   0.091   8.920 -1.0390  2.6872 -0.1208
   74SLPC  H16S 6596   4.742   0.144   8.889 -0.8445 -0.6288  2.5686
   74SLPC  C217 6597   4.663  -0.025   8.760 -0.3282  0.1590 -1.2128
   74SLPC  H17R 6598   4.730  -0.003   8.673  0.2171 -1.5172 -1.2354
   74SLPC  H17S 6599   4.564  -0.053   8.717 -0.4199 -0.8327 -0.3566
   74SLPC  C218 6600   4.711  -0.132   8.860 -0.3291 -0.5914 -0.9718
   74SLPC  H18R 6601   4.622  -0.159   8.920 -0.8429  0.7243 -1.1188
   74SLPC  H18S 6602   4.787  -0.090   8.929  1.1893 -4.5523 -0.0992
   74SLPC  H18T 6603   4.763  -0.216   8.809  1.4631  0.6479 -1.2635
   74SLPC   C33 6604   4.497   0.741   9.636  0.0749  0.3690 -0.0678
   74SLPC   H3X 6605   4.507   0.851   9.652  1.7636  0.3283 -0.7503
   74SLPC   H3Y 6606   4.388   0.720   9.631 -0.2884  2.1232  0.1512
   74SLPC   C34 6607   4.560   0.695   9.504 -0.6409 -0.3699 -0.2244
   74SLPC   H4X 6608   4.569   0.584   9.500  2.5231 -0.1315 -0.9447
   74SLPC   H4Y 6609   4.664   0.733   9.490 -0.1321 -1.9262 -0.8694
   74SLPC   C35 6610   4.475   0.742   9.391 -0.5416 -1.2527 -0.0528
   74SLPC   H5X 6611   4.476   0.852   9.407  1.0154 -1.6829  3.3372
   74SLPC   H5Y 6612   4.376   0.692   9.401 -0.3339 -1.6305  0.1541
   74SLPC   C36 6613   4.525   0.719   9.251  0.1244 -0.6858  0.4276
   74SLPC   H6X 6614   4.525   0.610   9.230  1.5339 -0.6968  0.4085
   74SLPC   H6Y 6615   4.631   0.753   9.241 -0.0623  0.4563  2.2907
   74SLPC   C37 6616   4.436   0.796   9.153  0.4039  0.3948 -0.6571
   74SLPC   H7X 6617   4.466   0.902   9.163  0.9744  0.0884  1.0211
   74SLPC   H7Y 6618   4.327   0.787   9.172  0.0533 -2.1685 -3.4045
   74SLPC   C38 6619   4.458   0.744   9.010  0.2656 -0.7705 -0.3004
   74SLPC   H8X 6620   4.430   0.637   9.011  1.6917 -1.2474 -3.6432
   74SLPC   H8Y 6621   4.566   0.731   8.986  0.7693  0.8608  1.0126
   74SLPC   C39 6622   4.382   0.832   8.906  0.5449  0.7188  0.1102
   74SLPC   H9X 6623   4.337   0.918   8.959  0.0203  0.2600  0.4239
   74SLPC   H9Y 6624   4.301   0.765   8.869  1.6947  0.4773 -2.0003
   74SLPC  C310 6625   4.472   0.889   8.797 -0.3732 -0.6531  0.0583
   74SLPC  H10X 6626   4.550   0.955   8.840  0.4456 -0.7716 -1.2162
   74SLPC  H10Y 6627   4.402   0.938   8.726  1.1689 -0.2689 -1.2300
   74SLPC  C311 6628   4.542   0.783   8.693 -0.0308 -0.7590  0.4787
   74SLPC  H11X 6629   4.613   0.717   8.748 -0.0618 -0.7399  0.5410
   74SLPC  H11Y 6630   4.609   0.844   8.629  0.8568 -0.8560  1.3121
   74SLPC  C312 6631   4.442   0.699   8.613 -0.0526  0.8789 -0.1796
   74SLPC  H12X 6632   4.380   0.776   8.562 -0.5683  0.7918  0.3062
   74SLPC  H12Y 6633   4.377   0.635   8.676  0.5354 -0.0453 -0.5096
   74SLPC  C313 6634   4.500   0.609   8.504  0.0461  0.0291  0.2083
   74SLPC  H13X 6635   4.576   0.537   8.542 -0.5107  0.4324  2.1133
   74SLPC  H13Y 6636   4.550   0.678   8.432 -2.5550  0.6446 -1.0760
   74SLPC  C314 6637   4.382   0.528   8.442  0.0314  0.4131 -0.0006
   74SLPC  H14X 6638   4.308   0.606   8.413  1.0239  1.5898  0.5839
   74SLPC  H14Y 6639   4.335   0.457   8.514  0.0113 -0.8659 -1.2439
   74SLPC  C315 6640   4.418   0.436   8.319 -0.1279  1.2012  0.3767
   74SLPC  H15X 6641   4.316   0.401   8.293  0.1021  1.3138 -0.7391
   74SLPC  H15Y 6642   4.485   0.356   8.355 -2.2043 -0.5642  0.4062
   74SLPC  C316 6643   4.482   0.524   8.214 -0.4818  0.3763  0.4482
   74SLPC  H16X 6644   4.578   0.563   8.253 -0.3694 -0.6366  1.2025
   74SLPC  H16Y 6645   4.411   0.606   8.188 -0.2813 -0.3113 -2.4332
   74SLPC  C317 6646   4.506   0.449   8.082 -0.2375 -0.1371 -0.2543
   74SLPC  H17X 6647   4.411   0.449   8.024 -0.9814 -2.7512  0.8733
   74SLPC  H17Y 6648   4.525   0.341   8.101 -1.7420 -0.2382  0.7611
   74SLPC  C318 6649   4.619   0.503   7.998  0.6722  0.0222  0.4146
   74SLPC  H18X 6650   4.711   0.509   8.058  0.7378  1.9931  0.1229
   74SLPC  H18Y 6651   4.605   0.610   7.975 -1.2009  0.0313  1.4470
   74SLPC  H18Z 6652   4.638   0.440   7.908 -1.0677 -0.6550  0.4782
   75SLPC     N 6653   1.769   3.691   6.107  0.1050  0.3417 -0.0531
   75SLPC   C13 6654   1.791   3.545   6.064  0.8660  0.5444 -0.5581
   75SLPC  H13A 6655   1.883   3.545   6.009  1.6326  0.0875  0.7026
   75SLPC  H13B 6656   1.807   3.492   6.157  0.1048  1.2762  0.0039
   75SLPC  H13C 6657   1.711   3.497   6.009  0.6989 -0.6513  0.7057
   75SLPC   C14 6658   1.721   3.775   5.986 -0.0918 -0.3035  0.0022
   75SLPC  H14A 6659   1.627   3.741   5.944  1.5932 -3.6778 -1.1770
   75SLPC  H14B 6660   1.720   3.877   6.021 -0.2911 -0.5290  0.6768
   75SLPC  H14C 6661   1.789   3.781   5.903 -0.2405  1.9981  0.0101
   75SLPC   C15 6662   1.902   3.746   6.155  0.8056  0.6314 -0.4041
   75SLPC  H15A 6663   1.933   3.718   6.254 -0.1322 -2.0545 -0.8360
   75SLPC  H15B 6664   1.976   3.718   6.082  1.1094 -0.1019  0.1827
   75SLPC  H15C 6665   1.888   3.853   6.153 -0.1022  0.5761  1.7108
   75SLPC   C12 6666   1.674   3.696   6.223  0.0252 -0.7240  0.3706
   75SLPC  H12A 6667   1.570   3.677   6.200 -0.3211  1.6214 -0.0476
   75SLPC  H12B 6668   1.669   3.798   6.259 -1.8046 -0.9759  0.9015
   75SLPC   C11 6669   1.701   3.605   6.349  0.0695 -0.1416 -0.1144
   75SLPC  H11A 6670   1.679   3.500   6.322  0.6561  0.3236 -2.5765
   75SLPC  H11B 6671   1.631   3.634   6.430  3.3302  1.9311  2.1127
   75SLPC     P 6672   1.941   3.513   6.430  0.4845  0.0430  0.3737
   75SLPC   O13 6673   1.937   3.422   6.316  0.2732  0.0172  0.2026
   75SLPC   O14 6674   2.066   3.585   6.454  1.2525 -0.0105  0.5787
   75SLPC   O12 6675   1.829   3.622   6.404 -0.1533  0.2997  0.0338
   75SLPC   O11 6676   1.886   3.427   6.558 -0.8444 -0.2387 -0.2658
   75SLPC    C1 6677   1.897   3.483   6.688  0.2893 -0.4562  0.5617
   75SLPC    HA 6678   1.998   3.521   6.713 -0.1642  1.3317 -0.2781
   75SLPC    HB 6679   1.825   3.567   6.697  3.8199  2.6586  0.9646
   75SLPC    C2 6680   1.865   3.367   6.793  0.3172 -0.5662 -0.2204
   75SLPC    HS 6681   1.853   3.406   6.896 -0.9134 -1.1416 -0.1414
   75SLPC   O21 6682   1.963   3.269   6.782 -0.4924  0.3631 -0.2138
   75SLPC   C21 6683   2.071   3.288   6.857  0.3616  0.5278 -0.4200
   75SLPC   O22 6684   2.112   3.395   6.906 -0.0451 -0.6025 -0.2843
   75SLPC   C22 6685   2.141   3.163   6.864 -0.6005 -0.0744  0.4610
   75SLPC   H2R 6686   2.112   3.091   6.784  0.3572  0.5120 -0.4090
   75SLPC   H2S 6687   2.249   3.187   6.856 -0.9929  1.1672 -1.2271
   75SLPC    C3 6688   1.725   3.309   6.763  0.0960 -0.1111 -0.0729
   75SLPC    HX 6689   1.720   3.254   6.667 -0.6335 -0.6818  0.2902
   75SLPC    HY 6690   1.650   3.392   6.762 -1.8567 -1.8130  0.7783
   75SLPC   O31 6691   1.686   3.215   6.866 -0.0775 -0.4479 -0.1776
   75SLPC   C31 6692   1.708   3.089   6.852  0.8412  0.1286 -0.0816
   75SLPC   O32 6693   1.749   3.034   6.753  0.5497 -0.5510 -0.0953
   75SLPC   C32 6694   1.690   3.030   6.989  0.7512 -0.1837 -0.0422
   75SLPC   H2X 6695   1.609   3.089   7.037 -0.1686 -0.3686 -1.3266
   75SLPC   H2Y 6696   1.788   3.035   7.040  1.4492  2.0622 -1.4739
   75SLPC   C23 6697   2.121   3.086   6.995 -0.1259  0.3218 -0.2609
   75SLPC   H3R 6698   2.030   3.023   6.989  0.5523 -0.6419 -0.4959
   75SLPC   H3S 6699   2.103   3.166   7.070  0.9857 -1.6192  2.1489
   75SLPC   C24 6700   2.241   3.006   7.037  0.3642  0.4538  0.2437
   75SLPC   H4R 6701   2.327   3.074   7.057  1.6273 -1.0248 -0.0854
   75SLPC   H4S 6702   2.256   2.949   6.943 -2.6984  1.2444 -0.7858
   75SLPC   C25 6703   2.217   2.925   7.158 -0.1406 -0.0226 -0.1011
   75SLPC   H5R 6704   2.313   2.869   7.168  1.5706  2.4350 -2.1081
   75SLPC   H5S 6705   2.135   2.851   7.148  0.2327 -0.3393 -0.8800
   75SLPC   C26 6706   2.208   3.001   7.301 -0.6406  0.5328  0.1535
   75SLPC   H6R 6707   2.139   3.088   7.304 -1.4138 -0.1180  1.5853
   75SLPC   H6S 6708   2.305   3.049   7.324 -0.6189  0.2679  0.6187
   75SLPC   C27 6709   2.159   2.908   7.412  0.4852 -0.3264 -0.7201
   75SLPC   H7R 6710   2.234   2.828   7.430 -0.2609 -0.8034  0.3312
   75SLPC   H7S 6711   2.068   2.853   7.378  1.3057 -0.9544 -1.9700
   75SLPC   C28 6712   2.123   2.969   7.548  0.5592 -0.3004  0.3462
   75SLPC   H8R 6713   2.034   2.910   7.579  0.1598  0.1239  0.0296
   75SLPC   H8S 6714   2.090   3.075   7.535  1.2067  0.1324  2.0905
   75SLPC   C29 6715   2.233   2.951   7.654 -0.1016 -0.3470 -0.0079
   75SLPC   H9R 6716   2.328   3.004   7.637 -0.7702  1.6142  2.1889
   75SLPC  C210 6717   2.226   2.887   7.771  0.9866  0.5106 -0.3147
   75SLPC  H10R 6718   2.317   2.884   7.834  1.7338  0.5903 -1.3839
   75SLPC  C211 6719   2.101   2.822   7.829 -0.2274  0.0074 -0.6823
   75SLPC  H11R 6720   2.140   2.733   7.884  0.4405  0.1537 -0.9276
   75SLPC  H11S 6721   2.028   2.785   7.754 -1.8990 -0.7746  1.2661
   75SLPC  C212 6722   2.036   2.924   7.916 -0.5325 -0.7264 -0.3233
   75SLPC  H12R 6723   1.952   2.973   7.864  0.5618  1.5637 -0.0227
   75SLPC  C213 6724   2.076   2.967   8.035  0.1627 -0.4755 -0.5855
   75SLPC  H13R 6725   2.015   3.033   8.099  1.4038 -1.7991  2.0393
   75SLPC  C214 6726   2.197   2.920   8.109  0.3511  0.5173 -0.3973
   75SLPC  H14R 6727   2.285   2.982   8.083  1.2999 -0.6145  0.0814
   75SLPC  H14S 6728   2.211   2.812   8.084 -2.0321  0.2183 -0.5601
   75SLPC  C215 6729   2.170   2.921   8.267 -0.1340  0.4552  0.8088
   75SLPC  H15R 6730   2.089   2.849   8.290  0.9959 -1.4751 -1.0399
   75SLPC  H15S 6731   2.131   3.017   8.306 -1.7701  0.8541 -1.7266
   75SLPC  C216 6732   2.292   2.883   8.346  0.1526  0.0455  0.3382
   75SLPC  H16R 6733   2.375   2.950   8.314 -0.1387 -0.3320 -1.2259
   75SLPC  H16S 6734   2.324   2.780   8.321  1.0342  0.4520 -0.2502
   75SLPC  C217 6735   2.270   2.895   8.500 -0.3897 -0.7014  0.2609
   75SLPC  H17R 6736   2.357   2.869   8.564 -1.7655 -1.5584  1.7992
   75SLPC  H17S 6737   2.184   2.828   8.522 -0.7691 -0.2526  0.1613
   75SLPC  C218 6738   2.242   3.042   8.542 -0.3610  0.9447 -0.3477
   75SLPC  H18R 6739   2.331   3.107   8.521 -1.6760  2.7821 -0.3633
   75SLPC  H18S 6740   2.213   3.049   8.649 -0.2415  0.6699 -0.2940
   75SLPC  H18T 6741   2.159   3.087   8.484  1.6055 -1.0728 -4.9284
   75SLPC   C33 6742   1.648   2.880   6.994 -0.1617  0.0295 -0.0097
   75SLPC   H3X 6743   1.540   2.861   7.010  0.1583 -1.8132  0.0473
   75SLPC   H3Y 6744   1.660   2.833   6.894 -0.3961 -1.2123  0.5329
   75SLPC   C34 6745   1.728   2.806   7.103  0.2189 -0.3719 -0.4029
   75SLPC   H4X 6746   1.838   2.813   7.086  0.3666 -0.3691  0.5320
   75SLPC   H4Y 6747   1.700   2.699   7.099  0.8683 -0.5560 -0.1201
   75SLPC   C35 6748   1.699   2.861   7.244 -0.1853  0.6194 -0.1970
   75SLPC   H5X 6749   1.590   2.872   7.263 -0.5778 -0.4130 -1.7644
   75SLPC   H5Y 6750   1.768   2.947   7.259 -1.2087  1.4688 -0.3241
   75SLPC   C36 6751   1.758   2.758   7.341 -0.0350  0.4664  0.2878
   75SLPC   H6X 6752   1.868   2.752   7.324 -0.3972 -1.2953 -1.6081
   75SLPC   H6Y 6753   1.710   2.658   7.332 -0.8435  0.8904 -0.1757
   75SLPC   C37 6754   1.718   2.808   7.482 -0.2958 -0.8300 -0.0784
   75SLPC   H7X 6755   1.615   2.849   7.479 -0.3972 -1.1546 -1.6553
   75SLPC   H7Y 6756   1.787   2.893   7.501 -2.0051  0.0571  2.2521
   75SLPC   C38 6757   1.719   2.693   7.582  0.2980  0.0209 -0.4027
   75SLPC   H8X 6758   1.826   2.665   7.594 -0.3957 -2.9127 -0.7189
   75SLPC   H8Y 6759   1.660   2.604   7.551 -0.3868  0.4531 -0.3207
   75SLPC   C39 6760   1.658   2.751   7.713 -1.0050 -0.1772  0.2333
   75SLPC   H9X 6761   1.554   2.785   7.693 -1.5563 -1.4187  0.9217
   75SLPC   H9Y 6762   1.710   2.844   7.743 -0.5650 -0.9648  1.9553
   75SLPC  C310 6763   1.657   2.649   7.825 -0.2650 -0.3787 -0.4571
   75SLPC  H10X 6764   1.619   2.548   7.798 -0.3040 -1.1467  2.3234
   75SLPC  H10Y 6765   1.602   2.690   7.913  1.3674 -0.8551  0.8004
   75SLPC  C311 6766   1.802   2.618   7.872  0.4140 -0.5414  0.4756
   75SLPC  H11X 6767   1.857   2.713   7.891  0.0201  0.0776 -1.3502
   75SLPC  H11Y 6768   1.863   2.584   7.785  1.6958 -1.8578  1.8692
   75SLPC  C312 6769   1.810   2.532   7.994 -0.7554  0.2303 -0.1923
   75SLPC  H12X 6770   1.797   2.425   7.969  0.5505  0.4646 -1.9550
   75SLPC  H12Y 6771   1.730   2.572   8.060 -2.1456 -0.3947 -1.4638
   75SLPC  C313 6772   1.951   2.531   8.062  0.0348  0.2587 -0.2959
   75SLPC  H13X 6773   1.989   2.634   8.080  0.5916 -0.0197  0.1221
   75SLPC  H13Y 6774   2.026   2.472   8.006 -0.9403 -1.4751  0.1792
   75SLPC  C314 6775   1.931   2.480   8.208  0.0207  0.0362 -0.1917
   75SLPC  H14X 6776   1.864   2.392   8.210  0.1347 -0.0354  2.5758
   75SLPC  H14Y 6777   1.874   2.545   8.278  0.4093  0.6352 -0.4169
   75SLPC  C315 6778   2.071   2.445   8.272 -0.0281  0.5827 -0.0610
   75SLPC  H15X 6779   2.137   2.533   8.254  0.5192  0.8358  2.9134
   75SLPC  H15Y 6780   2.104   2.360   8.208 -2.2337 -1.0140  0.8820
   75SLPC  C316 6781   2.068   2.393   8.416 -0.2412  0.0932  0.6195
   75SLPC  H16X 6782   2.129   2.300   8.420 -1.4299 -0.8849 -2.4916
   75SLPC  H16Y 6783   1.970   2.354   8.452  0.6821 -1.1734  1.8222
   75SLPC  C317 6784   2.117   2.495   8.523  0.4579  0.2520  0.5708
   75SLPC  H17X 6785   2.055   2.586   8.510 -0.9429 -0.6106  1.0986
   75SLPC  H17Y 6786   2.221   2.520   8.496  0.4588  1.3969  1.6014
   75SLPC  C318 6787   2.115   2.470   8.667  0.0020  0.0400 -0.7244
   75SLPC  H18X 6788   2.204   2.409   8.693 -1.2993 -1.7919 -0.4380
   75SLPC  H18Y 6789   2.027   2.420   8.712 -0.2314  1.1048  0.0244
   75SLPC  H18Z 6790   2.133   2.559   8.732  1.5549 -1.1525  0.5304
   76SLPC     N 6791   3.190   1.151   6.077 -0.5058 -0.5885  0.2045
   76SLPC   C13 6792   3.070   1.144   6.172 -0.0834 -0.5154  1.3781
   76SLPC  H13A 6793   2.985   1.193   6.128 -0.8015 -3.4800 -0.6782
   76SLPC  H13B 6794   3.041   1.040   6.170 -1.5635 -0.1144 -2.1945
   76SLPC  H13C 6795   3.095   1.172   6.273  0.1790  1.5264  0.7755
   76SLPC   C14 6796   3.156   1.054   5.967  0.4506 -0.0661 -0.8971
   76SLPC  H14A 6797   3.238   1.037   5.900  2.6694 -1.1738  1.9852
   76SLPC  H14B 6798   3.127   0.961   6.013  0.9147  0.1295 -0.2028
   76SLPC  H14C 6799   3.069   1.085   5.911  0.9115  0.3761 -1.3737
   76SLPC   C15 6800   3.316   1.103   6.147 -0.5982  0.4907  0.1101
   76SLPC  H15A 6801   3.407   1.120   6.091 -0.5711  0.2823  0.0935
   76SLPC  H15B 6802   3.321   1.157   6.240 -1.9813  1.6970 -0.4843
   76SLPC  H15C 6803   3.314   0.999   6.174 -0.2722  0.0155 -1.6649
   76SLPC   C12 6804   3.205   1.283   6.018 -0.3998  0.2781 -0.4364
   76SLPC  H12A 6805   3.110   1.318   5.983 -0.4803 -2.6566 -3.2879
   76SLPC  H12B 6806   3.268   1.277   5.931  0.5327  0.4228  0.2122
   76SLPC   C11 6807   3.273   1.393   6.100 -0.5265 -0.3805 -0.4588
   76SLPC  H11A 6808   3.272   1.485   6.038 -0.6643  0.8577  1.3215
   76SLPC  H11B 6809   3.382   1.373   6.109 -0.2068  0.7028 -1.9002
   76SLPC     P 6810   3.251   1.416   6.366  0.1548  0.3442  0.1180
   76SLPC   O13 6811   3.347   1.530   6.401 -0.4705  0.1552  0.8211
   76SLPC   O14 6812   3.132   1.405   6.455 -0.3175 -0.3112  0.0225
   76SLPC   O12 6813   3.203   1.422   6.220 -0.0980  0.0049  0.2895
   76SLPC   O11 6814   3.322   1.278   6.388 -0.0202 -0.1308 -0.1438
   76SLPC    C1 6815   3.286   1.179   6.486 -0.4658  0.4949  0.7261
   76SLPC    HA 6816   3.226   1.219   6.571  0.6641  0.3512  1.6106
   76SLPC    HB 6817   3.227   1.093   6.448 -0.8870  1.3780 -0.6582
   76SLPC    C2 6818   3.407   1.107   6.559  0.0678 -0.1638  0.6914
   76SLPC    HS 6819   3.362   1.071   6.654 -2.6034 -0.4334 -0.6410
   76SLPC   O21 6820   3.504   1.202   6.583 -0.1885 -0.1679  0.5501
   76SLPC   C21 6821   3.480   1.280   6.690  0.2168  0.7576 -0.2299
   76SLPC   O22 6822   3.379   1.280   6.758 -0.1175  0.5752 -0.0789
   76SLPC   C22 6823   3.592   1.382   6.709  0.8828  0.7757  0.4960
   76SLPC   H2R 6824   3.673   1.366   6.636  0.3674 -0.4329  0.1757
   76SLPC   H2S 6825   3.550   1.478   6.671  1.0474 -0.1923 -2.2176
   76SLPC    C3 6826   3.477   0.993   6.480 -0.0179 -0.8552 -0.0613
   76SLPC    HX 6827   3.523   1.025   6.384  0.5663 -1.8450 -0.1126
   76SLPC    HY 6828   3.384   0.940   6.452 -0.0440 -1.2860  0.8178
   76SLPC   O31 6829   3.564   0.925   6.574  0.2768 -0.4230  0.1219
   76SLPC   C31 6830   3.610   0.806   6.528  0.0177 -0.2152 -0.5904
   76SLPC   O32 6831   3.595   0.752   6.425 -0.0052 -0.3541  0.1092
   76SLPC   C32 6832   3.696   0.754   6.641  0.4459  0.7577  1.0713
   76SLPC   H2X 6833   3.777   0.824   6.669  0.7924  1.3485 -1.3220
   76SLPC   H2Y 6834   3.746   0.662   6.604 -0.1561  0.6114  0.6032
   76SLPC   C23 6835   3.630   1.402   6.859  0.0246 -0.1878 -0.8483
   76SLPC   H3R 6836   3.543   1.418   6.927  0.3333  0.2796 -0.5606
   76SLPC   H3S 6837   3.693   1.493   6.864  0.5753 -0.5962 -0.2690
   76SLPC   C24 6838   3.711   1.280   6.904 -0.4944 -0.1805  0.3819
   76SLPC   H4R 6839   3.797   1.278   6.833  0.9915  2.6919  1.9805
   76SLPC   H4S 6840   3.653   1.187   6.889  0.9282 -1.6833  3.6099
   76SLPC   C25 6841   3.769   1.282   7.044  0.1373 -0.2134 -0.0754
   76SLPC   H5R 6842   3.816   1.184   7.069  2.0581  1.0431  1.3923
   76SLPC   H5S 6843   3.691   1.294   7.122  1.0594  1.8013  0.5691
   76SLPC   C26 6844   3.864   1.394   7.080  0.0710 -0.2444 -0.5385
   76SLPC   H6R 6845   3.821   1.496   7.067 -0.1712 -0.0824  1.3691
   76SLPC   H6S 6846   3.958   1.391   7.021 -0.3805  1.1899 -1.3664
   76SLPC   C27 6847   3.911   1.386   7.230 -0.0459 -0.5119 -0.4117
   76SLPC   H7R 6848   3.966   1.291   7.240 -1.1353 -1.4626 -2.9811
   76SLPC   H7S 6849   3.815   1.389   7.287 -0.0893 -0.2774 -0.4942
   76SLPC   C28 6850   3.980   1.515   7.263 -1.0502 -0.1052 -0.3306
   76SLPC   H8R 6851   4.043   1.530   7.173 -1.1612  0.5145 -0.3121
   76SLPC   H8S 6852   3.910   1.602   7.262  0.4029  1.0791 -1.7670
   76SLPC   C29 6853   4.074   1.503   7.373  0.3012  0.3327 -0.0807
   76SLPC   H9R 6854   4.161   1.443   7.344  1.6622  1.2387  1.9279
   76SLPC  C210 6855   4.084   1.574   7.484  0.3143  0.0285 -0.3907
   76SLPC  H10R 6856   4.168   1.548   7.549  1.4038  0.0538 -1.7697
   76SLPC  C211 6857   3.987   1.679   7.541  0.7926  0.4668 -0.2253
   76SLPC  H11R 6858   3.909   1.702   7.466  0.0487 -1.2458 -0.0046
   76SLPC  H11S 6859   4.044   1.774   7.555 -2.5380  2.0639  3.2033
   76SLPC  C212 6860   3.916   1.635   7.667 -0.3162  0.0308 -0.3748
   76SLPC  H12R 6861   3.814   1.596   7.653 -1.0354  1.6460  0.3407
   76SLPC  C213 6862   3.968   1.643   7.793  0.6868 -0.1469 -0.0248
   76SLPC  H13R 6863   3.909   1.593   7.871  0.0198 -0.9317 -1.0247
   76SLPC  C214 6864   4.108   1.684   7.825  0.0413 -0.2070  0.1627
   76SLPC  H14R 6865   4.107   1.782   7.876  1.6951  0.3572 -0.8667
   76SLPC  H14S 6866   4.165   1.707   7.733  0.1147  0.2166  0.3128
   76SLPC  C215 6867   4.191   1.574   7.895  0.4750  0.4736 -0.0294
   76SLPC  H15R 6868   4.299   1.595   7.904  1.3849 -3.8386  0.0377
   76SLPC  H15S 6869   4.188   1.478   7.839  1.5113  0.3944  0.0438
   76SLPC  C216 6870   4.134   1.527   8.035  0.4206  0.1746  0.0363
   76SLPC  H16R 6871   4.029   1.493   8.021  1.1199 -0.8626 -3.2730
   76SLPC  H16S 6872   4.149   1.595   8.122 -1.4480  1.1106 -0.3559
   76SLPC  C217 6873   4.207   1.396   8.076  0.0960 -0.2074 -0.4822
   76SLPC  H17R 6874   4.316   1.416   8.082  0.3392 -1.6134  0.0723
   76SLPC  H17S 6875   4.195   1.327   7.989 -0.2787 -0.3293 -0.3347
   76SLPC  C218 6876   4.169   1.325   8.207  0.0936  0.3031  0.4047
   76SLPC  H18R 6877   4.157   1.398   8.290 -0.1149  0.6111  0.1075
   76SLPC  H18S 6878   4.241   1.244   8.231 -0.2038 -0.3044 -0.6749
   76SLPC  H18T 6879   4.066   1.284   8.193  0.1880  0.2003 -0.0049
   76SLPC   C33 6880   3.604   0.718   6.760 -0.6352  0.1477 -0.4494
   76SLPC   H3X 6881   3.554   0.628   6.719  0.5764  0.0385 -1.7495
   76SLPC   H3Y 6882   3.537   0.797   6.801 -0.4455 -0.3830  0.9141
   76SLPC   C34 6883   3.685   0.660   6.883 -0.2682 -0.5088 -0.4081
   76SLPC   H4X 6884   3.766   0.597   6.842  1.1705  1.5042 -0.7155
   76SLPC   H4Y 6885   3.614   0.597   6.942 -0.2072 -2.2003 -2.0709
   76SLPC   C35 6886   3.764   0.760   6.975  0.3111  0.8097  0.6497
   76SLPC   H5X 6887   3.838   0.818   6.915  0.1644  1.3612  1.0000
   76SLPC   H5Y 6888   3.824   0.700   7.047  0.4272 -0.2916 -0.3573
   76SLPC   C36 6889   3.679   0.862   7.050  0.1135  0.0584 -0.0512
   76SLPC   H6X 6890   3.593   0.799   7.082  0.0730 -0.6224 -1.4601
   76SLPC   H6Y 6891   3.645   0.935   6.974 -3.9755  0.7401  2.2532
   76SLPC   C37 6892   3.757   0.916   7.177 -0.0419 -0.5105 -0.3439
   76SLPC   H7X 6893   3.808   1.015   7.172  0.9321 -1.0129 -0.4441
   76SLPC   H7Y 6894   3.843   0.850   7.201 -0.7698 -1.2278  0.3087
   76SLPC   C38 6895   3.667   0.924   7.303  0.0974  0.5541  0.6253
   76SLPC   H8X 6896   3.595   1.006   7.279  0.0749  1.0173  2.1562
   76SLPC   H8Y 6897   3.727   0.976   7.382 -1.3255 -0.6393  2.5454
   76SLPC   C39 6898   3.625   0.792   7.362  0.1353 -0.2836  0.0648
   76SLPC   H9X 6899   3.703   0.729   7.410 -0.5985 -2.3117 -1.3413
   76SLPC   H9Y 6900   3.591   0.732   7.275 -1.5084 -0.3569  0.7440
   76SLPC  C310 6901   3.509   0.802   7.462 -0.1810  0.2175 -0.1217
   76SLPC  H10X 6902   3.485   0.695   7.483  1.1467  0.1588  1.1843
   76SLPC  H10Y 6903   3.419   0.862   7.438  0.6606  1.3583 -0.4635
   76SLPC  C311 6904   3.563   0.849   7.599 -0.5704  0.2476 -0.0812
   76SLPC  H11X 6905   3.533   0.954   7.617 -1.5203 -0.0058 -0.1536
   76SLPC  H11Y 6906   3.674   0.840   7.598 -0.4095  2.0220 -1.3413
   76SLPC  C312 6907   3.498   0.779   7.721 -0.8769  0.3569 -0.8769
   76SLPC  H12X 6908   3.517   0.670   7.717  0.4379  0.5880 -1.0340
   76SLPC  H12Y 6909   3.389   0.799   7.732 -0.1607  2.7886  2.5060
   76SLPC  C313 6910   3.559   0.825   7.854  0.3402  0.2333 -0.1587
   76SLPC  H13X 6911   3.558   0.935   7.865  0.8674 -0.0985  4.0544
   76SLPC  H13Y 6912   3.666   0.797   7.865  0.1727  0.2477  1.6524
   76SLPC  C314 6913   3.476   0.775   7.968 -0.3204 -0.2709 -0.7491
   76SLPC  H14X 6914   3.370   0.775   7.935 -0.3714  1.6515 -0.6138
   76SLPC  H14Y 6915   3.481   0.845   8.053  1.9366 -2.0919  0.6824
   76SLPC  C315 6916   3.529   0.643   8.030  0.3167  0.1069  0.4137
   76SLPC  H15X 6917   3.622   0.664   8.087  1.0023  0.4083 -0.8075
   76SLPC  H15Y 6918   3.548   0.568   7.950 -1.0816 -0.2552  0.4066
   76SLPC  C316 6919   3.438   0.569   8.130 -0.4382  0.1054 -0.1266
   76SLPC  H16X 6920   3.495   0.485   8.174 -0.5087 -0.2114 -0.6388
   76SLPC  H16Y 6921   3.354   0.517   8.079 -0.0767 -0.2549 -0.3576
   76SLPC  C317 6922   3.396   0.657   8.244  0.2793  0.1060  0.0622
   76SLPC  H17X 6923   3.323   0.735   8.213  0.6444  0.5633  0.3488
   76SLPC  H17Y 6924   3.483   0.704   8.294  1.0229 -0.6340 -0.5203
   76SLPC  C318 6925   3.321   0.572   8.352  0.1830 -0.2478  0.0275
   76SLPC  H18X 6926   3.396   0.527   8.420  1.5909  2.1786  0.1166
   76SLPC  H18Y 6927   3.259   0.494   8.302  0.6243 -0.4823 -0.1660
   76SLPC  H18Z 6928   3.268   0.642   8.420  0.9086  0.9899 -0.6592
   77SLPC     N 6929   0.065   1.121   6.264 -0.4645  0.6374  0.2154
   77SLPC   C13 6930   0.188   1.141   6.179 -0.1578 -0.1062  0.5079
   77SLPC  H13A 6931   0.249   1.228   6.200 -1.7307  1.1922 -0.2207
   77SLPC  H13B 6932   0.259   1.061   6.194 -0.3630 -0.4268 -0.2348
   77SLPC  H13C 6933   0.172   1.146   6.072 -1.3363 -0.4366  0.6640
   77SLPC   C14 6934   0.017   0.980   6.247 -0.3615 -0.1215 -0.2332
   77SLPC  H14A 6935   0.004   0.965   6.141 -0.7114  0.9160 -0.3405
   77SLPC  H14B 6936   0.091   0.906   6.275  1.2272  1.7858  0.7643
   77SLPC  H14C 6937  -0.068   0.960   6.311  0.4631  0.0059  0.9233
   77SLPC   C15 6938  -0.033   1.218   6.211  0.6820 -0.3560 -0.3456
   77SLPC  H15A 6939  -0.133   1.210   6.251  0.7447 -0.6504 -0.2460
   77SLPC  H15B 6940   0.019   1.312   6.213  1.5469 -0.8432  0.4175
   77SLPC  H15C 6941  -0.041   1.192   6.106 -0.2772  0.9344 -0.6038
   77SLPC   C12 6942   0.104   1.143   6.409 -0.1344  0.8306 -0.4486
   77SLPC  H12A 6943   0.173   1.062   6.428 -0.0259  0.4763 -2.2741
   77SLPC  H12B 6944   0.015   1.122   6.467  0.4069 -0.9409 -0.2356
   77SLPC   C11 6945   0.165   1.274   6.452  0.3469  0.2291  0.0523
   77SLPC  H11A 6946   0.249   1.299   6.384  1.6264 -2.4190  0.5907
   77SLPC  H11B 6947   0.206   1.265   6.555 -0.4887 -0.5292  0.3150
   77SLPC     P 6948   0.091   1.522   6.450 -0.0392 -0.2964 -0.2636
   77SLPC   O13 6949   0.194   1.549   6.342  0.4537  0.4835  0.6330
   77SLPC   O14 6950  -0.038   1.595   6.435  0.1391  0.4248  0.0865
   77SLPC   O12 6951   0.066   1.371   6.451  0.5459  0.0436  0.1784
   77SLPC   O11 6952   0.152   1.537   6.594  0.3862  0.0655  0.2249
   77SLPC    C1 6953   0.083   1.558   6.716  0.7944  0.2614  0.6130
   77SLPC    HA 6954   0.071   1.667   6.737  4.1210  1.0393 -1.0934
   77SLPC    HB 6955  -0.020   1.518   6.709  1.4311 -1.0779 -1.3531
   77SLPC    C2 6956   0.155   1.477   6.829 -0.6368 -0.0170 -0.0724
   77SLPC    HS 6957   0.223   1.407   6.777  2.0857  2.4206  0.0932
   77SLPC   O21 6958   0.043   1.419   6.911 -0.7776  0.1587 -0.0112
   77SLPC   C21 6959   0.038   1.281   6.905 -0.6926  0.0114  0.4290
   77SLPC   O22 6960   0.113   1.210   6.834  0.6532 -0.6151 -0.0115
   77SLPC   C22 6961  -0.082   1.228   6.992 -0.9272  0.1522  0.1069
   77SLPC   H2R 6962  -0.127   1.324   7.025  0.7269  1.5776 -1.6899
   77SLPC   H2S 6963  -0.147   1.164   6.929 -0.9243 -0.4227  0.6865
   77SLPC    C3 6964   0.262   1.559   6.906  0.0722 -0.2177 -0.2438
   77SLPC    HX 6965   0.213   1.659   6.913 -0.9993 -0.5350 -2.8367
   77SLPC    HY 6966   0.346   1.573   6.835  2.2939  0.8559  2.4962
   77SLPC   O31 6967   0.294   1.507   7.038  0.4833 -0.0439  0.2765
   77SLPC   C31 6968   0.388   1.419   7.037  0.6145  0.3885 -0.7695
   77SLPC   O32 6969   0.448   1.381   6.938 -0.2413 -0.3789 -0.1647
   77SLPC   C32 6970   0.392   1.352   7.174  0.7805 -0.5253  0.3358
   77SLPC   H2X 6971   0.482   1.287   7.175  1.4130  0.2539 -2.7190
   77SLPC   H2Y 6972   0.301   1.290   7.192 -1.2911  2.2699 -0.2326
   77SLPC   C23 6973  -0.030   1.144   7.113  0.4913  0.2999  0.6568
   77SLPC   H3R 6974   0.079   1.121   7.109  0.4247 -0.2403  1.7421
   77SLPC   H3S 6975  -0.077   1.043   7.116  0.6463  0.0794 -2.6987
   77SLPC   C24 6976  -0.043   1.227   7.238  0.0306 -0.1680 -0.1197
   77SLPC   H4R 6977  -0.150   1.228   7.268 -0.3305 -2.0588 -1.3363
   77SLPC   H4S 6978   0.005   1.327   7.231  0.3363 -0.4107 -1.5106
   77SLPC   C25 6979   0.035   1.155   7.358  0.0196 -0.1452 -0.1445
   77SLPC   H5R 6980   0.131   1.117   7.319 -1.2347 -1.5172 -1.9737
   77SLPC   H5S 6981  -0.029   1.067   7.379 -0.2076  0.2955  1.0793
   77SLPC   C26 6982   0.040   1.247   7.485  0.9034 -0.3630  0.4980
   77SLPC   H6R 6983  -0.057   1.284   7.525  1.3026  1.1494  0.0985
   77SLPC   H6S 6984   0.105   1.335   7.463 -0.1430 -0.2609 -2.3875
   77SLPC   C27 6985   0.113   1.177   7.596  0.2290  0.2990  0.3988
   77SLPC   H7R 6986   0.160   1.260   7.654 -0.6924  1.4145 -0.4061
   77SLPC   H7S 6987   0.194   1.121   7.543 -1.3349 -1.1020 -0.5462
   77SLPC   C28 6988   0.023   1.079   7.672 -0.2418 -0.2651  0.0366
   77SLPC   H8R 6989  -0.018   1.007   7.598  1.5827 -1.5360  0.2061
   77SLPC   H8S 6990  -0.057   1.127   7.732  1.3131  1.0596  1.1024
   77SLPC   C29 6991   0.108   0.988   7.761  0.2418  0.6457  0.6198
   77SLPC   H9R 6992   0.165   0.921   7.694 -0.6833 -1.2978  1.7455
   77SLPC  C210 6993   0.119   0.977   7.894  0.2047  0.0489  0.2614
   77SLPC  H10R 6994   0.182   0.894   7.930 -0.1195 -0.0255  0.6701
   77SLPC  C211 6995   0.040   1.058   7.993 -0.0839 -0.5606 -0.4275
   77SLPC  H11R 6996   0.036   1.007   8.091 -0.7130  0.9526  0.3448
   77SLPC  H11S 6997  -0.060   1.054   7.945 -0.0204  3.4501 -1.1206
   77SLPC  C212 6998   0.067   1.203   8.014 -0.4265 -0.2404  0.2524
   77SLPC  H12R 6999   0.122   1.247   7.929  1.0200 -1.0941  0.7266
   77SLPC  C213 7000   0.071   1.273   8.125  0.3064 -0.5878 -0.2601
   77SLPC  H13R 7001   0.115   1.373   8.124  2.9343 -1.6498  2.5229
   77SLPC  C214 7002   0.031   1.229   8.264  0.3155  0.3913  0.0230
   77SLPC  H14R 7003   0.128   1.197   8.309  0.0856  0.2357  0.4060
   77SLPC  H14S 7004  -0.040   1.144   8.258 -1.5769  1.9257  0.3773
   77SLPC  C215 7005  -0.024   1.352   8.348 -0.3182 -0.7784  0.3574
   77SLPC  H15R 7006  -0.112   1.384   8.290  1.2199 -0.2435 -1.7249
   77SLPC  H15S 7007   0.053   1.431   8.356  1.7109 -2.7430  0.8095
   77SLPC  C216 7008  -0.083   1.309   8.483  0.2288 -0.1001 -0.1269
   77SLPC  H16R 7009  -0.151   1.391   8.515  1.0230  1.4433 -2.3182
   77SLPC  H16S 7010  -0.004   1.295   8.559  2.2977  0.9638 -2.0147
   77SLPC  C217 7011  -0.171   1.181   8.488  0.1174  0.3695 -0.1151
   77SLPC  H17R 7012  -0.112   1.094   8.453 -1.0630  0.6930 -3.0249
   77SLPC  H17S 7013  -0.257   1.200   8.421 -0.1282  2.3311  0.7179
   77SLPC  C218 7014  -0.222   1.163   8.627 -0.5659 -0.6452  0.5350
   77SLPC  H18R 7015  -0.278   1.068   8.639  0.5193 -1.4810 -0.9356
   77SLPC  H18S 7016  -0.288   1.245   8.663  2.4278  1.5492  1.2236
   77SLPC  H18T 7017  -0.138   1.161   8.699  0.4936  0.5896 -0.6381
   77SLPC   C33 7018   0.409   1.453   7.294 -1.0351  0.1862  1.3174
   77SLPC   H3X 7019   0.318   1.517   7.302 -0.7705  0.7082  0.3145
   77SLPC   H3Y 7020   0.503   1.512   7.287  0.7652 -2.7547 -0.3772
   77SLPC   C34 7021   0.434   1.385   7.424 -0.1720  0.3597  0.1650
   77SLPC   H4X 7022   0.531   1.334   7.403 -1.8168 -1.5978 -3.0273
   77SLPC   H4Y 7023   0.353   1.313   7.448  1.2454 -1.7409 -1.1896
   77SLPC   C35 7024   0.447   1.487   7.537 -0.3501  0.0214 -1.2997
   77SLPC   H5X 7025   0.348   1.531   7.561 -0.0426  0.6384 -1.1310
   77SLPC   H5Y 7026   0.508   1.578   7.518  2.0255 -1.1242  0.6635
   77SLPC   C36 7027   0.500   1.416   7.661  0.6745  0.1051 -0.0112
   77SLPC   H6X 7028   0.589   1.354   7.637  0.2320 -0.6518  0.2887
   77SLPC   H6Y 7029   0.417   1.346   7.684 -0.1427  1.4815  1.2969
   77SLPC   C37 7030   0.525   1.510   7.778 -0.8255 -0.1468 -0.0469
   77SLPC   H7X 7031   0.563   1.453   7.865  0.0594  0.1533 -0.2333
   77SLPC   H7Y 7032   0.427   1.546   7.819  0.1562  1.3271  1.0703
   77SLPC   C38 7033   0.608   1.634   7.745 -0.2367 -0.0943 -0.5358
   77SLPC   H8X 7034   0.543   1.703   7.686  1.9780  0.3502 -2.5171
   77SLPC   H8Y 7035   0.690   1.599   7.678 -0.1957 -1.2666  0.1116
   77SLPC   C39 7036   0.663   1.712   7.867 -0.3742  0.1643  0.1566
   77SLPC   H9X 7037   0.588   1.717   7.949 -0.5345  1.5803 -0.0638
   77SLPC   H9Y 7038   0.682   1.816   7.834  0.9358 -0.4464 -1.1246
   77SLPC  C310 7039   0.790   1.638   7.918  0.0978 -0.2508 -0.2528
   77SLPC  H10X 7040   0.856   1.611   7.833  0.0200 -1.6278  0.1073
   77SLPC  H10Y 7041   0.739   1.548   7.960 -2.7855  1.9537  1.1901
   77SLPC  C311 7042   0.861   1.714   8.033 -1.0189 -0.2688  0.3051
   77SLPC  H11X 7043   0.902   1.814   8.007 -0.5613 -0.2067  1.2601
   77SLPC  H11Y 7044   0.951   1.655   8.060 -1.6357 -0.7788  1.2820
   77SLPC  C312 7045   0.776   1.745   8.159  0.5417 -0.3624 -0.7805
   77SLPC  H12X 7046   0.700   1.665   8.171 -0.1310  0.0939 -1.9500
   77SLPC  H12Y 7047   0.711   1.833   8.142 -0.6842 -0.7401  1.7622
   77SLPC  C313 7048   0.864   1.754   8.287 -0.0975 -0.2238  0.4982
   77SLPC  H13X 7049   0.916   1.853   8.287  1.2338 -0.9162 -0.3506
   77SLPC  H13Y 7050   0.933   1.667   8.283 -1.3329 -1.1423 -1.3950
   77SLPC  C314 7051   0.802   1.750   8.431  1.0212 -0.7350 -0.0837
   77SLPC  H14X 7052   0.870   1.692   8.497 -0.8743 -0.7767  1.8954
   77SLPC  H14Y 7053   0.712   1.684   8.426  1.5276 -1.3269 -1.6530
   77SLPC  C315 7054   0.777   1.892   8.494  0.3251  0.5383  0.1951
   77SLPC  H15X 7055   0.874   1.946   8.490  1.4438 -1.4800 -0.5796
   77SLPC  H15Y 7056   0.746   1.866   8.597 -0.2686 -1.6129 -0.4855
   77SLPC  C316 7057   0.659   1.973   8.431  0.0764  0.1174 -0.5349
   77SLPC  H16X 7058   0.693   2.016   8.335  2.3226 -1.8980 -0.6623
   77SLPC  H16Y 7059   0.643   2.058   8.501 -0.8328  0.8547 -1.6040
   77SLPC  C317 7060   0.527   1.903   8.400  0.1532 -0.7514 -0.2002
   77SLPC  H17X 7061   0.498   1.856   8.497  0.8432 -1.7399 -0.4596
   77SLPC  H17Y 7062   0.538   1.819   8.328  0.9734 -0.3407 -0.5658
   77SLPC  C318 7063   0.410   1.993   8.358  0.2260 -0.2770 -0.0265
   77SLPC  H18X 7064   0.448   2.052   8.271  2.6015 -0.9036  0.5604
   77SLPC  H18Y 7065   0.395   2.069   8.437  1.5957 -0.6003  0.5489
   77SLPC  H18Z 7066   0.309   1.953   8.336  0.3519  0.9261 -3.0871
   78SLPC     N 7067   2.126   2.157   6.098  0.2586  0.1617  0.9012
   78SLPC   C13 7068   2.086   2.263   5.998  0.6990 -0.8182 -0.3779
   78SLPC  H13A 7069   1.980   2.271   5.981  0.2293 -1.6676  2.0092
   78SLPC  H13B 7070   2.117   2.361   6.033  0.7474 -0.1421 -2.2403
   78SLPC  H13C 7071   2.139   2.259   5.903 -1.1518 -3.4104 -1.3338
   78SLPC   C14 7072   2.087   2.028   6.041  0.6151  0.8949  0.1728
   78SLPC  H14A 7073   2.136   2.015   5.946  1.1905 -0.1365  0.6029
   78SLPC  H14B 7074   2.116   1.949   6.108  3.7720 -0.2197 -2.3979
   78SLPC  H14C 7075   1.980   2.022   6.035  0.6483 -1.2263  1.4310
   78SLPC   C15 7076   2.042   2.173   6.223  0.1675  0.1692  0.2956
   78SLPC  H15A 7077   2.066   2.092   6.290  0.3711 -1.4851 -1.7290
   78SLPC  H15B 7078   2.055   2.269   6.271 -0.2137  0.1844  0.3693
   78SLPC  H15C 7079   1.938   2.159   6.196  0.2191 -0.6464  0.4950
   78SLPC   C12 7080   2.274   2.163   6.126 -0.4846  0.6896 -0.5091
   78SLPC  H12A 7081   2.340   2.166   6.040  1.3884  0.6128  0.8856
   78SLPC  H12B 7082   2.301   2.087   6.197 -2.1270  0.3563 -0.2345
   78SLPC   C11 7083   2.319   2.290   6.195 -0.5816  0.6800 -0.1930
   78SLPC  H11A 7084   2.242   2.335   6.261 -0.2588 -1.2024  1.5193
   78SLPC  H11B 7085   2.342   2.372   6.123  0.0340  0.7800  0.1173
   78SLPC     P 7086   2.575   2.259   6.230  0.0562 -0.6651  0.1459
   78SLPC   O13 7087   2.579   2.232   6.084 -0.8463  0.1086 -0.1124
   78SLPC   O14 7088   2.645   2.380   6.279 -0.2776  0.1106 -0.6296
   78SLPC   O12 7089   2.425   2.258   6.281 -0.2868 -0.2697 -0.0725
   78SLPC   O11 7090   2.641   2.134   6.304  0.4420 -0.4156  0.9816
   78SLPC    C1 7091   2.593   2.077   6.423  0.5800 -0.1206 -0.2338
   78SLPC    HA 7092   2.482   2.084   6.431  0.4609 -1.4339 -0.5838
   78SLPC    HB 7093   2.606   1.967   6.413  0.4883 -0.3635  2.0243
   78SLPC    C2 7094   2.662   2.132   6.557 -0.8814  0.1371  0.1958
   78SLPC    HS 7095   2.626   2.236   6.572 -2.6523 -0.1860 -1.6968
   78SLPC   O21 7096   2.808   2.118   6.559 -0.4929 -0.6517  0.1343
   78SLPC   C21 7097   2.870   2.196   6.648  0.7525 -0.1379  0.0768
   78SLPC   O22 7098   2.813   2.280   6.717  0.4188  0.0134 -0.0588
   78SLPC   C22 7099   3.023   2.165   6.643  0.1987 -0.5806 -0.2408
   78SLPC   H2R 7100   3.030   2.055   6.641  1.0025 -0.5159 -1.3436
   78SLPC   H2S 7101   3.066   2.194   6.545  1.2634  0.9109  0.6324
   78SLPC    C3 7102   2.605   2.055   6.675 -0.0550 -0.0409  0.6303
   78SLPC    HX 7103   2.617   1.949   6.644  0.2796  0.2333 -0.1949
   78SLPC    HY 7104   2.496   2.076   6.668  0.1243  0.2698 -1.7038
   78SLPC   O31 7105   2.660   2.081   6.804 -0.6001 -0.4784  0.3519
   78SLPC   C31 7106   2.599   2.167   6.882  0.4029 -0.4468  0.2670
   78SLPC   O32 7107   2.490   2.221   6.859  0.2539  0.9602  0.1799
   78SLPC   C32 7108   2.674   2.191   7.012  0.0993  0.1026 -0.4390
   78SLPC   H2X 7109   2.771   2.241   6.989 -0.7664  2.0424  0.0076
   78SLPC   H2Y 7110   2.698   2.104   7.076  1.9750 -0.2897 -1.6552
   78SLPC   C23 7111   3.110   2.234   6.751  0.4747 -0.3087 -0.3249
   78SLPC   H3R 7112   3.109   2.345   6.739  0.6305 -0.0222  2.0519
   78SLPC   H3S 7113   3.217   2.205   6.748  0.6554 -0.0495  2.3530
   78SLPC   C24 7114   3.073   2.199   6.902 -0.0138 -0.2421 -0.3098
   78SLPC   H4R 7115   2.962   2.198   6.907  0.0068 -1.4410  0.0531
   78SLPC   H4S 7116   3.103   2.278   6.974 -2.3531  0.3156  0.1096
   78SLPC   C25 7117   3.122   2.059   6.951  0.6704 -0.2147 -0.0352
   78SLPC   H5R 7118   3.226   2.071   6.989 -0.2095  4.0184  1.2895
   78SLPC   H5S 7119   3.130   1.986   6.867  2.6820 -1.5724  1.2768
   78SLPC   C26 7120   3.047   2.008   7.071  0.2038  0.0075  0.1179
   78SLPC   H6R 7121   2.942   2.044   7.069  0.7049  1.5519  0.8723
   78SLPC   H6S 7122   3.103   2.025   7.165  0.1836 -1.1851  0.3476
   78SLPC   C27 7123   3.031   1.850   7.084 -0.3017 -0.1569  1.0839
   78SLPC   H7R 7124   3.135   1.820   7.062 -0.0952  1.2884 -0.0128
   78SLPC   H7S 7125   2.965   1.810   7.005  1.8694 -0.2037 -0.7429
   78SLPC   C28 7126   2.986   1.800   7.224  0.2591  0.1148  0.1155
   78SLPC   H8R 7127   3.065   1.840   7.292 -0.1063  1.9987 -0.5375
   78SLPC   H8S 7128   2.974   1.690   7.222 -0.8356  0.1916  1.6099
   78SLPC   C29 7129   2.849   1.862   7.262  0.0786  0.3250 -0.4196
   78SLPC   H9R 7130   2.790   1.901   7.178  1.3046 -1.7487 -2.2907
   78SLPC  C210 7131   2.820   1.887   7.396 -0.7176  0.1715 -0.3962
   78SLPC  H10R 7132   2.727   1.945   7.406 -1.5858 -1.0823 -1.0480
   78SLPC  C211 7133   2.899   1.865   7.521  0.1028  0.7822 -0.4914
   78SLPC  H11R 7134   2.981   1.790   7.512  0.2813  0.4699  3.0125
   78SLPC  H11S 7135   2.829   1.835   7.601  1.7589  1.6243  1.3063
   78SLPC  C212 7136   2.951   2.001   7.558 -0.6197  0.3834 -0.6453
   78SLPC  H12R 7137   2.896   2.086   7.517  0.1123  0.4484 -1.5174
   78SLPC  C213 7138   3.057   2.025   7.635  0.1994 -0.6706  0.1408
   78SLPC  H13R 7139   3.086   2.125   7.673  0.6954 -0.7745  0.0470
   78SLPC  C214 7140   3.136   1.920   7.700 -0.1672  0.5429 -0.4621
   78SLPC  H14R 7141   3.232   1.898   7.648  1.9726  2.0454  2.7014
   78SLPC  H14S 7142   3.089   1.820   7.684  0.1032 -0.1588  2.7348
   78SLPC  C215 7143   3.175   1.931   7.855  0.4299  0.0643  0.8998
   78SLPC  H15R 7144   3.115   2.018   7.890  3.0794  2.3076 -0.0213
   78SLPC  H15S 7145   3.279   1.968   7.865  0.7369 -0.3719 -0.5777
   78SLPC  C216 7146   3.137   1.819   7.945 -0.9061 -0.1179 -0.4048
   78SLPC  H16R 7147   3.204   1.816   8.033 -1.3129 -1.3430 -0.1241
   78SLPC  H16S 7148   3.160   1.724   7.893  0.4370  0.0581 -0.1332
   78SLPC  C217 7149   2.991   1.819   7.986 -0.3749 -1.0943  0.4025
   78SLPC  H17R 7150   2.927   1.824   7.896 -0.3057 -0.3827  0.3902
   78SLPC  H17S 7151   2.969   1.911   8.043  3.5072 -0.2417  0.6973
   78SLPC  C218 7152   2.947   1.698   8.071  0.4548  0.3428 -0.4255
   78SLPC  H18R 7153   2.843   1.713   8.109  0.4820  0.5403 -0.4310
   78SLPC  H18S 7154   3.016   1.661   8.150 -0.8868 -0.4672  0.4004
   78SLPC  H18T 7155   2.943   1.611   8.002  0.6884 -0.3474  0.4175
   78SLPC   C33 7156   2.611   2.295   7.101  0.1340 -0.2196 -0.2607
   78SLPC   H3X 7157   2.518   2.251   7.144 -0.6226  0.4936 -1.1293
   78SLPC   H3Y 7158   2.574   2.382   7.042 -0.5291 -1.2801 -1.4241
   78SLPC   C34 7159   2.703   2.354   7.206 -0.4431  0.3980  0.2866
   78SLPC   H4X 7160   2.761   2.434   7.157 -0.4045  0.3516  0.2567
   78SLPC   H4Y 7161   2.762   2.265   7.239 -0.8396 -0.7044 -1.8745
   78SLPC   C35 7162   2.635   2.421   7.322 -0.6042 -0.0980 -0.1905
   78SLPC   H5X 7163   2.569   2.351   7.377  0.9405  0.7360  2.8358
   78SLPC   H5Y 7164   2.574   2.511   7.299  1.2439  2.1989  3.2885
   78SLPC   C36 7165   2.749   2.467   7.417  1.1183 -0.2645 -1.2713
   78SLPC   H6X 7166   2.697   2.515   7.503 -3.0093 -1.0070 -3.2426
   78SLPC   H6Y 7167   2.822   2.544   7.384  1.3697 -0.7047 -1.7433
   78SLPC   C37 7168   2.852   2.367   7.478 -0.1047 -0.9286 -0.1941
   78SLPC   H7X 7169   2.928   2.365   7.397 -2.0199 -1.8274 -2.0234
   78SLPC   H7Y 7170   2.807   2.266   7.489  1.1751 -1.2583  2.2191
   78SLPC   C38 7171   2.906   2.423   7.611 -0.4643 -0.2820  1.4365
   78SLPC   H8X 7172   2.902   2.534   7.603  1.2832 -0.2631  0.4975
   78SLPC   H8Y 7173   3.011   2.386   7.616 -0.3988 -0.1335  1.2227
   78SLPC   C39 7174   2.848   2.392   7.742 -0.0592  0.5170 -0.5689
   78SLPC   H9X 7175   2.842   2.281   7.751  1.2969  0.3591 -1.4344
   78SLPC   H9Y 7176   2.743   2.426   7.755 -1.1928 -3.3235  1.2193
   78SLPC  C310 7177   2.914   2.457   7.859  0.3419  0.1019  0.5944
   78SLPC  H10X 7178   2.896   2.566   7.850  0.7718  0.0746 -0.6558
   78SLPC  H10Y 7179   3.025   2.449   7.849  0.3980  0.6361  0.7689
   78SLPC  C311 7180   2.856   2.414   7.990 -0.0689  0.0568 -0.1902
   78SLPC  H11X 7181   2.747   2.432   7.983 -0.4072 -1.7745  0.0451
   78SLPC  H11Y 7182   2.878   2.492   8.066  1.3095 -1.0406  0.5679
   78SLPC  C312 7183   2.903   2.281   8.047  1.3276 -0.4046  0.6764
   78SLPC  H12X 7184   3.014   2.280   8.051  1.3838 -0.4231 -0.6024
   78SLPC  H12Y 7185   2.858   2.192   7.998  1.6855 -0.0247 -0.3489
   78SLPC  C313 7186   2.866   2.258   8.199 -0.6038  0.7119  0.8361
   78SLPC  H13X 7187   2.756   2.249   8.214 -0.7721 -1.0009 -1.2636
   78SLPC  H13Y 7188   2.906   2.340   8.263  0.2325  0.8886  0.1008
   78SLPC  C314 7189   2.933   2.120   8.256 -0.2865 -0.2719 -0.2170
   78SLPC  H14X 7190   2.903   2.039   8.187 -1.3216  0.9309 -1.2001
   78SLPC  H14Y 7191   2.914   2.091   8.362  2.1604  0.1577  0.3602
   78SLPC  C315 7192   3.093   2.126   8.247  0.7597  0.0163  0.2706
   78SLPC  H15X 7193   3.137   2.225   8.270 -0.2177  0.4930  0.0932
   78SLPC  H15Y 7194   3.138   2.099   8.149 -2.6354  0.9239 -1.6275
   78SLPC  C316 7195   3.147   2.025   8.349 -0.3153 -0.5836 -0.5271
   78SLPC  H16X 7196   3.094   1.931   8.320  0.8187 -1.9931  1.7785
   78SLPC  H16Y 7197   3.113   2.033   8.455  0.5921  0.4339 -0.3039
   78SLPC  C317 7198   3.297   2.018   8.344 -0.3167 -0.1613  0.1124
   78SLPC  H17X 7199   3.347   2.029   8.442 -0.5669 -2.6106  0.5368
   78SLPC  H17Y 7200   3.340   2.107   8.292 -1.4628  0.8183  0.8366
   78SLPC  C318 7201   3.347   1.892   8.276  0.4784 -0.3801 -0.4572
   78SLPC  H18X 7202   3.456   1.880   8.296  0.4479 -1.3761 -0.8520
   78SLPC  H18Y 7203   3.321   1.906   8.169 -0.1416  0.2830 -0.2235
   78SLPC  H18Z 7204   3.303   1.804   8.328  0.8220 -0.5602 -0.4658
   79SLPC     N 7205   6.373   4.626   6.364 -0.1683 -0.2511  0.1890
   79SLPC   C13 7206   6.429   4.769   6.340 -0.3853  0.2050  0.4876
   79SLPC  H13A 7207   6.364   4.822   6.271  1.2073  1.5439 -0.0183
   79SLPC  H13B 7208   6.447   4.818   6.434  0.0397  2.3621 -0.6956
   79SLPC  H13C 7209   6.524   4.771   6.288 -0.9518 -0.9673 -0.6398
   79SLPC   C14 7210   6.355   4.552   6.235  0.3533 -0.0128  0.2725
   79SLPC  H14A 7211   6.453   4.527   6.196 -0.1396 -2.6385  0.6423
   79SLPC  H14B 7212   6.323   4.450   6.251 -0.8492  0.3750  0.3486
   79SLPC  H14C 7213   6.293   4.595   6.158 -0.2346  0.2270  0.8773
   79SLPC   C15 7214   6.247   4.631   6.439  0.2071  0.0557 -0.6257
   79SLPC  H15A 7215   6.206   4.533   6.454  2.4822 -0.4753  2.5104
   79SLPC  H15B 7216   6.267   4.660   6.541 -1.1983 -0.3007 -0.2294
   79SLPC  H15C 7217   6.174   4.696   6.392 -2.5757 -1.7656  1.0332
   79SLPC   C12 7218   6.483   4.561   6.452  0.9003  0.1776  0.0615
   79SLPC  H12A 7219   6.448   4.471   6.500 -2.2783  2.2584  1.8959
   79SLPC  H12B 7220   6.507   4.629   6.533 -0.0589  0.8937 -0.2421
   79SLPC   C11 7221   6.609   4.527   6.375  0.0284  0.6783  0.4028
   79SLPC  H11A 7222   6.695   4.517   6.444  0.4346  1.3665  0.0110
   79SLPC  H11B 7223   6.645   4.596   6.295  1.1494 -0.4862 -0.1131
   79SLPC     P 7224   6.619   4.264   6.360  0.2682 -0.2090  0.0789
   79SLPC   O13 7225   6.531   4.176   6.278  0.6196  0.1687 -0.2078
   79SLPC   O14 7226   6.765   4.232   6.349 -0.8693 -0.2335  0.2640
   79SLPC   O12 7227   6.594   4.400   6.308  0.0842 -0.2130  0.0384
   79SLPC   O11 7228   6.576   4.285   6.506 -0.4923  0.4812 -0.1799
   79SLPC    C1 7229   6.511   4.188   6.589 -0.3482  0.5481  0.4630
   79SLPC    HA 7230   6.441   4.125   6.530 -0.2093  1.2582 -0.4679
   79SLPC    HB 7231   6.581   4.130   6.653  0.2119  1.5626  0.7834
   79SLPC    C2 7232   6.421   4.250   6.700 -0.6019 -0.0096 -0.3150
   79SLPC    HS 7233   6.353   4.325   6.654  0.4306  0.8044 -0.5326
   79SLPC   O21 7234   6.511   4.311   6.797  0.0023 -0.0714 -0.6818
   79SLPC   C21 7235   6.472   4.428   6.831 -0.2473  0.0950  0.9677
   79SLPC   O22 7236   6.394   4.502   6.777  0.0595  0.3643  0.4583
   79SLPC   C22 7237   6.562   4.467   6.951  0.3355 -1.2309 -0.2768
   79SLPC   H2R 7238   6.670   4.453   6.931  0.0375 -2.5866 -0.9646
   79SLPC   H2S 7239   6.547   4.577   6.961 -0.6788 -1.2874 -1.0440
   79SLPC    C3 7240   6.342   4.135   6.777 -0.8880 -0.2917  0.5773
   79SLPC    HX 7241   6.422   4.060   6.794  1.0734  1.8980  1.2126
   79SLPC    HY 7242   6.268   4.088   6.709 -1.4041 -0.4969  1.2651
   79SLPC   O31 7243   6.289   4.178   6.904 -0.6485 -0.4370  0.1531
   79SLPC   C31 7244   6.162   4.217   6.890  0.7989 -0.6073  0.2027
   79SLPC   O32 7245   6.098   4.231   6.786 -0.1707 -0.1959 -0.6903
   79SLPC   C32 7246   6.110   4.240   7.030  0.3166 -0.2243  0.8629
   79SLPC   H2X 7247   6.136   4.345   7.056 -1.0514  0.8380 -1.8765
   79SLPC   H2Y 7248   6.156   4.165   7.098  2.2945  0.7993  0.6940
   79SLPC   C23 7249   6.536   4.397   7.082 -0.0339 -0.6426  0.5803
   79SLPC   H3R 7250   6.617   4.429   7.151  2.0567  1.4847 -2.7476
   79SLPC   H3S 7251   6.559   4.289   7.065 -1.4213 -0.8908  0.2014
   79SLPC   C24 7252   6.401   4.431   7.151  0.0729 -0.1927  0.5336
   79SLPC   H4R 7253   6.317   4.432   7.078  1.7383  0.4123 -1.4241
   79SLPC   H4S 7254   6.408   4.530   7.201  2.3563  0.4595 -0.9992
   79SLPC   C25 7255   6.377   4.331   7.271  0.5987 -0.4427 -0.5388
   79SLPC   H5R 7256   6.474   4.319   7.324  0.8008  0.0354 -0.8064
   79SLPC   H5S 7257   6.352   4.233   7.224 -0.3511 -0.1013 -0.7493
   79SLPC   C26 7258   6.268   4.384   7.365 -0.1717  0.0427  0.4052
   79SLPC   H6R 7259   6.169   4.409   7.320  0.4056 -0.6913 -1.3250
   79SLPC   H6S 7260   6.304   4.480   7.407 -2.1783  0.5148  1.1400
   79SLPC   C27 7261   6.249   4.290   7.488 -0.6414  0.6023 -0.3652
   79SLPC   H7R 7262   6.350   4.275   7.532 -0.9976 -0.8727 -0.0431
   79SLPC   H7S 7263   6.204   4.198   7.446  0.9497 -0.2980 -0.1367
   79SLPC   C28 7264   6.137   4.346   7.578 -0.6456 -0.0793 -0.0306
   79SLPC   H8R 7265   6.045   4.350   7.516 -0.1050  0.9809 -0.7760
   79SLPC   H8S 7266   6.159   4.449   7.612 -2.8016  0.6942 -0.9149
   79SLPC   C29 7267   6.107   4.254   7.689  0.1617 -0.2476  0.3839
   79SLPC   H9R 7268   6.080   4.158   7.642  1.1633  0.2814 -1.3110
   79SLPC  C210 7269   6.111   4.267   7.825  0.3756 -0.1381  0.5516
   79SLPC  H10R 7270   6.089   4.179   7.887 -0.9258  1.3186  2.2327
   79SLPC  C211 7271   6.152   4.395   7.898  0.4525 -0.5548  0.3518
   79SLPC  H11R 7272   6.224   4.455   7.837  0.2816 -2.2938 -1.5912
   79SLPC  H11S 7273   6.204   4.364   7.991  0.2956 -2.3198 -0.1435
   79SLPC  C212 7274   6.037   4.491   7.933 -0.4952 -0.5485  0.0305
   79SLPC  H12R 7275   5.936   4.464   7.902 -0.1486 -0.6946 -0.9731
   79SLPC  C213 7276   6.055   4.614   7.991  0.6235  0.3601  0.1254
   79SLPC  H13R 7277   5.972   4.686   7.987 -0.1094 -0.5083 -0.6939
   79SLPC  C214 7278   6.183   4.676   8.037 -0.3588 -0.4327 -0.5667
   79SLPC  H14R 7279   6.186   4.776   7.987  3.1836  0.0692  0.5008
   79SLPC  H14S 7280   6.277   4.630   8.000 -0.0478 -2.0718  2.1626
   79SLPC  C215 7281   6.189   4.703   8.182 -0.2726  0.8070  0.1957
   79SLPC  H15R 7282   6.287   4.750   8.204  0.4069 -0.7681  0.6115
   79SLPC  H15S 7283   6.188   4.610   8.242  0.6316  0.0252 -0.9947
   79SLPC  C216 7284   6.079   4.801   8.234  0.4686 -0.5169  0.0411
   79SLPC  H16R 7285   5.976   4.761   8.240  0.4139 -0.2582  0.8657
   79SLPC  H16S 7286   6.087   4.891   8.169 -1.3918 -0.2206  0.1932
   79SLPC  C217 7287   6.111   4.836   8.378 -0.7652  1.1902 -0.3302
   79SLPC  H17R 7288   6.052   4.923   8.415 -0.2859  1.9418 -1.2932
   79SLPC  H17S 7289   6.212   4.880   8.387 -0.3469  0.0416  0.5943
   79SLPC  C218 7290   6.094   4.727   8.487 -0.4868 -0.0244  0.5196
   79SLPC  H18R 7291   6.163   4.640   8.481 -1.1538 -0.5023 -0.3098
   79SLPC  H18S 7292   5.986   4.699   8.488 -1.5827  3.9168  2.5398
   79SLPC  H18T 7293   6.116   4.773   8.586 -0.4776  0.3014  0.3651
   79SLPC   C33 7294   5.956   4.237   7.029 -0.4488  0.0743 -0.5790
   79SLPC   H3X 7295   5.908   4.145   6.987 -4.0675  2.2081 -1.3556
   79SLPC   H3Y 7296   5.915   4.312   6.958  0.9343  0.3490 -1.0978
   79SLPC   C34 7297   5.898   4.263   7.171  0.8853 -0.0863  0.0292
   79SLPC   H4X 7298   5.940   4.358   7.210 -0.8645  0.5904  0.2812
   79SLPC   H4Y 7299   5.930   4.189   7.248 -1.1799 -1.1892 -0.1401
   79SLPC   C35 7300   5.741   4.261   7.170  0.2433 -0.0056  0.1321
   79SLPC   H5X 7301   5.700   4.163   7.136 -1.4201  0.1437  1.5976
   79SLPC   H5Y 7302   5.704   4.335   7.096  1.5779  0.1804 -0.3505
   79SLPC   C36 7303   5.681   4.279   7.312 -0.0521 -0.0407  0.0652
   79SLPC   H6X 7304   5.571   4.265   7.303 -0.3057  2.1148 -0.6821
   79SLPC   H6Y 7305   5.689   4.382   7.353 -1.2697 -0.7077  2.0429
   79SLPC   C37 7306   5.740   4.190   7.423 -0.2544  0.1338  0.7371
   79SLPC   H7X 7307   5.842   4.230   7.441 -0.0267 -0.3823  0.6111
   79SLPC   H7Y 7308   5.750   4.083   7.395 -1.8811  0.2412 -0.3495
   79SLPC   C38 7309   5.672   4.208   7.562 -0.3894  0.0619 -0.5473
   79SLPC   H8X 7310   5.571   4.163   7.553 -0.7414  0.9408 -1.0383
   79SLPC   H8Y 7311   5.669   4.316   7.589 -0.8538  0.1087 -0.7671
   79SLPC   C39 7312   5.740   4.127   7.680  0.6261  0.0639 -1.0726
   79SLPC   H9X 7313   5.841   4.168   7.699  0.8110 -0.6125 -0.5953
   79SLPC   H9Y 7314   5.747   4.017   7.671  2.4949  0.1073 -0.2163
   79SLPC  C310 7315   5.666   4.156   7.812  1.1168  0.2786 -0.3499
   79SLPC  H10X 7316   5.560   4.132   7.787  1.8192 -1.4890 -1.7137
   79SLPC  H10Y 7317   5.682   4.262   7.842  1.8187 -0.3731  1.6864
   79SLPC  C311 7318   5.712   4.065   7.920  0.0661 -0.0834 -0.4805
   79SLPC  H11X 7319   5.823   4.065   7.927 -0.1207 -0.8183  3.7264
   79SLPC  H11Y 7320   5.699   3.958   7.891  2.8480 -0.2486 -1.3141
   79SLPC  C312 7321   5.653   4.095   8.061  0.1968 -0.4410  0.6700
   79SLPC  H12X 7322   5.562   4.031   8.065  0.6195 -1.0894  0.0980
   79SLPC  H12Y 7323   5.612   4.198   8.067 -2.6424 -1.5604  1.5171
   79SLPC  C313 7324   5.755   4.057   8.166 -0.0030  0.4060 -0.1401
   79SLPC  H13X 7325   5.845   4.122   8.166  0.8715 -0.7935 -0.7269
   79SLPC  H13Y 7326   5.779   3.950   8.153 -3.2145 -0.3164 -0.4257
   79SLPC  C314 7327   5.697   4.070   8.309  0.4001 -0.0397 -0.6973
   79SLPC  H14X 7328   5.602   4.013   8.306  0.0315  0.4619  0.9274
   79SLPC  H14Y 7329   5.673   4.177   8.330 -1.9376 -0.4006 -1.4701
   79SLPC  C315 7330   5.787   4.019   8.421  0.1692 -0.0994  0.6939
   79SLPC  H15X 7331   5.889   4.064   8.424  0.3315 -0.3126 -1.3445
   79SLPC  H15Y 7332   5.807   3.910   8.423  0.6300 -0.0214  0.5110
   79SLPC  C316 7333   5.731   4.060   8.562 -0.2098  0.5298 -0.4041
   79SLPC  H16X 7334   5.622   4.049   8.544 -0.0446  0.0376 -1.1681
   79SLPC  H16Y 7335   5.752   4.167   8.580  0.1056  0.4943 -0.5565
   79SLPC  C317 7336   5.779   3.978   8.677 -0.4849 -1.1804 -0.2433
   79SLPC  H17X 7337   5.773   3.868   8.660  3.5902 -1.2834 -1.7312
   79SLPC  H17Y 7338   5.712   4.003   8.762  0.1348  0.3852 -0.2014
   79SLPC  C318 7339   5.926   4.021   8.728 -0.1014 -0.0501 -0.5187
   79SLPC  H18X 7340   5.961   3.951   8.807  1.0772  2.0678  0.8562
   79SLPC  H18Y 7341   5.910   4.116   8.783 -0.5653 -0.3941 -0.0503
   79SLPC  H18Z 7342   5.997   4.035   8.644  3.2371  1.0870  2.3846
   80SLPC     N 7343   0.300   1.920   6.478 -0.1006  0.0926  0.5703
   80SLPC   C13 7344   0.260   2.068   6.461  0.0650 -0.3709  0.2214
   80SLPC  H13A 7345   0.337   2.118   6.404 -0.3272  2.0527  1.7637
   80SLPC  H13B 7346   0.173   2.074   6.398  0.8656  0.2008 -0.8467
   80SLPC  H13C 7347   0.253   2.113   6.559 -1.6187 -0.3873  0.1079
   80SLPC   C14 7348   0.295   1.845   6.342 -0.2031 -0.0748 -0.0877
   80SLPC  H14A 7349   0.329   1.916   6.268 -2.0228 -0.8130 -1.6642
   80SLPC  H14B 7350   0.364   1.762   6.347 -0.3180 -0.2080 -0.7012
   80SLPC  H14C 7351   0.202   1.796   6.319  0.5440 -1.2248 -0.7234
   80SLPC   C15 7352   0.196   1.855   6.572 -0.1049  0.6188  0.2623
   80SLPC  H15A 7353   0.097   1.865   6.531 -0.1290  0.1474  0.2070
   80SLPC  H15B 7354   0.223   1.751   6.580 -0.6067  0.4434 -0.3473
   80SLPC  H15C 7355   0.210   1.901   6.669 -0.4649 -0.8399  1.0117
   80SLPC   C12 7356   0.436   1.920   6.539 -0.1065 -0.6100  0.5314
   80SLPC  H12A 7357   0.428   1.974   6.632  0.9838  1.7716 -0.7280
   80SLPC  H12B 7358   0.510   1.970   6.479  0.6351 -0.5088  1.5170
   80SLPC   C11 7359   0.496   1.785   6.584  0.4614 -1.1640  0.4230
   80SLPC  H11A 7360   0.430   1.740   6.661 -1.1319 -0.3422 -0.4267
   80SLPC  H11B 7361   0.595   1.795   6.634  0.7508  1.4800 -0.5948
   80SLPC     P 7362   0.642   1.662   6.393  0.1183 -0.1695  0.0434
   80SLPC   O13 7363   0.630   1.533   6.325 -0.4656 -0.1430 -0.2910
   80SLPC   O14 7364   0.665   1.778   6.305 -0.4073  0.1141 -0.4953
   80SLPC   O12 7365   0.504   1.690   6.475  0.2747  0.6098  0.4109
   80SLPC   O11 7366   0.749   1.651   6.507  0.2061 -0.0180 -0.0278
   80SLPC    C1 7367   0.866   1.734   6.503  0.0826 -0.0702 -0.8372
   80SLPC    HA 7368   0.931   1.699   6.419  1.2905 -0.4451  0.2314
   80SLPC    HB 7369   0.843   1.841   6.483 -0.3046  0.0379  0.1877
   80SLPC    C2 7370   0.952   1.726   6.639  0.0774  0.3503  0.0185
   80SLPC    HS 7371   1.009   1.630   6.636 -0.0021  0.3242 -0.6629
   80SLPC   O21 7372   0.859   1.729   6.749  0.5155 -0.3805 -0.1318
   80SLPC   C21 7373   0.900   1.678   6.865 -0.3272 -0.0580 -0.2885
   80SLPC   O22 7374   1.006   1.616   6.879 -0.2404  0.0464  0.0557
   80SLPC   C22 7375   0.786   1.689   6.973 -0.8287  0.5193 -0.6245
   80SLPC   H2R 7376   0.757   1.796   6.969 -0.6410  0.5496 -1.4334
   80SLPC   H2S 7377   0.703   1.620   6.946 -0.7610 -0.1998  0.9760
   80SLPC    C3 7378   1.045   1.846   6.650 -0.2245 -0.3803  0.2532
   80SLPC    HX 7379   0.985   1.939   6.644  1.2207  0.6598  1.4151
   80SLPC    HY 7380   1.110   1.836   6.560 -0.7244 -5.1145  0.2861
   80SLPC   O31 7381   1.122   1.850   6.776  0.4939  0.0646 -0.1184
   80SLPC   C31 7382   1.236   1.777   6.784  1.0126  0.4832  0.0774
   80SLPC   O32 7383   1.293   1.727   6.689  0.4094 -0.5230 -0.3378
   80SLPC   C32 7384   1.283   1.771   6.929 -0.0343 -0.8932  0.0850
   80SLPC   H2X 7385   1.193   1.744   6.988 -1.3520  0.9052 -1.0500
   80SLPC   H2Y 7386   1.314   1.873   6.961 -3.3912 -0.0490  0.7672
   80SLPC   C23 7387   0.838   1.653   7.114  0.1125 -0.4887 -0.0428
   80SLPC   H3R 7388   0.884   1.552   7.105 -0.9165 -1.3056  3.1335
   80SLPC   H3S 7389   0.750   1.635   7.179  0.4843 -0.5933  0.4422
   80SLPC   C24 7390   0.919   1.752   7.185  0.7724  0.1259  0.4069
   80SLPC   H4R 7391   0.880   1.856   7.177  1.5402  0.3161 -1.1069
   80SLPC   H4S 7392   1.026   1.744   7.156 -0.1751 -1.8918 -2.8628
   80SLPC   C25 7393   0.914   1.715   7.337 -0.5814  0.3989 -0.3284
   80SLPC   H5R 7394   0.956   1.614   7.357  1.2344  0.9091 -1.4749
   80SLPC   H5S 7395   0.809   1.717   7.373 -0.2206  1.9830  0.6919
   80SLPC   C26 7396   1.002   1.803   7.423 -0.6434 -0.0032 -0.2088
   80SLPC   H6R 7397   1.005   1.906   7.382 -0.3902  0.2088  0.3394
   80SLPC   H6S 7398   1.108   1.770   7.420 -0.5647  0.3248 -1.0814
   80SLPC   C27 7399   0.957   1.810   7.564  0.6251 -0.1109  0.8569
   80SLPC   H7R 7400   0.931   1.705   7.587 -0.1948 -0.4482 -1.4343
   80SLPC   H7S 7401   0.864   1.870   7.576  1.0831  0.7343  0.1793
   80SLPC   C28 7402   1.064   1.870   7.658  0.0806  1.3021 -0.0318
   80SLPC   H8R 7403   1.158   1.820   7.627 -0.4963  0.5693 -0.6199
   80SLPC   H8S 7404   1.024   1.832   7.754 -2.6077 -0.2737 -1.6814
   80SLPC   C29 7405   1.074   2.021   7.648  0.1744 -0.5248 -0.1419
   80SLPC   H9R 7406   1.124   2.062   7.559  0.2344 -1.9074 -0.7600
   80SLPC  C210 7407   1.043   2.108   7.749  0.4727  0.2214  0.3823
   80SLPC  H10R 7408   1.079   2.212   7.743 -1.2539  0.8061  0.0188
   80SLPC  C211 7409   0.987   2.075   7.886  0.1924  0.1402  0.9429
   80SLPC  H11R 7410   0.925   1.983   7.875  1.2557 -0.3512 -1.3553
   80SLPC  H11S 7411   0.919   2.161   7.907 -1.1470 -0.5954 -0.2312
   80SLPC  C212 7412   1.098   2.056   7.985  0.0896 -0.1634  0.3505
   80SLPC  H12R 7413   1.191   2.009   7.949  0.3289  1.0079 -0.5874
   80SLPC  C213 7414   1.085   2.077   8.117 -0.2715  0.6515 -0.0391
   80SLPC  H13R 7415   1.172   2.047   8.177  1.6571 -1.6232 -3.7507
   80SLPC  C214 7416   0.962   2.123   8.187  0.3539  0.4611 -0.0036
   80SLPC  H14R 7417   0.955   2.076   8.288 -0.8229  0.3003 -0.1516
   80SLPC  H14S 7418   0.867   2.104   8.133 -0.4228 -1.3553  1.9275
   80SLPC  C215 7419   0.973   2.277   8.226  0.1699  0.3845 -0.2603
   80SLPC  H15R 7420   1.071   2.308   8.266  0.2865 -1.3893  0.9233
   80SLPC  H15S 7421   0.892   2.300   8.299 -0.6755 -0.4091 -0.9280
   80SLPC  C216 7422   0.947   2.367   8.103 -0.7313 -0.2082  0.7446
   80SLPC  H16R 7423   0.863   2.333   8.039  0.7830  0.3755 -1.6249
   80SLPC  H16S 7424   1.034   2.346   8.037 -0.5830 -0.0460  0.8898
   80SLPC  C217 7425   0.926   2.516   8.143 -0.4619 -0.1121 -0.4057
   80SLPC  H17R 7426   1.014   2.543   8.205 -0.5711 -1.6186  0.4321
   80SLPC  H17S 7427   0.841   2.522   8.214 -0.2447 -1.4468 -0.0209
   80SLPC  C218 7428   0.898   2.605   8.022 -0.0064 -0.9599  0.1602
   80SLPC  H18R 7429   0.986   2.615   7.955 -0.1187  2.6214  0.4939
   80SLPC  H18S 7430   0.888   2.709   8.058  0.6489 -1.3969  1.6443
   80SLPC  H18T 7431   0.797   2.585   7.980 -0.4038 -0.5196  0.9033
   80SLPC   C33 7432   1.395   1.668   6.958 -0.0631  0.0211 -0.1746
   80SLPC   H3X 7433   1.465   1.708   7.035 -1.4603  0.6889  0.7611
   80SLPC   H3Y 7434   1.461   1.677   6.869  1.7216  2.5208  1.3337
   80SLPC   C34 7435   1.353   1.519   6.986  0.4696  0.5801 -0.2527
   80SLPC   H4X 7436   1.448   1.462   6.973  0.3197  0.6395 -1.7062
   80SLPC   H4Y 7437   1.295   1.484   6.898  1.2702 -1.5047  0.0129
   80SLPC   C35 7438   1.290   1.479   7.120 -0.2052 -0.4386  0.2528
   80SLPC   H5X 7439   1.296   1.370   7.139 -0.1126 -0.6389 -0.8971
   80SLPC   H5Y 7440   1.179   1.488   7.112 -0.1678 -2.1809 -3.2282
   80SLPC   C36 7441   1.364   1.551   7.235 -0.2890 -0.0751 -0.4836
   80SLPC   H6X 7442   1.364   1.659   7.212  0.5644  0.3894  1.5243
   80SLPC   H6Y 7443   1.467   1.511   7.243  0.0694  0.6717 -1.3026
   80SLPC   C37 7444   1.306   1.537   7.381  0.0477  1.0308  0.3269
   80SLPC   H7X 7445   1.289   1.431   7.409  1.4952  0.6756 -0.0901
   80SLPC   H7Y 7446   1.208   1.590   7.375  0.3458  1.4612 -0.8455
   80SLPC   C38 7447   1.398   1.601   7.484 -0.6247 -0.3503 -0.7369
   80SLPC   H8X 7448   1.407   1.707   7.451 -1.3389 -0.2544 -0.6341
   80SLPC   H8Y 7449   1.498   1.554   7.480  0.7523  1.7770  4.4924
   80SLPC   C39 7450   1.324   1.584   7.619  0.5611 -0.2486  0.4194
   80SLPC   H9X 7451   1.312   1.477   7.647 -0.8859 -0.8801 -2.4266
   80SLPC   H9Y 7452   1.225   1.632   7.603  0.2836 -0.8188  0.4263
   80SLPC  C310 7453   1.389   1.659   7.729  0.2328  0.1443 -0.1760
   80SLPC  H10X 7454   1.387   1.766   7.702 -2.9289  0.0416 -0.5778
   80SLPC  H10Y 7455   1.499   1.645   7.728  0.0224 -1.7068 -0.5781
   80SLPC  C311 7456   1.330   1.627   7.863  0.3383 -0.4464  0.0058
   80SLPC  H11X 7457   1.357   1.520   7.879  0.8332 -0.2393  0.5706
   80SLPC  H11Y 7458   1.220   1.616   7.856  0.2088 -0.1752  1.5558
   80SLPC  C312 7459   1.378   1.727   7.972 -0.1333  0.2605 -0.1830
   80SLPC  H12X 7460   1.337   1.823   7.934 -1.1261 -1.1504 -2.7981
   80SLPC  H12Y 7461   1.489   1.720   7.976 -0.0557 -0.0334 -2.4789
   80SLPC  C313 7462   1.324   1.678   8.107  0.1344  0.3468 -0.9870
   80SLPC  H13X 7463   1.296   1.571   8.096 -0.5240  0.2477  1.2716
   80SLPC  H13Y 7464   1.226   1.726   8.129 -0.5197 -0.9246 -1.0450
   80SLPC  C314 7465   1.420   1.704   8.223 -0.1312 -0.4289  0.9395
   80SLPC  H14X 7466   1.438   1.811   8.249 -0.7715  0.6258 -2.7223
   80SLPC  H14Y 7467   1.515   1.654   8.196  0.0190  0.9717 -1.3014
   80SLPC  C315 7468   1.373   1.636   8.358 -0.6844  0.1026  0.7678
   80SLPC  H15X 7469   1.366   1.525   8.349 -2.3888  0.2601  0.0517
   80SLPC  H15Y 7470   1.270   1.677   8.366 -1.9314 -2.8375  0.7286
   80SLPC  C316 7471   1.466   1.655   8.475 -0.1766  0.1114 -0.7863
   80SLPC  H16X 7472   1.500   1.761   8.479  1.0822 -0.2813 -0.9139
   80SLPC  H16Y 7473   1.564   1.609   8.451 -1.7554 -2.8151 -1.8419
   80SLPC  C317 7474   1.406   1.624   8.609  0.3415  0.3963 -0.4897
   80SLPC  H17X 7475   1.386   1.515   8.597 -1.5122  0.7507 -0.8095
   80SLPC  H17Y 7476   1.307   1.675   8.618  0.4071  0.3026  0.9123
   80SLPC  C318 7477   1.503   1.658   8.719 -0.6438 -0.2062  0.5184
   80SLPC  H18X 7478   1.484   1.757   8.765 -0.4683  0.4598 -0.8183
   80SLPC  H18Y 7479   1.610   1.637   8.696 -0.2136  0.6009  1.7443
   80SLPC  H18Z 7480   1.483   1.586   8.801  0.7153 -1.9079 -0.6125
   81SAPS     N 7481   2.548   4.161  11.172  0.9024  0.1524 -0.4653
   81SAPS   HN1 7482   2.625   4.161  11.242 -1.4905  2.1401  2.3254
   81SAPS   HN2 7483   2.582   4.185  11.077  0.4326  3.4799  0.1211
   81SAPS   HN3 7484   2.479   4.238  11.186 -0.5358 -0.7181 -2.6425
   81SAPS   C12 7485   2.468   4.038  11.182 -0.4985  0.3379  0.0480
   81SAPS  H12A 7486   2.532   3.954  11.158  1.1617  1.6891 -0.2972
   81SAPS   C13 7487   2.385   4.026  11.311  0.0845  0.7124 -0.9777
   81SAPS  O13A 7488   2.388   4.117  11.400 -0.4362  0.5694 -0.0596
   81SAPS  O13B 7489   2.339   3.916  11.332 -0.0606 -0.1766 -0.0306
   81SAPS   C11 7490   2.361   4.040  11.055  0.3999 -0.4969 -0.0129
   81SAPS  H11A 7491   2.314   4.140  11.063 -0.0333 -0.6454 -0.6593
   81SAPS  H11B 7492   2.285   3.959  11.057 -2.5988  2.2616  1.8437
   81SAPS     P 7493   2.515   3.911  10.887  0.1951 -0.5183  0.1528
   81SAPS   O13 7494   2.659   3.917  10.931 -0.2625 -0.2714 -0.2129
   81SAPS   O14 7495   2.436   3.798  10.943  0.5192 -0.5523  0.3006
   81SAPS   O12 7496   2.440   4.044  10.933 -0.7438  0.0680  0.0562
   81SAPS   O11 7497   2.499   3.905  10.730  0.0206 -0.7299  0.6374
   81SAPS    C1 7498   2.580   3.984  10.643 -0.2542  0.0977 -0.4312
   81SAPS    HA 7499   2.569   4.093  10.662  1.8714  0.3976 -0.7587
   81SAPS    HB 7500   2.690   3.968  10.653 -0.7209 -2.7353  0.6295
   81SAPS    C2 7501   2.546   3.959  10.499 -0.7138 -0.7209  0.6043
   81SAPS    HS 7502   2.436   3.973  10.488 -0.3937  2.3085  0.8270
   81SAPS   O21 7503   2.584   3.833  10.468 -0.2780 -0.2364 -0.0414
   81SAPS   C21 7504   2.505   3.766  10.387 -0.5070  0.0684 -1.3484
   81SAPS   O22 7505   2.400   3.802  10.342 -0.2179 -0.7600 -0.9216
   81SAPS   C22 7506   2.564   3.622  10.369 -0.1119  0.2752 -0.1350
   81SAPS   H2R 7507   2.549   3.568  10.465  1.4628 -0.4917 -0.3017
   81SAPS   H2S 7508   2.489   3.578  10.300 -1.2863  1.1838  0.5519
   81SAPS    C3 7509   2.624   4.055  10.408  0.2054 -0.1451 -0.0787
   81SAPS    HX 7510   2.733   4.039  10.424  0.3528  0.6143 -0.2964
   81SAPS    HY 7511   2.616   4.157  10.450  1.0515  0.1589 -0.6617
   81SAPS   O31 7512   2.591   4.046  10.269  0.2908  0.0579 -0.3039
   81SAPS   C31 7513   2.468   4.095  10.242  0.3929  0.2914  0.4231
   81SAPS   O32 7514   2.397   4.159  10.318  0.8803 -0.1653 -0.0710
   81SAPS   C32 7515   2.448   4.086  10.089 -0.7414  0.1979 -0.7827
   81SAPS   H2X 7516   2.486   3.990  10.046  0.1479  0.5962 -0.9122
   81SAPS   H2Y 7517   2.501   4.178  10.055  0.1563 -0.1519 -0.3397
   81SAPS   C23 7518   2.707   3.611  10.312 -0.7626  0.4349 -0.5616
   81SAPS   H3R 7519   2.749   3.514  10.345  2.0292  2.3971  1.9103
   81SAPS   H3S 7520   2.769   3.676  10.377  1.0975 -1.4984 -0.3641
   81SAPS   C24 7521   2.731   3.639  10.166 -0.3720  0.3354  0.0244
   81SAPS   H4R 7522   2.675   3.582  10.088  1.1118  0.2859 -1.0327
   81SAPS   H4S 7523   2.836   3.607  10.152 -0.7643 -1.3800  0.8724
   81SAPS   C25 7524   2.722   3.782  10.116 -0.4939  0.3408  0.0697
   81SAPS   H5R 7525   2.710   3.860  10.193  1.8641 -1.5571  2.4398
   81SAPS   C26 7526   2.730   3.814   9.977 -0.1714 -0.2763 -0.3904
   81SAPS   H6R 7527   2.735   3.920   9.949  2.0224 -0.0247  0.9313
   81SAPS   C27 7528   2.745   3.719   9.858  0.2364 -1.2054  0.3409
   81SAPS   H7R 7529   2.654   3.661   9.833  0.0319 -1.1973  1.0697
   81SAPS   H7S 7530   2.823   3.642   9.875 -0.2645 -1.9498 -0.6775
   81SAPS   C28 7531   2.794   3.786   9.727  0.3135 -0.1263 -0.1553
   81SAPS   H8R 7532   2.873   3.862   9.737 -0.0273  0.5601 -2.4430
   81SAPS   C29 7533   2.774   3.747   9.600 -0.1927  0.4245 -0.1001
   81SAPS   H9R 7534   2.829   3.799   9.520  1.4290  2.5424  2.3260
   81SAPS  C210 7535   2.694   3.631   9.539 -0.3487  0.0298 -0.3879
   81SAPS  H10R 7536   2.738   3.532   9.564  0.0510  0.5248  0.9306
   81SAPS  H10S 7537   2.721   3.631   9.432  1.5972  1.1992  0.0869
   81SAPS  C211 7538   2.550   3.639   9.560 -0.3453 -0.4466 -0.3988
   81SAPS  H11R 7539   2.505   3.558   9.620 -1.2999 -0.5327 -1.2124
   81SAPS  C212 7540   2.463   3.719   9.502 -0.2585 -0.3783  0.5806
   81SAPS  H12R 7541   2.358   3.718   9.533 -0.3549  0.2515  0.2882
   81SAPS  C213 7542   2.490   3.828   9.397 -0.2611  0.0580 -1.1341
   81SAPS  H13R 7543   2.409   3.819   9.321  0.1133 -1.8389 -1.3421
   81SAPS  H13S 7544   2.588   3.818   9.346  1.0105  0.8913  1.0972
   81SAPS  C214 7545   2.490   3.961   9.460 -0.0123  0.2238  0.1704
   81SAPS  H14R 7546   2.537   3.968   9.560  1.2339  0.4568 -0.4256
   81SAPS  C215 7547   2.447   4.083   9.411  0.3381 -0.2875  1.0519
   81SAPS  H15R 7548   2.449   4.172   9.476 -1.6115  0.1897  0.4963
   81SAPS  C216 7549   2.384   4.105   9.276  0.4258 -0.2353 -0.0999
   81SAPS  H16R 7550   2.279   4.140   9.277  0.3172 -0.5822  2.0791
   81SAPS  H16S 7551   2.386   4.020   9.204  2.0839  1.6828 -2.3864
   81SAPS  C217 7552   2.470   4.214   9.197 -0.2267 -0.1290  0.1091
   81SAPS  H17R 7553   2.576   4.193   9.174 -0.2648 -1.0836  0.7872
   81SAPS  H17S 7554   2.475   4.306   9.260 -0.9589 -0.0196  0.0190
   81SAPS  C218 7555   2.400   4.245   9.065 -0.2775 -0.1688 -0.5603
   81SAPS  H18R 7556   2.297   4.281   9.089  0.1852  0.6359  0.2401
   81SAPS  H18S 7557   2.396   4.156   8.999 -0.6954 -0.9652  0.5310
   81SAPS  C219 7558   2.473   4.351   8.984  0.6865  0.4335 -0.9158
   81SAPS  H19R 7559   2.575   4.313   8.963  0.7281 -0.0960  0.2469
   81SAPS  H19S 7560   2.501   4.432   9.055  2.1746 -1.2410  0.4510
   81SAPS  C220 7561   2.400   4.400   8.862 -0.0893 -0.2545  0.0311
   81SAPS  H20R 7562   2.405   4.318   8.788  1.2516 -0.9671  0.8873
   81SAPS  H20S 7563   2.449   4.488   8.816 -0.9561  0.3428  0.2271
   81SAPS  H20T 7564   2.294   4.428   8.881  0.0324 -0.8085  1.5898
   81SAPS   C33 7565   2.298   4.088  10.056  0.0332  0.3384 -0.2363
   81SAPS   H3X 7566   2.242   4.173  10.101  1.0045  0.9186 -0.1113
   81SAPS   H3Y 7567   2.264   3.992  10.101  2.2573  0.0011  0.8020
   81SAPS   C34 7568   2.252   4.095   9.912  0.2757 -0.0738 -0.1576
   81SAPS   H4X 7569   2.314   4.023   9.854  2.5955 -2.1850  4.6524
   81SAPS   H4Y 7570   2.270   4.196   9.871  0.0209  0.8717  1.9769
   81SAPS   C35 7571   2.108   4.062   9.905  0.3215 -0.5437 -0.6763
   81SAPS   H5X 7572   2.060   4.139   9.969  0.1344 -0.3732 -1.0145
   81SAPS   H5Y 7573   2.081   3.961   9.942  1.1396 -1.0075 -1.3154
   81SAPS   C36 7574   2.050   4.079   9.764  0.0961  0.1654  0.5416
   81SAPS   H6X 7575   2.047   4.181   9.720 -0.3452 -0.4026 -0.7971
   81SAPS   H6Y 7576   1.943   4.052   9.779 -0.0730 -1.0261 -2.3163
   81SAPS   C37 7577   2.120   3.985   9.655  0.2915 -0.0299  0.2428
   81SAPS   H7X 7578   2.146   3.891   9.708  0.1977 -0.1942 -0.0030
   81SAPS   H7Y 7579   2.218   4.027   9.622  0.8705 -1.0931  0.5643
   81SAPS   C38 7580   2.028   3.962   9.537  0.1507  0.5326 -0.1909
   81SAPS   H8X 7581   1.967   4.052   9.517 -1.5109  0.2797  3.2852
   81SAPS   H8Y 7582   1.951   3.891   9.574 -1.4959  2.5896  0.4495
   81SAPS   C39 7583   2.105   3.919   9.418 -0.1328  0.4428 -0.8165
   81SAPS   H9X 7584   2.181   3.841   9.441 -1.5232 -0.9781 -0.9115
   81SAPS   H9Y 7585   2.172   4.003   9.390  0.4487 -0.0756 -0.9765
   81SAPS  C310 7586   2.018   3.876   9.306  0.5959  0.4082  1.5142
   81SAPS  H10X 7587   1.951   3.958   9.276  1.5927  1.7556  2.9211
   81SAPS  H10Y 7588   1.948   3.791   9.322 -0.3735  0.9636  0.2708
   81SAPS  C311 7589   2.103   3.837   9.183 -0.3215  0.2482  0.1797
   81SAPS  H11X 7590   2.153   3.740   9.204  0.9312  1.0919  1.1446
   81SAPS  H11Y 7591   2.187   3.906   9.165 -0.8795  1.2064  1.2106
   81SAPS  C312 7592   2.041   3.838   9.037  0.1235  0.1417  0.8278
   81SAPS  H12X 7593   2.008   3.942   9.014 -2.2123 -0.4515  1.4119
   81SAPS  H12Y 7594   1.955   3.768   9.033  1.0440 -0.9008 -1.1482
   81SAPS  C313 7595   2.146   3.787   8.939 -0.3316  0.4023 -0.6292
   81SAPS  H13X 7596   2.129   3.677   8.935 -0.7931  0.5111 -2.0019
   81SAPS  H13Y 7597   2.252   3.805   8.967 -0.0953  0.2685 -1.4104
   81SAPS  C314 7598   2.115   3.847   8.800  0.0931 -0.2411 -0.1075
   81SAPS  H14X 7599   2.132   3.956   8.810  1.3773 -0.1661 -2.6697
   81SAPS  H14Y 7600   2.014   3.818   8.764 -0.3696 -0.1135  1.0611
   81SAPS  C315 7601   2.202   3.789   8.689 -0.2031  0.0388 -0.2350
   81SAPS  H15X 7602   2.197   3.678   8.682  0.7363 -0.1217  1.4905
   81SAPS  H15Y 7603   2.306   3.801   8.724 -0.3191  0.5095 -0.0475
   81SAPS  C316 7604   2.186   3.863   8.551  0.5752  0.3881 -0.1340
   81SAPS  H16X 7605   2.247   3.803   8.480  0.0326  1.3465 -1.4458
   81SAPS  H16Y 7606   2.214   3.970   8.563  1.8952  0.3023 -2.1675
   81SAPS  C317 7607   2.038   3.872   8.499  0.6458 -0.2224  0.2616
   81SAPS  H17X 7608   1.968   3.917   8.572  0.2727  0.1433 -0.3160
   81SAPS  H17Y 7609   2.014   3.764   8.500  1.2448 -0.3675 -0.3739
   81SAPS  C318 7610   2.036   3.932   8.358  0.7182 -0.1762 -0.3768
   81SAPS  H18X 7611   2.105   3.880   8.288  0.1822  2.3540 -2.8594
   81SAPS  H18Y 7612   2.068   4.038   8.354  0.1243 -0.0142 -0.7907
   81SAPS  H18Z 7613   1.934   3.922   8.314  0.7277  0.5043 -0.5612
   82SAPS     N 7614   0.910   3.005  11.082  0.5161  0.8597 -0.2321
   82SAPS   HN1 7615   0.994   2.973  11.135  0.7619  1.2793 -0.3645
   82SAPS   HN2 7616   0.827   3.009  11.144 -0.9791 -0.4008 -2.1094
   82SAPS   HN3 7617   0.898   2.943  11.000 -0.2523  2.4479 -1.3483
   82SAPS   C12 7618   0.941   3.151  11.054  0.5382 -0.3434  0.1639
   82SAPS  H12A 7619   0.875   3.193  10.979 -1.5605 -0.0815  2.0887
   82SAPS   C13 7620   0.921   3.247  11.179 -0.2480  0.2656 -0.2095
   82SAPS  O13A 7621   0.873   3.199  11.283 -0.5128  0.2740  0.0628
   82SAPS  O13B 7622   0.929   3.367  11.152 -0.4931 -0.2916  0.0749
   82SAPS   C11 7623   1.089   3.161  11.005  0.0748 -0.6060  0.2278
   82SAPS  H11A 7624   1.157   3.110  11.077  0.5948 -1.3061 -0.7517
   82SAPS  H11B 7625   1.113   3.269  10.997 -1.3819 -0.2236  0.9658
   82SAPS     P 7626   1.072   3.157  10.747 -0.2261  0.0240  0.1018
   82SAPS   O13 7627   0.942   3.216  10.752  0.8878  0.0927 -0.0369
   82SAPS   O14 7628   1.187   3.248  10.724  0.2549  0.1738 -0.2757
   82SAPS   O12 7629   1.108   3.095  10.879  0.2294  0.3124  0.3023
   82SAPS   O11 7630   1.077   3.026  10.659  0.3817  0.9141  0.8951
   82SAPS    C1 7631   1.013   3.029  10.529  0.4359  0.7872  0.1999
   82SAPS    HA 7632   0.980   2.927  10.499 -1.6980  1.1739  1.1241
   82SAPS    HB 7633   0.922   3.093  10.530 -1.5505 -1.9472 -0.2187
   82SAPS    C2 7634   1.124   3.080  10.427 -0.1871  0.1639 -0.3290
   82SAPS    HS 7635   1.170   3.172  10.469 -2.1126  0.7799  0.4844
   82SAPS   O21 7636   1.076   3.116  10.292 -0.0392  0.1292  1.1108
   82SAPS   C21 7637   1.014   3.228  10.280 -0.1514  0.0604 -0.4178
   82SAPS   O22 7638   0.985   3.297  10.375  0.3099 -0.0128 -0.7661
   82SAPS   C22 7639   0.978   3.269  10.140 -0.0834 -0.0587  0.0096
   82SAPS   H2R 7640   1.054   3.209  10.086  1.3431 -1.5137  3.4920
   82SAPS   H2S 7641   0.876   3.234  10.116 -0.4707  1.9606 -1.3966
   82SAPS    C3 7642   1.243   2.977  10.410 -0.6291  0.1791  0.2015
   82SAPS    HX 7643   1.214   2.880  10.364 -1.2417 -0.3152  1.5972
   82SAPS    HY 7644   1.272   2.948  10.514  0.0749 -0.2577 -0.1130
   82SAPS   O31 7645   1.354   3.026  10.320 -0.3345 -0.8550 -0.4857
   82SAPS   C31 7646   1.444   3.100  10.396 -0.6928  0.1632  0.9069
   82SAPS   O32 7647   1.433   3.120  10.516  0.1367  0.5830 -0.3466
   82SAPS   C32 7648   1.557   3.150  10.300  0.1306 -0.4264  0.4997
   82SAPS   H2X 7649   1.580   3.084  10.213 -0.6185 -0.6934  0.4991
   82SAPS   H2Y 7650   1.657   3.147  10.349  0.8725 -0.6533 -0.9789
   82SAPS   C23 7651   0.991   3.423  10.113 -0.2154 -0.1789  0.2847
   82SAPS   H3R 7652   1.069   3.475  10.172  1.6217  0.4089 -2.5540
   82SAPS   H3S 7653   0.890   3.467  10.125  0.0330  0.3384  0.4713
   82SAPS   C24 7654   1.035   3.445   9.966  0.0909  0.6001  0.1078
   82SAPS   H4R 7655   1.139   3.411   9.944 -0.1414  0.4079 -0.7199
   82SAPS   H4S 7656   1.036   3.553   9.939 -2.2081  0.2224 -1.6142
   82SAPS   C25 7657   0.929   3.381   9.879  1.4343  0.1283 -0.9222
   82SAPS   H5R 7658   0.828   3.412   9.906  2.2346 -0.0570  2.6309
   82SAPS   C26 7659   0.942   3.295   9.781  0.6267 -0.7035 -0.0612
   82SAPS   H6R 7660   0.854   3.276   9.718  1.9843  0.3916 -2.3574
   82SAPS   C27 7661   1.074   3.253   9.729 -0.1522 -0.0200 -0.0916
   82SAPS   H7R 7662   1.104   3.165   9.789  0.3871  0.3427  0.1683
   82SAPS   H7S 7663   1.155   3.326   9.747 -0.7225  0.8400 -0.9437
   82SAPS   C28 7664   1.071   3.209   9.582 -0.2930 -0.1986  0.3821
   82SAPS   H8R 7665   1.034   3.113   9.543 -0.2171 -0.2480  0.4331
   82SAPS   C29 7666   1.120   3.287   9.489 -0.6029 -1.1723  0.7252
   82SAPS   H9R 7667   1.127   3.255   9.383  1.7765  1.8001 -0.0790
   82SAPS  C210 7668   1.168   3.437   9.512 -0.8504  0.3493 -0.4141
   82SAPS  H10R 7669   1.277   3.416   9.518 -1.3835 -2.6260 -0.2297
   82SAPS  H10S 7670   1.130   3.472   9.610 -1.0430 -1.3932  0.1488
   82SAPS  C211 7671   1.140   3.540   9.403  0.0110 -0.2947 -0.4913
   82SAPS  H11R 7672   1.224   3.561   9.335  1.1854  2.3463  1.6712
   82SAPS  C212 7673   1.029   3.614   9.381  0.0706  0.3242  0.1422
   82SAPS  H12R 7674   1.026   3.679   9.292 -2.2409  1.5660  1.0748
   82SAPS  C213 7675   0.907   3.616   9.468 -0.9367  0.3017 -0.4906
   82SAPS  H13R 7676   0.899   3.717   9.512 -1.1969  1.0376 -2.1786
   82SAPS  H13S 7677   0.910   3.536   9.545  1.0996  1.1559  0.3419
   82SAPS  C214 7678   0.792   3.581   9.375  1.0286  0.5159  0.3304
   82SAPS  H14R 7679   0.795   3.483   9.324 -0.3118  0.6410 -0.0126
   82SAPS  C215 7680   0.687   3.662   9.352 -0.8640  0.1906 -0.7879
   82SAPS  H15R 7681   0.594   3.638   9.297 -0.9996  2.7886 -1.7713
   82SAPS  C216 7682   0.666   3.800   9.416 -0.0103  0.4189 -0.0641
   82SAPS  H16R 7683   0.622   3.864   9.336 -1.0839  0.5209  0.5914
   82SAPS  H16S 7684   0.765   3.848   9.428 -0.1092  0.3412  1.0915
   82SAPS  C217 7685   0.583   3.800   9.545  0.7455 -0.8322 -0.3902
   82SAPS  H17R 7686   0.493   3.738   9.527 -0.4105  0.9526 -0.9012
   82SAPS  H17S 7687   0.551   3.904   9.568  0.3465 -0.8488 -0.8558
   82SAPS  C218 7688   0.656   3.747   9.669 -0.2962 -0.3432  0.3301
   82SAPS  H18R 7689   0.760   3.781   9.685 -0.3883 -0.4768  1.2297
   82SAPS  H18S 7690   0.656   3.636   9.658  1.4544 -0.4101  0.9048
   82SAPS  C219 7691   0.585   3.774   9.805 -0.2115 -0.0697 -0.4315
   82SAPS  H19R 7692   0.612   3.881   9.814  1.1576 -0.2678 -1.9937
   82SAPS  H19S 7693   0.632   3.721   9.890  0.6333 -0.1438 -0.9463
   82SAPS  C220 7694   0.436   3.747   9.817  0.2738  0.4225 -0.3278
   82SAPS  H20R 7695   0.427   3.636   9.810  1.5506  0.1989  1.3187
   82SAPS  H20S 7696   0.380   3.795   9.734  1.8600  0.8781 -1.1385
   82SAPS  H20T 7697   0.392   3.783   9.913 -0.8001 -0.7165 -0.3768
   82SAPS   C33 7698   1.535   3.290  10.252  0.2411 -0.0132 -0.2205
   82SAPS   H3X 7699   1.621   3.300  10.181  0.1961 -1.5528 -0.4920
   82SAPS   H3Y 7700   1.546   3.359  10.339  1.0538  0.6355 -0.8175
   82SAPS   C34 7701   1.405   3.324  10.166 -0.0492 -0.8801 -0.8950
   82SAPS   H4X 7702   1.322   3.326  10.240  0.2332  1.9853 -0.6139
   82SAPS   H4Y 7703   1.380   3.254  10.083  0.4656 -0.3586 -1.4946
   82SAPS   C35 7704   1.389   3.467  10.104 -0.6262  0.6943  0.0470
   82SAPS   H5X 7705   1.430   3.546  10.170  1.1557 -0.8563  0.8281
   82SAPS   H5Y 7706   1.280   3.488  10.095 -0.5736  0.7406 -0.5438
   82SAPS   C36 7707   1.464   3.489   9.966  0.6760  0.5596  0.1080
   82SAPS   H6X 7708   1.434   3.407   9.898  2.7342 -0.4913  0.4108
   82SAPS   H6Y 7709   1.572   3.476   9.991  0.2085  0.4100  2.1209
   82SAPS   C37 7710   1.442   3.628   9.904 -0.7772  0.1564  0.2994
   82SAPS   H7X 7711   1.459   3.716   9.969  1.7271  0.0551 -0.1582
   82SAPS   H7Y 7712   1.335   3.635   9.875 -0.2133  1.1508 -1.6788
   82SAPS   C38 7713   1.531   3.651   9.778  0.5907 -0.5078 -0.8203
   82SAPS   H8X 7714   1.471   3.589   9.708 -1.0491 -0.7649  0.7600
   82SAPS   H8Y 7715   1.626   3.596   9.795  0.7515 -0.2485 -0.8743
   82SAPS   C39 7716   1.548   3.791   9.739 -0.4108 -0.2569  0.4612
   82SAPS   H9X 7717   1.597   3.842   9.825 -0.9094  2.0833 -0.6104
   82SAPS   H9Y 7718   1.448   3.838   9.728  0.8071  2.0824 -0.8855
   82SAPS  C310 7719   1.625   3.809   9.606  0.0179 -0.2412 -0.0711
   82SAPS  H10X 7720   1.725   3.769   9.632 -0.4802 -1.5051 -0.0761
   82SAPS  H10Y 7721   1.652   3.915   9.588 -0.0510 -0.2838 -0.4175
   82SAPS  C311 7722   1.554   3.755   9.482 -0.2243  0.2189  0.6758
   82SAPS  H11X 7723   1.469   3.825   9.463  0.6826  1.0515 -0.3674
   82SAPS  H11Y 7724   1.513   3.654   9.505  0.1186 -0.4744 -1.6380
   82SAPS  C312 7725   1.648   3.752   9.362  0.0343  0.2136  0.5073
   82SAPS  H12X 7726   1.725   3.673   9.377  1.4611  1.5794  0.5745
   82SAPS  H12Y 7727   1.708   3.845   9.349  0.7916 -0.2218  0.8256
   82SAPS  C313 7728   1.574   3.724   9.235  0.4566 -0.2978 -0.5619
   82SAPS  H13X 7729   1.500   3.805   9.213  0.9832 -0.1106 -1.6761
   82SAPS  H13Y 7730   1.525   3.625   9.246 -2.1920  0.6461 -3.3998
   82SAPS  C314 7731   1.681   3.710   9.123 -0.4590  0.2303 -0.4578
   82SAPS  H14X 7732   1.735   3.614   9.134  0.6134  0.3327 -4.0760
   82SAPS  H14Y 7733   1.767   3.779   9.110  0.1730 -0.0951  1.7440
   82SAPS  C315 7734   1.625   3.712   8.983  0.2920  0.0390  0.3617
   82SAPS  H15X 7735   1.576   3.811   8.973 -0.6254 -0.2264  2.0585
   82SAPS  H15Y 7736   1.539   3.643   8.971 -2.1507  3.2768 -1.7757
   82SAPS  C316 7737   1.726   3.690   8.870 -0.7807 -0.2223 -0.2191
   82SAPS  H16X 7738   1.799   3.609   8.890  0.4483  0.9938  0.2670
   82SAPS  H16Y 7739   1.795   3.776   8.851 -0.5282 -0.3964 -0.0885
   82SAPS  C317 7740   1.664   3.661   8.734 -0.1256 -0.5380  0.5204
   82SAPS  H17X 7741   1.612   3.758   8.720 -2.3843 -1.9105 -0.9412
   82SAPS  H17Y 7742   1.586   3.582   8.741 -0.0653 -0.4154  3.1883
   82SAPS  C318 7743   1.769   3.640   8.633 -0.6842 -0.6013  0.1896
   82SAPS  H18X 7744   1.834   3.730   8.624 -0.0944 -1.1397 -1.1508
   82SAPS  H18Y 7745   1.727   3.634   8.530 -2.5522  2.0130  0.7297
   82SAPS  H18Z 7746   1.837   3.555   8.655 -0.1692 -0.2404  0.0145
   83SAPS     N 7747   2.988   5.233  11.122 -1.3858 -0.3073 -0.4084
   83SAPS   HN1 7748   2.897   5.220  11.170 -0.5484 -1.5323  0.8710
   83SAPS   HN2 7749   3.058   5.291  11.171  1.5121 -1.3533 -3.1022
   83SAPS   HN3 7750   2.957   5.283  11.036 -2.1042  0.5528  0.3453
   83SAPS   C12 7751   3.032   5.092  11.095 -0.2662 -0.2935 -0.4692
   83SAPS  H12A 7752   3.126   5.098  11.042 -0.3726 -1.5186 -0.8263
   83SAPS   C13 7753   3.042   4.993  11.215 -0.2447  0.6174 -0.0006
   83SAPS  O13A 7754   3.008   5.030  11.332  0.0627  0.6201 -0.5201
   83SAPS  O13B 7755   3.079   4.877  11.186 -0.1670  0.6557  0.2682
   83SAPS   C11 7756   2.914   5.051  11.001  0.1854  0.8402 -0.2232
   83SAPS  H11A 7757   2.921   4.946  10.965 -4.2100  0.0428  0.8918
   83SAPS  H11B 7758   2.933   5.114  10.912 -0.5978 -0.9074 -1.6778
   83SAPS     P 7759   2.664   4.963  11.060 -0.0371  0.2981 -0.1798
   83SAPS   O13 7760   2.717   4.838  11.125 -0.4269 -0.2023 -0.0702
   83SAPS   O14 7761   2.546   5.035  11.120 -0.0688 -0.1978 -0.4695
   83SAPS   O12 7762   2.781   5.066  11.056  0.0574 -0.0112 -0.0872
   83SAPS   O11 7763   2.637   4.923  10.905  0.4289  0.4998 -0.5596
   83SAPS    C1 7764   2.559   5.006  10.824 -0.3787 -0.6845  0.7451
   83SAPS    HA 7765   2.462   4.954  10.807 -0.8840  0.8557 -1.2847
   83SAPS    HB 7766   2.536   5.106  10.866 -0.3031 -0.4987  0.3471
   83SAPS    C2 7767   2.632   5.029  10.689 -0.0499 -0.3214 -0.3465
   83SAPS    HS 7768   2.569   5.100  10.632  0.1941  0.0854 -0.1029
   83SAPS   O21 7769   2.668   4.912  10.619 -0.5460  0.7623  0.1885
   83SAPS   C21 7770   2.579   4.880  10.526  0.8037 -0.5781 -0.1164
   83SAPS   O22 7771   2.485   4.948  10.484 -0.3379  0.4806 -0.0788
   83SAPS   C22 7772   2.626   4.751  10.457  0.7606 -0.1132 -0.2157
   83SAPS   H2R 7773   2.734   4.765  10.434  1.2423  0.4068  2.2885
   83SAPS   H2S 7774   2.618   4.675  10.537  0.3683  0.3444  0.1777
   83SAPS    C3 7775   2.756   5.109  10.710 -0.0828 -0.2573  1.1456
   83SAPS    HX 7776   2.821   5.036  10.762 -2.2461 -1.7279  1.8832
   83SAPS    HY 7777   2.734   5.193  10.778 -3.7391 -1.7459  1.9146
   83SAPS   O31 7778   2.805   5.166  10.584  0.1723  0.2926  0.0597
   83SAPS   C31 7779   2.936   5.160  10.568 -1.1658  0.3644 -0.4021
   83SAPS   O32 7780   3.016   5.119  10.649 -0.1469 -0.2577 -0.1174
   83SAPS   C32 7781   2.972   5.227  10.433 -0.0065 -0.1878  0.1932
   83SAPS   H2X 7782   3.082   5.231  10.424  0.1464 -0.6698  1.7503
   83SAPS   H2Y 7783   2.940   5.333  10.428  2.8122  0.7572  1.1773
   83SAPS   C23 7784   2.534   4.701  10.341 -0.2000  1.0819  0.4176
   83SAPS   H3R 7785   2.435   4.667  10.380 -1.1360  2.2165 -0.9500
   83SAPS   H3S 7786   2.573   4.598  10.324  0.8945  1.7356 -1.1420
   83SAPS   C24 7787   2.535   4.780  10.211 -0.1101  0.0736  0.7190
   83SAPS   H4R 7788   2.494   4.880  10.234 -2.3744 -0.6288 -0.0982
   83SAPS   H4S 7789   2.455   4.750  10.140 -0.3609  1.8994  0.2058
   83SAPS   C25 7790   2.676   4.779  10.154  0.1375  0.7277 -0.2902
   83SAPS   H5R 7791   2.755   4.826  10.214  2.2436  0.2635 -2.6500
   83SAPS   C26 7792   2.714   4.716  10.040  0.3336  0.1066 -0.7196
   83SAPS   H6R 7793   2.820   4.725  10.014  0.7646  0.7383  1.1872
   83SAPS   C27 7794   2.638   4.643   9.931 -0.0413  0.1650  0.2820
   83SAPS   H7R 7795   2.558   4.575   9.966  1.8396 -2.4386 -0.2459
   83SAPS   H7S 7796   2.706   4.565   9.890 -0.6805  0.7440 -1.9305
   83SAPS   C28 7797   2.597   4.740   9.818 -0.3461  0.5929 -0.1428
   83SAPS   H8R 7798   2.517   4.812   9.838 -1.3209 -0.1731 -1.2581
   83SAPS   C29 7799   2.641   4.743   9.692  0.4401 -0.3462 -0.0397
   83SAPS   H9R 7800   2.621   4.820   9.616 -2.7173 -1.8499 -0.8195
   83SAPS  C210 7801   2.745   4.653   9.634  0.4420  0.6703  0.5266
   83SAPS  H10R 7802   2.808   4.610   9.714  1.1579 -0.7755 -0.7756
   83SAPS  H10S 7803   2.816   4.708   9.568 -1.9024  1.2728 -1.5792
   83SAPS  C211 7804   2.676   4.531   9.561  0.4972  0.3231  0.4908
   83SAPS  H11R 7805   2.604   4.479   9.625  0.5064 -1.4070 -0.8909
   83SAPS  C212 7806   2.683   4.497   9.430  0.0877 -0.1267  0.5556
   83SAPS  H12R 7807   2.615   4.417   9.397  0.4430 -0.2797  0.1921
   83SAPS  C213 7808   2.771   4.565   9.324  0.4910 -0.1265 -0.9307
   83SAPS  H13R 7809   2.842   4.490   9.283 -0.6096 -1.5684 -0.2722
   83SAPS  H13S 7810   2.837   4.641   9.370  0.0216 -0.9885  1.2487
   83SAPS  C214 7811   2.688   4.616   9.211  0.3308  0.0825 -0.5240
   83SAPS  H14R 7812   2.581   4.631   9.231  0.0644  0.1432 -1.9739
   83SAPS  C215 7813   2.722   4.653   9.084  0.6158  0.1747 -0.4430
   83SAPS  H15R 7814   2.645   4.688   9.014 -1.4146  0.0626  1.6899
   83SAPS  C216 7815   2.859   4.643   9.020  0.4595  1.0641 -0.4655
   83SAPS  H16R 7816   2.860   4.546   8.966  0.3633  1.7521 -1.7015
   83SAPS  H16S 7817   2.931   4.644   9.104 -1.4375  0.8533  1.2095
   83SAPS  C217 7818   2.867   4.752   8.912 -0.9218 -0.2034 -1.0334
   83SAPS  H17R 7819   2.869   4.854   8.955 -0.0870 -0.0686 -1.3907
   83SAPS  H17S 7820   2.788   4.750   8.835 -0.8767 -0.7987 -1.0683
   83SAPS  C218 7821   2.994   4.732   8.827 -0.3203 -0.2403 -0.3534
   83SAPS  H18R 7822   2.969   4.682   8.731 -0.5784 -0.1068 -0.3548
   83SAPS  H18S 7823   3.070   4.662   8.871  1.1203  1.0019 -0.8132
   83SAPS  C219 7824   3.071   4.858   8.800  0.2373  0.9193  0.1585
   83SAPS  H19R 7825   3.078   4.912   8.896 -1.1716  0.4411  0.5312
   83SAPS  H19S 7826   3.001   4.913   8.733  0.6142  1.6820  0.3877
   83SAPS  C220 7827   3.205   4.824   8.735 -0.1651 -0.2088 -0.3638
   83SAPS  H20R 7828   3.263   4.758   8.802  0.6640  1.1807  0.3238
   83SAPS  H20S 7829   3.260   4.921   8.727  1.0203 -0.7535  0.9069
   83SAPS  H20T 7830   3.204   4.776   8.635  0.5529  0.2656 -0.6012
   83SAPS   C33 7831   2.908   5.149  10.311  0.3846  0.4726 -0.4925
   83SAPS   H3X 7832   2.800   5.176  10.313  0.7089  1.7396  2.8933
   83SAPS   H3Y 7833   2.924   5.041  10.329  1.5010  0.3949 -1.8225
   83SAPS   C34 7834   2.975   5.192  10.171  0.2178  0.1957  0.5844
   83SAPS   H4X 7835   3.086   5.186  10.166  0.1068  0.4324 -3.4948
   83SAPS   H4Y 7836   2.952   5.301  10.169 -2.2115 -0.2982  0.8912
   83SAPS   C35 7837   2.933   5.106  10.053  0.3069 -0.0073  0.0344
   83SAPS   H5X 7838   2.837   5.152  10.022  0.2123  0.2752  0.7412
   83SAPS   H5Y 7839   2.927   5.000  10.088 -3.6626  0.0165 -0.3200
   83SAPS   C36 7840   3.031   5.100   9.930 -0.4921 -0.1217 -0.0660
   83SAPS   H6X 7841   3.122   5.038   9.946 -0.7647  0.0473  2.2825
   83SAPS   H6Y 7842   3.078   5.200   9.924 -1.1816  0.2082  0.0309
   83SAPS   C37 7843   2.965   5.053   9.804 -0.1290  0.3137 -0.2882
   83SAPS   H7X 7844   2.885   5.129   9.790  0.0512  0.3224 -1.3042
   83SAPS   H7Y 7845   2.939   4.946   9.812  1.3773 -0.1039 -0.8051
   83SAPS   C38 7846   3.068   5.062   9.689 -0.0779  0.0467 -0.2499
   83SAPS   H8X 7847   3.161   5.001   9.693 -0.4368 -0.5226 -0.5797
   83SAPS   H8Y 7848   3.103   5.167   9.682  0.3065 -0.0792 -0.2337
   83SAPS   C39 7849   3.016   5.016   9.552  0.4778  0.3465 -0.4334
   83SAPS   H9X 7850   2.942   5.087   9.511  0.2881 -0.4550 -1.5090
   83SAPS   H9Y 7851   2.962   4.919   9.562 -0.4717  0.6890 -2.1204
   83SAPS  C310 7852   3.129   4.995   9.446 -0.3668 -0.1652  0.0632
   83SAPS  H10X 7853   3.197   4.917   9.486 -1.4391 -0.0576  2.1267
   83SAPS  H10Y 7854   3.183   5.090   9.422 -1.4850  0.4689  0.0089
   83SAPS  C311 7855   3.080   4.933   9.321  0.0012 -0.3560  0.5149
   83SAPS  H11X 7856   3.014   5.010   9.276  0.2171  0.8179  2.1641
   83SAPS  H11Y 7857   3.013   4.846   9.338  0.9497 -1.1395  0.2681
   83SAPS  C312 7858   3.200   4.913   9.228  0.0254 -0.4131 -0.0827
   83SAPS  H12X 7859   3.155   4.886   9.130 -2.1095 -1.4539  1.1421
   83SAPS  H12Y 7860   3.245   4.816   9.255  0.1550 -0.0142  1.2064
   83SAPS  C313 7861   3.298   5.029   9.203  0.0554  0.5477 -0.0765
   83SAPS  H13X 7862   3.372   5.036   9.286 -0.4619 -0.0214  0.4436
   83SAPS  H13Y 7863   3.259   5.133   9.201  1.4947  1.1103  0.2323
   83SAPS  C314 7864   3.379   5.007   9.080 -0.0784 -0.5189  0.3208
   83SAPS  H14X 7865   3.307   4.989   8.997  0.6419  0.1431 -0.4551
   83SAPS  H14Y 7866   3.430   4.910   9.097  2.2474  0.4626 -0.8861
   83SAPS  C315 7867   3.458   5.129   9.043 -0.7701  0.1517  0.2712
   83SAPS  H15X 7868   3.484   5.180   9.137 -1.5420  0.0226  0.5623
   83SAPS  H15Y 7869   3.401   5.192   8.971  0.3871 -0.7949 -1.5411
   83SAPS  C316 7870   3.574   5.092   8.961 -0.2018  0.2492 -0.6130
   83SAPS  H16X 7871   3.553   5.014   8.885  1.7611  1.2421 -2.2302
   83SAPS  H16Y 7872   3.654   5.049   9.025 -0.0732  0.0134 -0.9278
   83SAPS  C317 7873   3.637   5.215   8.894 -0.3432  0.1068  0.5143
   83SAPS  H17X 7874   3.659   5.300   8.961 -0.0074  1.2250 -0.9889
   83SAPS  H17Y 7875   3.563   5.252   8.819 -0.4618 -2.7422 -0.8411
   83SAPS  C318 7876   3.762   5.173   8.815 -0.0878 -0.2441 -0.4594
   83SAPS  H18X 7877   3.813   5.256   8.763 -0.5669  0.2553 -0.1330
   83SAPS  H18Y 7878   3.735   5.090   8.746 -1.8312 -0.2440  0.1900
   83SAPS  H18Z 7879   3.836   5.134   8.889  1.5956  0.5269 -1.7090
   84SAPS     N 7880   4.414   4.246  11.442  0.1141  0.1032 -0.4270
   84SAPS   HN1 7881   4.486   4.321  11.438 -1.4062  1.4834 -3.6756
   84SAPS   HN2 7882   4.321   4.277  11.408  0.7490  2.8191  0.1609
   84SAPS   HN3 7883   4.393   4.224  11.542 -0.5273 -1.1818 -0.8475
   84SAPS   C12 7884   4.473   4.128  11.382  0.4779 -0.3634 -0.5671
   84SAPS  H12A 7885   4.578   4.134  11.403 -0.1760  0.7190  2.7397
   84SAPS   C13 7886   4.395   4.000  11.432 -0.4181 -0.2086  0.1982
   84SAPS  O13A 7887   4.330   3.997  11.537  0.2871  0.4826 -0.2139
   84SAPS  O13B 7888   4.433   3.891  11.382 -0.1904 -0.2062 -0.8038
   84SAPS   C11 7889   4.457   4.141  11.225 -0.4567  0.0784 -0.3997
   84SAPS  H11A 7890   4.352   4.165  11.201 -1.6432 -0.8865  3.4680
   84SAPS  H11B 7891   4.460   4.043  11.173 -1.6366 -0.4811  0.5837
   84SAPS     P 7892   4.530   4.306  11.033 -0.2685  0.2345 -0.2226
   84SAPS   O13 7893   4.387   4.336  11.020  0.0213 -0.1538  0.4138
   84SAPS   O14 7894   4.630   4.414  11.020  0.3628 -0.4427  0.8649
   84SAPS   O12 7895   4.552   4.232  11.173 -0.0750 -0.4660  0.1208
   84SAPS   O11 7896   4.563   4.197  10.929  0.2400 -0.1158 -0.1698
   84SAPS    C1 7897   4.685   4.109  10.939  0.4286  0.4768  0.0754
   84SAPS    HA 7898   4.776   4.172  10.929  2.8421 -2.6336  1.4705
   84SAPS    HB 7899   4.686   4.045  11.030 -1.0945  1.2058  0.6291
   84SAPS    C2 7900   4.701   4.020  10.814 -1.1147 -0.1881 -0.0915
   84SAPS    HS 7901   4.807   3.989  10.813 -0.1690  2.9135 -0.0230
   84SAPS   O21 7902   4.664   4.077  10.693 -0.1421 -0.6660 -0.0152
   84SAPS   C21 7903   4.752   4.167  10.648 -0.1394  0.2283  0.2391
   84SAPS   O22 7904   4.862   4.195  10.697  0.2269  0.0613  0.2491
   84SAPS   C22 7905   4.700   4.223  10.520 -0.1150 -0.1636 -0.3029
   84SAPS   H2R 7906   4.636   4.148  10.470 -0.5656  0.6381 -0.9295
   84SAPS   H2S 7907   4.636   4.309  10.550 -0.6367 -0.2036 -1.2967
   84SAPS    C3 7908   4.612   3.891  10.826  0.4357  0.1759  0.3271
   84SAPS    HX 7909   4.509   3.926  10.846  1.0757  1.7178  1.0005
   84SAPS    HY 7910   4.641   3.839  10.920  1.7279  1.1657  0.4855
   84SAPS   O31 7911   4.625   3.786  10.723 -0.1002 -0.1978  0.1183
   84SAPS   C31 7912   4.523   3.785  10.633 -0.3516  0.7220 -0.1804
   84SAPS   O32 7913   4.433   3.863  10.625  0.0345  0.6926  0.6540
   84SAPS   C32 7914   4.546   3.683  10.521 -0.1267  0.7159 -0.3257
   84SAPS   H2X 7915   4.507   3.583  10.548 -1.2460  0.5805 -2.3594
   84SAPS   H2Y 7916   4.654   3.659  10.505 -1.2305 -3.8367 -1.6402
   84SAPS   C23 7917   4.813   4.263  10.426  0.4134 -0.1549 -0.2041
   84SAPS   H3R 7918   4.871   4.171  10.406  2.8205  1.2375  0.1833
   84SAPS   H3S 7919   4.879   4.332  10.483  1.4406 -1.6564  0.4278
   84SAPS   C24 7920   4.759   4.310  10.289 -0.4643 -0.1780 -0.8299
   84SAPS   H4R 7921   4.845   4.352  10.233 -0.1104  0.5455  0.2474
   84SAPS   H4S 7922   4.693   4.399  10.298 -0.4845 -0.1161 -1.5400
   84SAPS   C25 7923   4.704   4.208  10.201  0.4260 -0.6768  0.2095
   84SAPS   H5R 7924   4.754   4.111  10.212  3.5138  0.7363 -0.8602
   84SAPS   C26 7925   4.622   4.233  10.099  0.3518 -0.2741  0.6808
   84SAPS   H6R 7926   4.591   4.152  10.031  3.9985 -0.8372 -0.4304
   84SAPS   C27 7927   4.570   4.373  10.056 -0.6628 -0.2802  0.1388
   84SAPS   H7R 7928   4.655   4.437  10.022 -0.1666  1.3913  4.2247
   84SAPS   H7S 7929   4.531   4.436  10.139  2.0851  0.9657  0.5510
   84SAPS   C28 7930   4.464   4.365   9.952  0.1833 -0.1264 -0.3264
   84SAPS   H8R 7931   4.360   4.366   9.990  1.0822 -1.1216  2.2477
   84SAPS   C29 7932   4.489   4.320   9.825 -0.0399  0.5274  0.1115
   84SAPS   H9R 7933   4.399   4.306   9.762 -1.6803  2.6132  1.9110
   84SAPS  C210 7934   4.615   4.282   9.754  0.1931 -0.5255  0.0460
   84SAPS  H10R 7935   4.613   4.201   9.678  2.1798 -0.2529 -0.3212
   84SAPS  H10S 7936   4.690   4.247   9.829 -0.2902 -0.6735  0.4650
   84SAPS  C211 7937   4.683   4.403   9.692  0.0411 -0.1310 -0.0360
   84SAPS  H11R 7938   4.734   4.459   9.772  0.7976  0.1060 -0.6731
   84SAPS  C212 7939   4.703   4.442   9.565 -0.1794  0.4160  0.2102
   84SAPS  H12R 7940   4.754   4.537   9.541 -0.0715  0.3352  0.1181
   84SAPS  C213 7941   4.663   4.366   9.442  0.0601  0.2636  0.6299
   84SAPS  H13R 7942   4.614   4.432   9.368 -0.7552  1.0579  1.8703
   84SAPS  H13S 7943   4.577   4.301   9.469 -1.9528  1.8863 -1.6667
   84SAPS  C214 7944   4.783   4.290   9.382  0.2973  0.4257  0.2063
   84SAPS  H14R 7945   4.785   4.200   9.445 -0.3079  0.6459  0.5558
   84SAPS  C215 7946   4.867   4.326   9.285  0.4765  0.0717 -0.0623
   84SAPS  H15R 7947   4.945   4.257   9.249  1.0800 -0.1192  1.6013
   84SAPS  C216 7948   4.862   4.456   9.208  0.0903 -0.1787  0.0809
   84SAPS  H16R 7949   4.959   4.490   9.167 -0.1294  2.3700  1.5580
   84SAPS  H16S 7950   4.842   4.539   9.280 -1.4947  0.5908 -1.2285
   84SAPS  C217 7951   4.748   4.468   9.101  0.5239 -0.0730  0.0801
   84SAPS  H17R 7952   4.655   4.440   9.154  1.2039 -1.0225  0.7820
   84SAPS  H17S 7953   4.777   4.390   9.027 -0.0614 -0.3209  0.1152
   84SAPS  C218 7954   4.748   4.606   9.031  0.2002 -0.5094  0.7290
   84SAPS  H18R 7955   4.750   4.678   9.116 -0.1576 -0.3777  0.6237
   84SAPS  H18S 7956   4.646   4.618   8.990  0.5009 -2.0538 -0.4848
   84SAPS  C219 7957   4.862   4.627   8.936 -0.4618  0.2639  0.1829
   84SAPS  H19R 7958   4.965   4.626   8.977 -0.7903  0.5043  1.0351
   84SAPS  H19S 7959   4.847   4.730   8.897  1.1215  0.3574 -0.2187
   84SAPS  C220 7960   4.859   4.533   8.816  0.0317 -0.1871 -0.3372
   84SAPS  H20R 7961   4.937   4.579   8.751 -0.5159  0.8292 -0.2860
   84SAPS  H20S 7962   4.757   4.525   8.773 -1.4497  2.4686  2.5152
   84SAPS  H20T 7963   4.900   4.431   8.832  0.8121  0.1081 -0.4431
   84SAPS   C33 7964   4.498   3.739  10.385  0.5539 -1.1840 -0.8613
   84SAPS   H3X 7965   4.574   3.807  10.341  0.4036 -0.2072  0.3308
   84SAPS   H3Y 7966   4.404   3.797  10.374  0.0916 -2.0019 -1.2756
   84SAPS   C34 7967   4.476   3.620  10.290 -0.0967 -0.4832 -0.4780
   84SAPS   H4X 7968   4.376   3.574  10.308  0.5898 -2.0464 -0.5812
   84SAPS   H4Y 7969   4.549   3.542  10.319  0.3097  0.0980  0.0478
   84SAPS   C35 7970   4.478   3.656  10.139  0.1207 -0.0811 -0.2250
   84SAPS   H5X 7971   4.502   3.565  10.080  0.7977 -0.0044 -0.0715
   84SAPS   H5Y 7972   4.554   3.734  10.118 -0.9835  1.0046 -0.1698
   84SAPS   C36 7973   4.337   3.707  10.096 -0.1396 -0.3508 -0.1409
   84SAPS   H6X 7974   4.323   3.809  10.137  0.6927 -0.5964  0.7651
   84SAPS   H6Y 7975   4.260   3.633  10.125 -1.2229 -0.2721 -2.6403
   84SAPS   C37 7976   4.320   3.722   9.941  0.2066  0.1890  0.8431
   84SAPS   H7X 7977   4.214   3.711   9.910 -0.5541 -1.6142  3.9629
   84SAPS   H7Y 7978   4.360   3.629   9.896 -1.2623  0.5309 -1.2746
   84SAPS   C38 7979   4.380   3.847   9.875  0.2755 -0.0774  0.2826
   84SAPS   H8X 7980   4.490   3.845   9.864  0.3068 -0.7600  0.7003
   84SAPS   H8Y 7981   4.371   3.935   9.942 -1.4754  0.0293 -0.0534
   84SAPS   C39 7982   4.315   3.870   9.736 -0.1429  0.5198  0.8669
   84SAPS   H9X 7983   4.204   3.873   9.741 -0.1650 -0.1703  0.7957
   84SAPS   H9Y 7984   4.345   3.784   9.672  1.0100 -0.4736  2.7009
   84SAPS  C310 7985   4.376   3.988   9.667 -0.3300 -0.2021  0.3172
   84SAPS  H10X 7986   4.486   3.968   9.662 -0.4422 -1.3027  2.0902
   84SAPS  H10Y 7987   4.363   4.080   9.728  1.8741 -0.0715  0.6381
   84SAPS  C311 7988   4.312   4.011   9.528 -0.5133 -0.9557 -0.5687
   84SAPS  H11X 7989   4.202   4.030   9.527 -0.6814 -1.7234  1.5603
   84SAPS  H11Y 7990   4.330   3.914   9.479  1.6355 -0.6091 -0.4934
   84SAPS  C312 7991   4.389   4.121   9.452  0.5083 -0.8534 -0.0840
   84SAPS  H12X 7992   4.499   4.109   9.444  0.4862 -2.4647  1.7252
   84SAPS  H12Y 7993   4.369   4.220   9.498 -1.2771 -0.8436 -0.8175
   84SAPS  C313 7994   4.336   4.119   9.313 -0.4054  0.1803 -0.0208
   84SAPS  H13X 7995   4.226   4.133   9.321 -0.0678  3.4303 -0.1757
   84SAPS  H13Y 7996   4.361   4.027   9.257  0.3976 -0.1314  0.8410
   84SAPS  C314 7997   4.389   4.235   9.224 -0.3092 -0.0155 -0.0879
   84SAPS  H14X 7998   4.470   4.197   9.158 -2.2738 -0.9570 -2.0273
   84SAPS  H14Y 7999   4.430   4.306   9.298 -1.1690 -0.9228  1.2818
   84SAPS  C315 8000   4.290   4.299   9.128  0.2280  1.0309 -0.2985
   84SAPS  H15X 8001   4.207   4.338   9.191 -1.5378 -1.1544 -1.2019
   84SAPS  H15Y 8002   4.256   4.210   9.072  0.9962 -0.3412  1.3528
   84SAPS  C316 8003   4.343   4.413   9.038  0.9257 -0.0771  0.0198
   84SAPS  H16X 8004   4.430   4.453   9.093  0.3032  3.5889 -1.5095
   84SAPS  H16Y 8005   4.273   4.496   9.015  0.1735 -0.8767 -0.6383
   84SAPS  C317 8006   4.407   4.364   8.909 -0.1555  0.2325  0.0305
   84SAPS  H17X 8007   4.336   4.298   8.854  0.1777 -0.4659  0.4353
   84SAPS  H17Y 8008   4.491   4.293   8.923  0.4523  0.6164 -1.5492
   84SAPS  C318 8009   4.459   4.461   8.807  0.4494  1.0503  0.2613
   84SAPS  H18X 8010   4.504   4.398   8.727 -0.6310  0.6728 -0.0608
   84SAPS  H18Y 8011   4.538   4.536   8.823 -1.2825  2.5668  1.9054
   84SAPS  H18Z 8012   4.375   4.524   8.771  0.6993  1.6864  0.7885
   85SAPS     N 8013   1.314   6.251  11.208  0.6357  0.7540  0.0196
   85SAPS   HN1 8014   1.286   6.351  11.218 -0.1449  0.3083  2.5840
   85SAPS   HN2 8015   1.412   6.217  11.214  0.9458  1.6763  0.2546
   85SAPS   HN3 8016   1.276   6.231  11.113  0.5974 -0.2196  0.2391
   85SAPS   C12 8017   1.240   6.179  11.310  0.1535 -0.3680  0.3882
   85SAPS  H12A 8018   1.268   6.075  11.312 -3.2560 -1.3578  0.2849
   85SAPS   C13 8019   1.273   6.246  11.449  0.4911  0.0156 -0.1163
   85SAPS  O13A 8020   1.362   6.330  11.473  0.1717  0.0755 -0.4412
   85SAPS  O13B 8021   1.211   6.186  11.547 -0.5999 -0.2397 -0.1071
   85SAPS   C11 8022   1.085   6.205  11.290  0.4045  0.5862  0.2386
   85SAPS  H11A 8023   1.082   6.314  11.309  0.4563  0.9546 -1.7634
   85SAPS  H11B 8024   1.034   6.150  11.373  0.9909 -0.7835 -0.2914
   85SAPS     P 8025   0.968   6.039  11.115  0.0228  0.2091  0.3013
   85SAPS   O13 8026   1.036   5.938  11.194  0.2689  0.2646  0.7039
   85SAPS   O14 8027   0.820   6.044  11.127  0.0893 -0.1125  0.0689
   85SAPS   O12 8028   1.035   6.180  11.161 -0.2880  0.2053 -0.1385
   85SAPS   O11 8029   1.010   6.021  10.959 -0.6073  0.2174 -0.2779
   85SAPS    C1 8030   1.052   6.147  10.892 -0.5510  0.3105 -0.1370
   85SAPS    HA 8031   0.989   6.228  10.935  1.7426  0.5485  2.9106
   85SAPS    HB 8032   1.159   6.160  10.918 -0.3239 -2.3905  0.4109
   85SAPS    C2 8033   1.052   6.144  10.737  0.4186  0.3426 -0.7864
   85SAPS    HS 8034   1.069   6.245  10.695  1.5372 -0.2937 -1.9004
   85SAPS   O21 8035   0.929   6.083  10.690  0.1634  0.0106 -0.5301
   85SAPS   C21 8036   0.821   6.156  10.698  0.0046 -0.6389  0.4880
   85SAPS   O22 8037   0.815   6.268  10.739  0.3564 -0.7563 -0.1790
   85SAPS   C22 8038   0.708   6.083  10.637  0.2196 -1.1220  0.1396
   85SAPS   H2R 8039   0.701   5.996  10.707 -2.8302 -1.4081 -0.4835
   85SAPS   H2S 8040   0.614   6.136  10.659  0.1577 -1.4957  0.8187
   85SAPS    C3 8041   1.166   6.061  10.687  0.3553 -0.0662  0.3326
   85SAPS    HX 8042   1.171   5.971  10.751  0.0938  1.1511  2.0811
   85SAPS    HY 8043   1.255   6.120  10.718  1.9044 -3.0608  1.7758
   85SAPS   O31 8044   1.163   6.038  10.548  0.2650 -0.0459  0.5874
   85SAPS   C31 8045   1.274   5.968  10.512 -0.7339  0.4452  0.4265
   85SAPS   O32 8046   1.360   5.927  10.588  0.4212 -0.7131  0.2664
   85SAPS   C32 8047   1.284   5.951  10.361 -0.7611  0.6411 -0.6862
   85SAPS   H2X 8048   1.339   6.043  10.334  1.3522 -0.5363 -0.5383
   85SAPS   H2Y 8049   1.178   5.942  10.327 -0.8067  0.4121 -0.4909
   85SAPS   C23 8050   0.741   6.037  10.490 -0.2420  0.3038 -0.2379
   85SAPS   H3R 8051   0.668   5.954  10.474 -1.1079  1.3143 -1.5905
   85SAPS   H3S 8052   0.842   5.992  10.495  0.0565  0.9778 -0.1904
   85SAPS   C24 8053   0.728   6.142  10.379  0.2015  0.2431 -1.2628
   85SAPS   H4R 8054   0.741   6.095  10.279  0.0589  0.1627 -1.2435
   85SAPS   H4S 8055   0.811   6.216  10.378  1.3294 -0.9351  0.8808
   85SAPS   C25 8056   0.592   6.207  10.390  0.2925 -0.2500  0.2665
   85SAPS   H5R 8057   0.570   6.249  10.490 -1.7632 -1.1546  0.2180
   85SAPS   C26 8058   0.500   6.227  10.293  0.0808  0.5887 -0.1189
   85SAPS   H6R 8059   0.406   6.280  10.310 -1.0082 -0.9602 -1.1965
   85SAPS   C27 8060   0.512   6.181  10.158 -0.7040  0.4316  0.1028
   85SAPS   H7R 8061   0.613   6.195  10.114 -0.0418  1.9535  2.0025
   85SAPS   H7S 8062   0.447   6.235  10.085 -1.3055 -1.4237 -0.7659
   85SAPS   C28 8063   0.475   6.043  10.131  0.2552 -0.0716  0.0732
   85SAPS   H8R 8064   0.495   5.973  10.214 -0.0358 -1.8893 -1.3457
   85SAPS   C29 8065   0.428   5.998  10.016  0.1919 -0.3194 -0.4218
   85SAPS   H9R 8066   0.399   5.892  10.011 -1.5883 -0.0459  2.6264
   85SAPS  C210 8067   0.388   6.079   9.891  0.0953  0.1853 -0.2868
   85SAPS  H10R 8068   0.449   6.171   9.876 -0.4247  0.3377 -1.5790
   85SAPS  H10S 8069   0.282   6.110   9.904  0.1266  0.2067 -0.0847
   85SAPS  C211 8070   0.409   6.004   9.768  1.0002  0.4150 -0.9220
   85SAPS  H11R 8071   0.383   5.897   9.770  2.3128  0.1032  2.7546
   85SAPS  C212 8072   0.460   6.056   9.654 -0.7666  0.0796 -0.6141
   85SAPS  H12R 8073   0.454   6.001   9.560 -4.6489 -0.4537 -0.1157
   85SAPS  C213 8074   0.497   6.201   9.620  0.8174 -0.0511 -0.5734
   85SAPS  H13R 8075   0.583   6.211   9.551  2.1116 -0.3756  0.9466
   85SAPS  H13S 8076   0.532   6.255   9.711  0.4470  0.0919 -0.5159
   85SAPS  C214 8077   0.372   6.263   9.568  0.1137 -0.8613 -0.0763
   85SAPS  H14R 8078   0.298   6.288   9.645  0.2570 -1.7404  0.3513
   85SAPS  C215 8079   0.351   6.304   9.437  0.1205  0.0682  0.2192
   85SAPS  H15R 8080   0.257   6.352   9.408 -0.0375 -0.1297  0.4114
   85SAPS  C216 8081   0.461   6.288   9.330  0.3208  0.3133 -0.1427
   85SAPS  H16R 8082   0.475   6.181   9.307 -4.6612  0.0057 -2.4134
   85SAPS  H16S 8083   0.558   6.333   9.361 -0.7440  1.6896  1.3224
   85SAPS  C217 8084   0.427   6.350   9.198  0.5746  0.2113 -0.4196
   85SAPS  H17R 8085   0.320   6.333   9.176  0.2048  1.8326  0.0114
   85SAPS  H17S 8086   0.489   6.303   9.119  0.3732  1.0102 -1.0552
   85SAPS  C218 8087   0.427   6.505   9.199  0.3128 -0.5428 -0.2256
   85SAPS  H18R 8088   0.519   6.543   9.248  0.0338  1.2444 -1.0554
   85SAPS  H18S 8089   0.332   6.542   9.243  0.5206 -1.3075  0.9079
   85SAPS  C219 8090   0.437   6.567   9.064  0.7769 -0.3468 -0.2277
   85SAPS  H19R 8091   0.532   6.535   9.017  1.1305  0.4662 -0.0740
   85SAPS  H19S 8092   0.447   6.677   9.072 -0.2672  0.0156 -3.1629
   85SAPS  C220 8093   0.316   6.529   8.971 -0.4595 -0.7726  0.0990
   85SAPS  H20R 8094   0.320   6.424   8.935  0.6424 -0.8076  0.3239
   85SAPS  H20S 8095   0.316   6.578   8.871 -0.9158  0.9290  0.9134
   85SAPS  H20T 8096   0.221   6.564   9.018 -0.8493 -0.8719 -0.5996
   85SAPS   C33 8097   1.373   5.840  10.305  0.1843 -0.1541 -0.2604
   85SAPS   H3X 8098   1.317   5.747  10.278  1.9059 -0.9734 -1.0723
   85SAPS   H3Y 8099   1.446   5.807  10.382 -2.3136 -2.1009  1.3837
   85SAPS   C34 8100   1.449   5.889  10.168 -0.5410  0.6416 -0.2705
   85SAPS   H4X 8101   1.518   5.806  10.144 -0.1313  1.0520 -0.5257
   85SAPS   H4Y 8102   1.499   5.988  10.172 -0.0662  0.4063 -0.4118
   85SAPS   C35 8103   1.343   5.887  10.057 -0.0692  0.0233 -0.3771
   85SAPS   H5X 8104   1.257   5.955  10.074 -1.5189 -1.1734 -2.6082
   85SAPS   H5Y 8105   1.317   5.781  10.034  1.1422 -0.4437  0.3252
   85SAPS   C36 8106   1.410   5.939   9.929 -0.4358  0.0166 -0.0045
   85SAPS   H6X 8107   1.521   5.945   9.929 -0.5785  3.9669  0.5870
   85SAPS   H6Y 8108   1.369   6.041   9.915  0.7071  0.3248 -1.2060
   85SAPS   C37 8109   1.371   5.851   9.808 -0.3983  0.5760  0.4867
   85SAPS   H7X 8110   1.261   5.855   9.792 -0.2372 -0.2380 -0.9892
   85SAPS   H7Y 8111   1.399   5.744   9.822  1.8322  0.9516 -0.8170
   85SAPS   C38 8112   1.447   5.892   9.682 -0.7420  0.0397  0.3800
   85SAPS   H8X 8113   1.556   5.893   9.702 -0.7269 -0.4582  0.3290
   85SAPS   H8Y 8114   1.417   5.997   9.662 -1.2663 -0.6947 -3.0096
   85SAPS   C39 8115   1.405   5.794   9.576 -0.0417 -0.2590  0.3047
   85SAPS   H9X 8116   1.295   5.783   9.589  0.1573 -0.6573  1.8456
   85SAPS   H9Y 8117   1.456   5.696   9.588  0.7769  0.0142 -0.9326
   85SAPS  C310 8118   1.425   5.849   9.431 -0.1248  0.0600  0.1108
   85SAPS  H10X 8119   1.533   5.859   9.406 -0.2638 -1.1840 -1.0316
   85SAPS  H10Y 8120   1.370   5.946   9.424 -0.5438 -0.1005  1.1085
   85SAPS  C311 8121   1.352   5.759   9.329  0.6184  0.0516 -0.2865
   85SAPS  H11X 8122   1.264   5.714   9.381  0.3818  2.0459  1.1134
   85SAPS  H11Y 8123   1.423   5.681   9.296 -1.0955 -2.0886  0.9239
   85SAPS  C312 8124   1.287   5.830   9.214 -0.0795 -0.3106 -0.1886
   85SAPS  H12X 8125   1.368   5.886   9.164 -0.2792 -1.0059 -1.3221
   85SAPS  H12Y 8126   1.208   5.904   9.240  0.5855  0.3789 -0.1173
   85SAPS  C313 8127   1.226   5.719   9.119 -0.1732 -1.2815 -0.2845
   85SAPS  H13X 8128   1.143   5.669   9.173  0.3960  0.3012  2.1140
   85SAPS  H13Y 8129   1.299   5.639   9.096 -0.3175 -1.2545 -0.8653
   85SAPS  C314 8130   1.189   5.762   8.972  0.2528  0.0065  0.3499
   85SAPS  H14X 8131   1.112   5.841   8.966  1.2147  0.9241 -0.1861
   85SAPS  H14Y 8132   1.144   5.669   8.931 -0.1768 -0.2512  1.3967
   85SAPS  C315 8133   1.313   5.807   8.888 -0.4207  0.4943  0.6206
   85SAPS  H15X 8134   1.390   5.727   8.887 -1.0237 -0.0942  1.6588
   85SAPS  H15Y 8135   1.360   5.896   8.936  0.2505  1.6473 -2.0323
   85SAPS  C316 8136   1.279   5.829   8.741 -0.1598  0.3494  0.3507
   85SAPS  H16X 8137   1.223   5.742   8.701  1.4492 -0.9009  0.7797
   85SAPS  H16Y 8138   1.372   5.834   8.681 -0.7654 -0.5399 -0.6571
   85SAPS  C317 8139   1.179   5.952   8.709 -0.2179  0.4958  0.2506
   85SAPS  H17X 8140   1.083   5.914   8.751  0.7782 -0.5676  1.5907
   85SAPS  H17Y 8141   1.166   5.951   8.599  0.9575  0.2268  0.1050
   85SAPS  C318 8142   1.228   6.090   8.766  0.0135  0.3180  0.5967
   85SAPS  H18X 8143   1.337   6.089   8.748 -0.2105 -0.6159 -0.7745
   85SAPS  H18Y 8144   1.211   6.106   8.875  0.7478  0.3074  0.7129
   85SAPS  H18Z 8145   1.187   6.177   8.710  2.6606  1.3890  0.2589
   86SAPS     N 8146   3.637   5.964  10.940 -0.1758  0.1819  0.8736
   86SAPS   HN1 8147   3.635   6.004  11.036  1.4908 -1.7072  1.7227
   86SAPS   HN2 8148   3.725   5.919  10.906 -1.6459 -0.5340 -2.1544
   86SAPS   HN3 8149   3.628   6.051  10.883  0.3251 -0.1513  0.2829
   86SAPS   C12 8150   3.521   5.867  10.915  0.1705 -0.1856 -0.3192
   86SAPS  H12A 8151   3.546   5.835  10.815  0.0240 -0.8288 -0.1516
   86SAPS   C13 8152   3.521   5.732  10.991 -0.0996 -0.5422 -0.1533
   86SAPS  O13A 8153   3.608   5.709  11.079  0.1941  0.7998  0.2776
   86SAPS  O13B 8154   3.438   5.648  10.955 -0.1139 -0.0457 -0.0453
   86SAPS   C11 8155   3.393   5.945  10.936  0.2019  0.0714 -0.1344
   86SAPS  H11A 8156   3.374   5.958  11.045 -0.2378 -0.1569 -0.1807
   86SAPS  H11B 8157   3.309   5.884  10.896  0.6775 -0.1138 -0.8582
   86SAPS     P 8158   3.311   6.198  10.895  0.1289  0.0615  0.3897
   86SAPS   O13 8159   3.234   6.184  11.023 -0.4311 -0.1338  0.0944
   86SAPS   O14 8160   3.399   6.318  10.882  0.4852  0.1746 -0.0079
   86SAPS   O12 8161   3.386   6.072  10.866 -0.4685  0.2797  0.0049
   86SAPS   O11 8162   3.200   6.194  10.777  0.2027  0.0006  0.5274
   86SAPS    C1 8163   3.237   6.161  10.640  1.0917  0.0089  0.4111
   86SAPS    HA 8164   3.264   6.261  10.599  0.7019 -0.6146 -1.4194
   86SAPS    HB 8165   3.327   6.096  10.641  0.2587 -1.1541  0.5451
   86SAPS    C2 8166   3.132   6.099  10.551  0.8679  1.1452  0.0665
   86SAPS    HS 8167   3.084   6.007  10.591 -0.0260  0.4517 -2.4963
   86SAPS   O21 8168   3.176   6.073  10.412 -0.3531 -0.0165 -0.7856
   86SAPS   C21 8169   3.255   5.980  10.392 -0.1587  0.1022  0.6245
   86SAPS   O22 8170   3.301   5.901  10.475 -0.4750 -0.2733 -0.0604
   86SAPS   C22 8171   3.278   5.983  10.237  0.0814 -0.6896  0.2412
   86SAPS   H2R 8172   3.183   5.971  10.181 -0.1407 -0.6281  0.6008
   86SAPS   H2S 8173   3.319   6.082  10.206 -0.6303 -0.1910  0.8808
   86SAPS    C3 8174   3.007   6.196  10.544 -0.3655  0.0859  0.1243
   86SAPS    HX 8175   3.043   6.284  10.487 -0.0219 -0.5492 -0.6463
   86SAPS    HY 8176   2.985   6.237  10.645 -0.9308  0.1209 -0.0116
   86SAPS   O31 8177   2.894   6.124  10.496  0.3894  0.6735  0.7791
   86SAPS   C31 8178   2.827   6.198  10.403  0.4039  0.5081 -0.0869
   86SAPS   O32 8179   2.839   6.318  10.393  0.2705 -0.4488 -0.0720
   86SAPS   C32 8180   2.730   6.107  10.329 -1.0273  0.0087 -0.5528
   86SAPS   H2X 8181   2.629   6.144  10.355 -0.8672 -0.8251  1.3775
   86SAPS   H2Y 8182   2.722   6.010  10.383 -1.8320  1.7923  2.6989
   86SAPS   C23 8183   3.394   5.885  10.197  0.3618  0.3653 -0.1078
   86SAPS   H3R 8184   3.358   5.784  10.227  2.3897 -0.9975 -2.1666
   86SAPS   H3S 8185   3.491   5.910  10.245  0.1703  0.3592  0.2866
   86SAPS   C24 8186   3.419   5.895  10.045  0.1933 -0.1297  0.5300
   86SAPS   H4R 8187   3.466   5.995  10.033 -0.8979  0.2380 -0.8316
   86SAPS   H4S 8188   3.323   5.888   9.990  0.5130 -2.0286  0.1538
   86SAPS   C25 8189   3.511   5.789   9.985  0.5830 -0.1605 -0.2489
   86SAPS   H5R 8190   3.548   5.726  10.066  1.2243  0.1807 -0.2810
   86SAPS   C26 8191   3.528   5.769   9.853 -0.1169 -0.4849  0.2720
   86SAPS   H6R 8192   3.599   5.692   9.819  0.4358  0.8386 -1.6505
   86SAPS   C27 8193   3.462   5.844   9.743  0.4190 -0.0048  0.0065
   86SAPS   H7R 8194   3.521   5.817   9.653 -0.7531  0.7141 -0.9883
   86SAPS   H7S 8195   3.478   5.954   9.732 -0.2733  0.0446 -0.5078
   86SAPS   C28 8196   3.313   5.814   9.736 -0.2707  0.5266  0.5133
   86SAPS   H8R 8197   3.276   5.762   9.825  1.8081  1.7172  2.1162
   86SAPS   C29 8198   3.237   5.848   9.630  1.1052  0.1743 -0.0484
   86SAPS   H9R 8199   3.129   5.827   9.630  1.1237  0.0792 -0.0147
   86SAPS  C210 8200   3.296   5.910   9.508 -0.7087 -0.4927 -1.0860
   86SAPS  H10R 8201   3.348   6.001   9.543  0.2014 -2.0168  1.7050
   86SAPS  H10S 8202   3.207   5.931   9.445 -0.5225 -1.5111 -1.7143
   86SAPS  C211 8203   3.382   5.814   9.429  0.6914 -0.7188 -0.2620
   86SAPS  H11R 8204   3.366   5.708   9.451 -3.0686  0.1547  1.5239
   86SAPS  C212 8205   3.472   5.855   9.342  0.0489  0.2306  0.4674
   86SAPS  H12R 8206   3.520   5.767   9.296  1.9145  1.1141  0.6464
   86SAPS  C213 8207   3.507   5.990   9.302  0.5044  0.0890 -0.3040
   86SAPS  H13R 8208   3.614   6.010   9.322  0.5963 -1.1790  0.6145
   86SAPS  H13S 8209   3.449   6.068   9.356 -1.0056 -1.4441  0.3635
   86SAPS  C214 8210   3.488   6.014   9.154 -0.5770 -0.4431  0.4064
   86SAPS  H14R 8211   3.383   6.009   9.120 -1.2031 -2.3703  2.5142
   86SAPS  C215 8212   3.582   6.035   9.056  0.3894 -0.0138  0.6360
   86SAPS  H15R 8213   3.547   6.039   8.952 -0.1212  0.3764  0.8215
   86SAPS  C216 8214   3.729   6.045   9.080 -0.0510 -0.0467 -0.7735
   86SAPS  H16R 8215   3.765   5.970   9.153  0.8603 -0.2143 -1.3890
   86SAPS  H16S 8216   3.746   6.151   9.109  2.4958 -0.8466  0.7626
   86SAPS  C217 8217   3.822   6.023   8.960 -0.0026 -0.1613  0.4703
   86SAPS  H17R 8218   3.812   5.915   8.933  2.8101 -0.2767 -0.2047
   86SAPS  H17S 8219   3.922   6.041   9.004 -0.2810 -2.2248  2.0570
   86SAPS  C218 8220   3.801   6.096   8.830 -0.3029 -1.0217  0.1046
   86SAPS  H18R 8221   3.814   6.205   8.843  1.2014 -1.2488  0.5786
   86SAPS  H18S 8222   3.699   6.082   8.789 -0.2370  0.5439 -0.6378
   86SAPS  C219 8223   3.901   6.061   8.725  0.0045 -0.2826  0.9222
   86SAPS  H19R 8224   3.894   5.951   8.712  0.3272 -0.0786 -1.0988
   86SAPS  H19S 8225   4.008   6.071   8.751  0.5447  0.7850 -1.6377
   86SAPS  C220 8226   3.884   6.117   8.580 -0.5656 -0.1970  0.0154
   86SAPS  H20R 8227   3.775   6.124   8.559  0.1637 -1.0413 -4.6355
   86SAPS  H20S 8228   3.933   6.039   8.518  0.8391 -1.0981  2.1664
   86SAPS  H20T 8229   3.936   6.211   8.556  0.1943 -0.0940  1.9982
   86SAPS   C33 8230   2.755   6.104  10.177  0.6736  0.0739 -0.1969
   86SAPS   H3X 8231   2.764   6.208  10.139 -0.3128 -0.2913 -1.4655
   86SAPS   H3Y 8232   2.663   6.072  10.124  0.0951  1.2517  0.0784
   86SAPS   C34 8233   2.863   6.012  10.128 -0.9555  0.3271 -0.2171
   86SAPS   H4X 8234   2.816   5.913  10.144 -0.4500  0.1179 -0.0143
   86SAPS   H4Y 8235   2.950   6.040  10.192 -0.2685  1.7580 -1.7338
   86SAPS   C35 8236   2.897   6.042   9.979  0.1820 -0.0903 -0.4704
   86SAPS   H5X 8237   2.998   6.006   9.953 -0.2281 -2.6079  1.2906
   86SAPS   H5Y 8238   2.886   6.152   9.966  0.0214  0.0876  1.0903
   86SAPS   C36 8239   2.804   5.973   9.876  0.0181 -0.2199  0.1799
   86SAPS   H6X 8240   2.698   6.000   9.894  0.0459  1.3158 -1.7749
   86SAPS   H6Y 8241   2.822   5.863   9.872  1.0425 -0.1341  1.9673
   86SAPS   C37 8242   2.844   6.005   9.730 -0.0444 -0.5138 -0.7296
   86SAPS   H7X 8243   2.955   5.992   9.724 -0.0694 -0.9671 -0.2696
   86SAPS   H7Y 8244   2.831   6.114   9.714 -2.9130 -0.4937  1.3962
   86SAPS   C38 8245   2.761   5.936   9.626  0.8079  0.0388 -0.1685
   86SAPS   H8X 8246   2.665   5.986   9.653  0.2012 -1.0891 -0.2303
   86SAPS   H8Y 8247   2.753   5.826   9.636 -0.7971  0.1097 -0.5854
   86SAPS   C39 8248   2.822   5.974   9.487  0.1719 -0.3265  0.5873
   86SAPS   H9X 8249   2.881   5.888   9.450  0.8348 -0.3369  1.6418
   86SAPS   H9Y 8250   2.894   6.057   9.498  1.4936 -1.5783  1.5585
   86SAPS  C310 8251   2.725   6.012   9.370 -0.2527  0.1071 -0.6786
   86SAPS  H10X 8252   2.765   6.081   9.294 -1.0775  1.1645 -0.1772
   86SAPS  H10Y 8253   2.650   6.065   9.434 -0.2222  0.0390 -0.5855
   86SAPS  C311 8254   2.656   5.894   9.292 -0.4713 -0.5288 -0.1636
   86SAPS  H11X 8255   2.572   5.948   9.243  0.4823 -0.1693 -1.4097
   86SAPS  H11Y 8256   2.610   5.831   9.371 -1.8873 -1.4310 -1.6789
   86SAPS  C312 8257   2.745   5.829   9.186 -0.0731 -0.3324  0.9231
   86SAPS  H12X 8258   2.694   5.745   9.133  3.2996 -0.2181 -2.7753
   86SAPS  H12Y 8259   2.825   5.782   9.248  1.0235  0.1579 -0.0906
   86SAPS  C313 8260   2.809   5.912   9.074  0.0109  0.4057  1.0519
   86SAPS  H13X 8261   2.870   5.989   9.126 -0.9429  1.4708  0.6149
   86SAPS  H13Y 8262   2.727   5.961   9.017  0.2573  0.0242  0.3512
   86SAPS  C314 8263   2.901   5.838   8.964  0.0128  0.5447 -0.8042
   86SAPS  H14X 8264   2.938   5.916   8.894 -0.4639  2.2274  0.8115
   86SAPS  H14Y 8265   2.824   5.784   8.904 -0.0667  2.0899 -2.1333
   86SAPS  C315 8266   3.004   5.742   9.020  0.7610  0.3069  0.2669
   86SAPS  H15X 8267   2.958   5.675   9.097 -0.9944  0.7623 -0.3582
   86SAPS  H15Y 8268   3.085   5.802   9.068 -0.5126 -0.6610  3.8163
   86SAPS  C316 8269   3.039   5.641   8.906 -0.0306 -0.0085 -0.2192
   86SAPS  H16X 8270   3.077   5.695   8.816  0.0082  1.6119  0.7385
   86SAPS  H16Y 8271   2.947   5.585   8.879  0.0204 -0.1322 -0.1349
   86SAPS  C317 8272   3.153   5.537   8.941 -0.3852  0.1120  0.0945
   86SAPS  H17X 8273   3.184   5.484   8.849  2.6130 -0.0306  1.1562
   86SAPS  H17Y 8274   3.120   5.462   9.016  0.7847 -0.0077  0.4944
   86SAPS  C318 8275   3.277   5.615   9.005  0.4942 -0.1082  0.3241
   86SAPS  H18X 8276   3.313   5.691   8.932 -0.8267 -1.6559 -1.9906
   86SAPS  H18Y 8277   3.366   5.549   9.012  2.2578  2.3658  1.8545
   86SAPS  H18Z 8278   3.255   5.663   9.103  0.3089  1.1164 -0.3113
   87SAPS     N 8279   2.417   0.252  11.029 -0.8465  0.2354 -0.2085
   87SAPS   HN1 8280   2.354   0.327  11.064  0.6768  1.6099 -0.3216
   87SAPS   HN2 8281   2.491   0.298  10.972 -3.2124  0.9326 -2.8816
   87SAPS   HN3 8282   2.361   0.194  10.963  0.2492  1.1695 -2.0223
   87SAPS   C12 8283   2.472   0.175  11.136 -0.1943 -0.0458 -0.0168
   87SAPS  H12A 8284   2.560   0.218  11.182 -0.6013  0.8240 -0.0381
   87SAPS   C13 8285   2.383   0.123  11.248  0.1687  0.4150 -0.2476
   87SAPS  O13A 8286   2.263   0.156  11.257  0.1354  0.4042 -0.0681
   87SAPS  O13B 8287   2.449   0.096  11.356  0.2452  0.5058  0.2087
   87SAPS   C11 8288   2.542   0.057  11.058  0.4640 -0.7079 -0.1348
   87SAPS  H11A 8289   2.593  -0.005  11.134 -0.6889 -0.2768  1.0043
   87SAPS  H11B 8290   2.619   0.107  10.994 -1.9671  0.6429 -2.0817
   87SAPS     P 8291   2.508  -0.130  10.881 -0.3308  0.0440 -0.1097
   87SAPS   O13 8292   2.629  -0.200  10.939  0.2700 -0.4494  0.4080
   87SAPS   O14 8293   2.392  -0.219  10.847  0.0808 -0.2883  0.1114
   87SAPS   O12 8294   2.449  -0.033  10.980  0.3893  0.0353 -0.2912
   87SAPS   O11 8295   2.562  -0.046  10.763  0.2631  0.0455 -0.1612
   87SAPS    C1 8296   2.482   0.055  10.698 -0.3575  0.1593 -0.3869
   87SAPS    HA 8297   2.372   0.045  10.700 -0.4355  0.5897 -1.9493
   87SAPS    HB 8298   2.513   0.148  10.750  2.5526 -0.9145 -0.0989
   87SAPS    C2 8299   2.527   0.084  10.552 -0.1524 -0.0401  0.2682
   87SAPS    HS 8300   2.450   0.154  10.513  0.6856  0.1955 -1.0113
   87SAPS   O21 8301   2.537  -0.040  10.470  0.5819  0.0863  0.2866
   87SAPS   C21 8302   2.424  -0.092  10.426 -0.0896 -1.2171  0.2176
   87SAPS   O22 8303   2.310  -0.046  10.431 -0.0104  0.2265  0.6090
   87SAPS   C22 8304   2.457  -0.231  10.365  0.1699 -0.9332  1.3180
   87SAPS   H2R 8305   2.511  -0.289  10.443  0.3291 -0.7285  1.3586
   87SAPS   H2S 8306   2.363  -0.285  10.338  0.2524  0.1561 -1.2386
   87SAPS    C3 8307   2.665   0.159  10.553  0.6059 -0.6618  0.4022
   87SAPS    HX 8308   2.727   0.097  10.621  1.3070  0.3789  0.7239
   87SAPS    HY 8309   2.645   0.261  10.594 -1.2303 -0.3919 -1.0617
   87SAPS   O31 8310   2.726   0.167  10.418  0.4488 -0.5068 -0.6445
   87SAPS   C31 8311   2.806   0.072  10.382 -0.8277 -0.9323  0.5804
   87SAPS   O32 8312   2.847  -0.017  10.455 -0.0869 -0.2425  0.2420
   87SAPS   C32 8313   2.857   0.102  10.236 -0.6782  0.5794 -0.3844
   87SAPS   H2X 8314   2.904   0.202  10.239  0.0382  0.2240  2.3560
   87SAPS   H2Y 8315   2.768   0.091  10.171  0.3550 -0.3364 -1.6693
   87SAPS   C23 8316   2.548  -0.214  10.244  0.1052  0.0039  0.1208
   87SAPS   H3R 8317   2.640  -0.169  10.287 -1.1631  1.7120  1.0862
   87SAPS   H3S 8318   2.506  -0.140  10.173  2.5178  0.3971 -0.9463
   87SAPS   C24 8319   2.581  -0.343  10.166  0.4388 -0.0209 -0.2554
   87SAPS   H4R 8320   2.487  -0.369  10.114 -0.1624  1.0140  0.2907
   87SAPS   H4S 8321   2.611  -0.417  10.243 -3.5948 -1.0070  0.4551
   87SAPS   C25 8322   2.693  -0.323  10.074 -0.1761  0.4451  0.1523
   87SAPS   H5R 8323   2.790  -0.294  10.115  0.3232  0.3129 -0.9173
   87SAPS   C26 8324   2.692  -0.340   9.937  0.6207 -0.1927  0.4089
   87SAPS   H6R 8325   2.789  -0.324   9.888  0.1979  2.8608  0.5027
   87SAPS   C27 8326   2.575  -0.390   9.857  0.6968  0.7533 -0.0666
   87SAPS   H7R 8327   2.592  -0.360   9.752  3.4667  0.2036  0.1964
   87SAPS   H7S 8328   2.478  -0.345   9.887 -0.9671 -3.2029  0.8576
   87SAPS   C28 8329   2.544  -0.538   9.855 -0.1121 -0.3660  0.7251
   87SAPS   H8R 8330   2.604  -0.592   9.930 -2.4464  0.2109  3.0663
   87SAPS   C29 8331   2.464  -0.605   9.771 -0.2534 -0.3960  0.0209
   87SAPS   H9R 8332   2.460  -0.714   9.784  2.1499 -0.5720 -0.4885
   87SAPS  C210 8333   2.379  -0.529   9.671  1.0163  0.4424  0.1620
   87SAPS  H10R 8334   2.362  -0.423   9.698  0.1300  0.1538  0.7640
   87SAPS  H10S 8335   2.273  -0.562   9.661  1.8288 -1.6987 -1.8876
   87SAPS  C211 8336   2.428  -0.501   9.530  0.2580  0.1141 -0.2712
   87SAPS  H11R 8337   2.493  -0.416   9.504  0.4164 -0.1719 -0.8193
   87SAPS  C212 8338   2.382  -0.566   9.422 -0.3584  0.9217 -0.4068
   87SAPS  H12R 8339   2.422  -0.544   9.322  0.7364  1.2403  0.0879
   87SAPS  C213 8340   2.279  -0.677   9.434 -0.5146  0.1972 -0.2034
   87SAPS  H13R 8341   2.180  -0.627   9.423  0.9749  2.9855 -1.6139
   87SAPS  H13S 8342   2.275  -0.734   9.530  2.3657  0.2967  0.0144
   87SAPS  C214 8343   2.301  -0.773   9.325 -0.4482 -0.2794  0.8185
   87SAPS  H14R 8344   2.364  -0.860   9.350 -1.7974 -1.3216  0.6590
   87SAPS  C215 8345   2.245  -0.754   9.197 -0.6192 -0.1104 -0.4955
   87SAPS  H15R 8346   2.280  -0.819   9.116  0.0439 -0.1434 -0.1886
   87SAPS  C216 8347   2.151  -0.649   9.153 -0.4704  0.2236 -0.4350
   87SAPS  H16R 8348   2.170  -0.551   9.203  0.3464 -0.2795  0.2334
   87SAPS  H16S 8349   2.051  -0.683   9.186 -0.5202 -0.9504 -1.7539
   87SAPS  C217 8350   2.147  -0.616   9.004 -1.3146  0.0749 -0.5582
   87SAPS  H17R 8351   2.247  -0.587   8.966  0.3268 -3.1989  0.9588
   87SAPS  H17S 8352   2.082  -0.528   8.988  1.5038  2.0756 -1.4902
   87SAPS  C218 8353   2.102  -0.733   8.921 -0.1916 -1.2327 -0.2767
   87SAPS  H18R 8354   2.006  -0.773   8.958  0.7943 -1.2071  2.4793
   87SAPS  H18S 8355   2.181  -0.810   8.940  1.1319 -0.2677 -1.7446
   87SAPS  C219 8356   2.110  -0.719   8.761  0.7554  0.5934 -0.4181
   87SAPS  H19R 8357   2.209  -0.674   8.737  2.0264 -2.2343 -0.6603
   87SAPS  H19S 8358   2.023  -0.654   8.739 -0.1515 -0.5974 -0.3752
   87SAPS  C220 8359   2.105  -0.851   8.690  0.7976  0.3423  0.0392
   87SAPS  H20R 8360   2.118  -0.834   8.581 -0.7842  0.5011 -0.1323
   87SAPS  H20S 8361   2.010  -0.908   8.697  1.3530 -0.2113  3.6941
   87SAPS  H20T 8362   2.196  -0.909   8.715 -0.2907 -0.8745  1.2031
   87SAPS   C33 8363   2.967  -0.001  10.195 -0.6678  0.0215  0.8343
   87SAPS   H3X 8364   2.938  -0.108  10.195 -1.8639  0.3388  0.4016
   87SAPS   H3Y 8365   3.050   0.005  10.268 -0.4615  0.7126  0.5410
   87SAPS   C34 8366   3.004   0.041  10.052 -0.9851 -0.2181 -0.8845
   87SAPS   H4X 8367   3.108   0.008  10.034 -0.7440  0.4845 -0.7823
   87SAPS   H4Y 8368   3.010   0.152  10.043 -0.2018 -0.1506  0.3764
   87SAPS   C35 8369   2.924  -0.030   9.941 -0.0466 -0.5491 -0.3149
   87SAPS   H5X 8370   2.816  -0.011   9.959 -0.2256 -1.9256  0.1705
   87SAPS   H5Y 8371   2.943  -0.138   9.958 -1.1323 -0.9406 -1.4727
   87SAPS   C36 8372   2.966   0.020   9.803 -0.0672 -0.7149 -0.0121
   87SAPS   H6X 8373   3.064   0.069   9.825  0.3796 -1.1455 -1.0082
   87SAPS   H6Y 8374   2.895   0.098   9.768  2.3032  2.1339  1.3252
   87SAPS   C37 8375   2.990  -0.086   9.689 -0.2069  0.5167  0.1711
   87SAPS   H7X 8376   2.913  -0.166   9.692  0.7551 -0.5344 -1.9890
   87SAPS   H7Y 8377   3.091  -0.130   9.709 -0.6443 -0.5725  0.0380
   87SAPS   C38 8378   2.999  -0.018   9.549  0.5082  0.1121 -0.5184
   87SAPS   H8X 8379   3.078   0.060   9.548  0.2709  0.4449  2.3079
   87SAPS   H8Y 8380   2.906   0.033   9.516  1.6700  1.6852 -1.4038
   87SAPS   C39 8381   3.027  -0.119   9.439  0.4345  0.3971  0.0275
   87SAPS   H9X 8382   2.941  -0.187   9.423 -0.7895  1.7358  0.7647
   87SAPS   H9Y 8383   3.108  -0.185   9.477  0.5534  0.4903 -0.0596
   87SAPS  C310 8384   3.076  -0.059   9.311 -0.5043 -0.5898 -0.6420
   87SAPS  H10X 8385   3.177  -0.013   9.313 -1.4884  1.5453  2.0078
   87SAPS  H10Y 8386   3.018   0.033   9.287 -1.0843 -0.9828 -0.7719
   87SAPS  C311 8387   3.055  -0.158   9.197 -0.1163  0.0408  0.5149
   87SAPS  H11X 8388   2.960  -0.214   9.193 -1.0239  1.4698  1.7057
   87SAPS  H11Y 8389   3.140  -0.230   9.192 -0.2431 -0.2655  2.2629
   87SAPS  C312 8390   3.045  -0.092   9.058  0.7694  0.2200 -0.2131
   87SAPS  H12X 8391   3.144  -0.043   9.044 -0.6048  4.0062  2.2868
   87SAPS  H12Y 8392   2.972  -0.008   9.061  0.5888  0.1944 -3.0508
   87SAPS  C313 8393   3.005  -0.186   8.945 -0.0381 -0.3654  0.0447
   87SAPS  H13X 8394   2.897  -0.213   8.951 -0.0785 -0.8073 -2.2800
   87SAPS  H13Y 8395   3.080  -0.268   8.946 -1.4106 -1.6227  1.7168
   87SAPS  C314 8396   3.029  -0.117   8.805 -0.2131  0.2159  0.7431
   87SAPS  H14X 8397   3.124  -0.060   8.804  0.6654 -1.2215  0.9112
   87SAPS  H14Y 8398   2.944  -0.049   8.785 -0.0884  0.2289  0.2509
   87SAPS  C315 8399   3.045  -0.213   8.690 -0.7425  0.5029  0.1770
   87SAPS  H15X 8400   2.953  -0.276   8.698  0.2742 -0.8115  1.5942
   87SAPS  H15Y 8401   3.135  -0.278   8.695  0.8923  2.8156  2.1396
   87SAPS  C316 8402   3.044  -0.140   8.553 -0.3089 -0.0884 -0.5827
   87SAPS  H16X 8403   3.000  -0.039   8.565  1.3597  0.3713  2.1113
   87SAPS  H16Y 8404   2.991  -0.204   8.479  2.5298 -2.6983 -0.4837
   87SAPS  C317 8405   3.187  -0.107   8.519 -0.0858 -0.1349  0.0656
   87SAPS  H17X 8406   3.251  -0.195   8.540  0.1372 -0.5004 -2.0056
   87SAPS  H17Y 8407   3.222  -0.031   8.592  0.0767 -0.9184  0.8168
   87SAPS  C318 8408   3.208  -0.054   8.382  0.2707 -0.2501  0.1241
   87SAPS  H18X 8409   3.315  -0.029   8.370  0.5991 -2.2674 -1.6682
   87SAPS  H18Y 8410   3.143   0.035   8.371  0.0943 -0.5861 -1.8059
   87SAPS  H18Z 8411   3.175  -0.131   8.308 -1.0992  0.7732 -0.3530
   88SAPS     N 8412   6.415   5.418  10.828 -0.5409 -0.1824  0.4379
   88SAPS   HN1 8413   6.359   5.345  10.779  0.0708  0.5418 -1.3781
   88SAPS   HN2 8414   6.416   5.500  10.764 -1.1418 -1.2847 -1.0039
   88SAPS   HN3 8415   6.512   5.393  10.856 -0.3938  0.6698  0.7051
   88SAPS   C12 8416   6.343   5.438  10.953 -0.1028  0.3200  0.1985
   88SAPS  H12A 8417   6.325   5.344  11.003  1.2355  0.6401  1.3210
   88SAPS   C13 8418   6.410   5.539  11.056  0.2940 -1.1291  0.2354
   88SAPS  O13A 8419   6.529   5.574  11.045  0.0933 -0.0963 -0.2059
   88SAPS  O13B 8420   6.342   5.565  11.160  0.3192 -0.5502  0.2841
   88SAPS   C11 8421   6.198   5.496  10.921 -0.5865 -0.0276  0.4799
   88SAPS  H11A 8422   6.212   5.605  10.905 -0.5781 -0.3664 -2.0284
   88SAPS  H11B 8423   6.136   5.487  11.012  0.9612 -1.7615  1.3629
   88SAPS     P 8424   5.988   5.483  10.764 -0.3629  0.1757  0.1125
   88SAPS   O13 8425   5.913   5.484  10.894 -0.2564 -0.4770  0.1431
   88SAPS   O14 8426   5.996   5.601  10.675 -0.3856 -0.3779  0.5685
   88SAPS   O12 8427   6.133   5.438  10.806  0.1232 -0.0429  0.4685
   88SAPS   O11 8428   5.930   5.360  10.682 -0.6471  0.1031 -0.4215
   88SAPS    C1 8429   6.017   5.248  10.651  0.5640  1.0546 -0.1785
   88SAPS    HA 8430   6.082   5.221  10.737  0.7185 -0.4344 -0.7513
   88SAPS    HB 8431   5.948   5.162  10.638  2.2804 -0.3042 -0.4878
   88SAPS    C2 8432   6.111   5.276  10.532 -0.0939  0.1939 -0.3439
   88SAPS    HS 8433   6.139   5.383  10.542  0.5684 -0.1633  1.7478
   88SAPS   O21 8434   6.048   5.247  10.403 -0.4840 -0.1306 -0.1550
   88SAPS   C21 8435   6.068   5.335  10.308 -0.0528  0.9703  0.1848
   88SAPS   O22 8436   6.131   5.439  10.319  0.2126 -0.4253 -0.0735
   88SAPS   C22 8437   6.008   5.277  10.179  0.7383  0.2128  0.6137
   88SAPS   H2R 8438   6.061   5.186  10.143  1.2024  0.9238 -0.5225
   88SAPS   H2S 8439   5.906   5.252  10.216  0.5383 -1.9422 -1.2415
   88SAPS    C3 8440   6.248   5.199  10.531  0.1449  0.9958 -0.3947
   88SAPS    HX 8441   6.213   5.094  10.522 -0.5660  0.8145  3.7885
   88SAPS    HY 8442   6.295   5.216  10.630 -1.4729  2.3023  0.1622
   88SAPS   O31 8443   6.329   5.236  10.419 -0.1067  0.2116  0.0523
   88SAPS   C31 8444   6.427   5.319  10.441 -0.2791 -0.0660  0.1833
   88SAPS   O32 8445   6.451   5.375  10.543  0.4267  0.1256 -0.4615
   88SAPS   C32 8446   6.505   5.342  10.307 -0.6870  0.3322 -0.1956
   88SAPS   H2X 8447   6.554   5.245  10.286 -1.2413  0.3005 -1.4004
   88SAPS   H2Y 8448   6.589   5.412  10.326  1.8336 -2.5979 -0.0368
   88SAPS   C23 8449   6.008   5.395  10.071  0.8415 -0.4272 -0.4047
   88SAPS   H3R 8450   6.110   5.408  10.030  1.0827  0.4817  0.4668
   88SAPS   H3S 8451   5.977   5.485  10.128 -0.6203  0.3413 -2.3592
   88SAPS   C24 8452   5.898   5.383   9.959 -0.1424 -0.4757 -0.2773
   88SAPS   H4R 8453   5.878   5.479   9.907  2.5592  0.6966  0.7457
   88SAPS   H4S 8454   5.802   5.359  10.010  0.3087  0.8698  1.2420
   88SAPS   C25 8455   5.941   5.278   9.860  0.0542  0.0470 -0.5843
   88SAPS   H5R 8456   5.932   5.175   9.898 -0.2362 -0.7033 -2.6631
   88SAPS   C26 8457   5.982   5.299   9.733  0.3772  0.4917  0.2318
   88SAPS   H6R 8458   6.020   5.209   9.682  2.5547  0.7752  1.3166
   88SAPS   C27 8459   5.993   5.432   9.667 -0.1677  0.6761 -0.6015
   88SAPS   H7R 8460   5.942   5.513   9.723  1.0697  1.2264 -0.2461
   88SAPS   H7S 8461   5.925   5.430   9.579 -1.4265 -0.8917  0.3901
   88SAPS   C28 8462   6.137   5.465   9.634 -1.0125 -0.7141 -0.2491
   88SAPS   H8R 8463   6.206   5.488   9.716 -0.0053  0.1975 -1.3300
   88SAPS   C29 8464   6.174   5.505   9.516  0.3513  0.3487  0.6783
   88SAPS   H9R 8465   6.283   5.509   9.508  0.4983 -1.1098  1.8345
   88SAPS  C210 8466   6.087   5.515   9.400 -0.8764  0.4457 -0.6715
   88SAPS  H10R 8467   6.014   5.599   9.404 -3.0215 -1.4275  1.2254
   88SAPS  H10S 8468   6.030   5.419   9.396  1.3745 -0.9382 -0.5726
   88SAPS  C211 8469   6.174   5.524   9.269  0.4636  0.3138 -0.0645
   88SAPS  H11R 8470   6.168   5.615   9.208 -0.6671 -0.6119 -1.3500
   88SAPS  C212 8471   6.248   5.425   9.210 -0.2807  0.1135  0.6930
   88SAPS  H12R 8472   6.288   5.445   9.110 -1.4532  1.6449  0.5041
   88SAPS  C213 8473   6.272   5.292   9.273 -0.0924  0.6768  0.0854
   88SAPS  H13R 8474   6.185   5.257   9.334  0.6662  0.4174  1.0307
   88SAPS  H13S 8475   6.354   5.307   9.347  0.6774 -0.5184 -0.5149
   88SAPS  C214 8476   6.298   5.187   9.165  0.0789 -0.2952 -0.1403
   88SAPS  H14R 8477   6.406   5.163   9.160  0.2310  0.3405  0.0380
   88SAPS  C215 8478   6.210   5.143   9.076  0.0026  0.0245 -0.7857
   88SAPS  H15R 8479   6.250   5.084   8.991 -1.0429 -2.6196  0.5278
   88SAPS  C216 8480   6.065   5.176   9.068  0.5246  0.1850  0.5341
   88SAPS  H16R 8481   6.017   5.129   8.980  1.6010  2.1830 -1.1906
   88SAPS  H16S 8482   6.062   5.287   9.061 -1.8974  0.2102  1.6616
   88SAPS  C217 8483   5.971   5.126   9.181  0.0085  0.0305 -0.2996
   88SAPS  H17R 8484   5.999   5.171   9.278  0.0602  1.9860 -1.2101
   88SAPS  H17S 8485   5.987   5.017   9.198 -1.4658 -0.2574 -0.6194
   88SAPS  C218 8486   5.821   5.170   9.155 -0.2447  0.8069 -0.0414
   88SAPS  H18R 8487   5.800   5.120   9.058  0.0732  3.1440 -1.3579
   88SAPS  H18S 8488   5.808   5.279   9.136 -0.7692  0.8689  0.6474
   88SAPS  C219 8489   5.719   5.127   9.269  0.3180 -0.3525  0.1710
   88SAPS  H19R 8490   5.731   5.204   9.348 -1.2852 -0.1959  0.2737
   88SAPS  H19S 8491   5.745   5.020   9.287  2.0457  0.1580  0.8823
   88SAPS  C220 8492   5.576   5.138   9.217  0.5178 -0.4573  0.0583
   88SAPS  H20R 8493   5.562   5.235   9.164  1.2458  0.0253  0.7467
   88SAPS  H20S 8494   5.500   5.138   9.298  0.2239  5.0882 -0.0343
   88SAPS  H20T 8495   5.554   5.047   9.156 -2.3491  0.6825 -0.6964
   88SAPS   C33 8496   6.417   5.384  10.186  0.2046  0.0360  0.1830
   88SAPS   H3X 8497   6.372   5.485  10.200  0.2904  0.2542 -1.0317
   88SAPS   H3Y 8498   6.327   5.320  10.178 -1.3866  2.5067 -3.1230
   88SAPS   C34 8499   6.490   5.368  10.047 -0.2011 -0.0281  0.1758
   88SAPS   H4X 8500   6.515   5.260  10.051 -0.4431 -0.0491  1.2131
   88SAPS   H4Y 8501   6.583   5.430  10.046 -0.0292 -0.2741 -1.6549
   88SAPS   C35 8502   6.405   5.400   9.922  0.3056  0.0756 -0.0726
   88SAPS   H5X 8503   6.380   5.508   9.921  3.8424  0.9688  0.8222
   88SAPS   H5Y 8504   6.314   5.340   9.943  0.8326 -1.5905 -2.3712
   88SAPS   C36 8505   6.473   5.349   9.793  0.1278 -0.0806  0.1174
   88SAPS   H6X 8506   6.392   5.331   9.720 -0.6857  1.2441  0.6816
   88SAPS   H6Y 8507   6.521   5.251   9.812  0.1557 -0.2211 -0.6673
   88SAPS   C37 8508   6.566   5.446   9.722 -0.1812 -0.2520 -0.9103
   88SAPS   H7X 8509   6.669   5.435   9.762 -0.2795 -0.4784 -0.7171
   88SAPS   H7Y 8510   6.542   5.551   9.749  1.9861  0.3759 -1.3212
   88SAPS   C38 8511   6.558   5.431   9.570  0.0679  0.1910  0.2140
   88SAPS   H8X 8512   6.453   5.414   9.540 -0.1125  1.5289  0.0648
   88SAPS   H8Y 8513   6.610   5.343   9.526 -0.0121  0.2731 -0.0394
   88SAPS   C39 8514   6.600   5.565   9.509 -0.3371 -0.3069 -0.5206
   88SAPS   H9X 8515   6.708   5.581   9.527 -0.2778  0.4206 -1.5049
   88SAPS   H9Y 8516   6.539   5.642   9.562 -1.8906 -2.5983  1.1270
   88SAPS  C310 8517   6.569   5.566   9.362 -0.1666  0.1834  0.1008
   88SAPS  H10X 8518   6.466   5.530   9.341  0.5289  0.1515 -3.5718
   88SAPS  H10Y 8519   6.635   5.499   9.302  0.2488  0.8198 -0.1610
   88SAPS  C311 8520   6.577   5.699   9.296 -0.1174 -0.2027  0.0746
   88SAPS  H11X 8521   6.677   5.743   9.318 -0.5171  0.5099  0.4938
   88SAPS  H11Y 8522   6.508   5.761   9.357  0.6232 -1.1503  1.9140
   88SAPS  C312 8523   6.526   5.719   9.157 -0.2120  0.5231  0.1257
   88SAPS  H12X 8524   6.508   5.825   9.129  0.0404  0.2093 -1.2997
   88SAPS  H12Y 8525   6.424   5.675   9.159  0.0006  0.0610  3.0708
   88SAPS  C313 8526   6.599   5.638   9.048 -0.2697 -0.2438 -0.2878
   88SAPS  H13X 8527   6.540   5.643   8.954 -2.2938 -1.9699  0.8473
   88SAPS  H13Y 8528   6.618   5.531   9.069 -0.3276 -0.2679 -0.3579
   88SAPS  C314 8529   6.736   5.707   8.999  0.4030 -0.6139  0.8823
   88SAPS  H14X 8530   6.802   5.627   8.959 -1.4837 -2.3157  1.1140
   88SAPS  H14Y 8531   6.781   5.743   9.093 -0.3970  2.4303  0.1449
   88SAPS  C315 8532   6.721   5.822   8.904 -0.1079  0.3012  0.4394
   88SAPS  H15X 8533   6.822   5.864   8.885 -1.0821  1.6667 -1.9358
   88SAPS  H15Y 8534   6.647   5.890   8.951 -1.3803  0.2188 -1.4063
   88SAPS  C316 8535   6.670   5.787   8.764 -0.2106  0.1095  0.2689
   88SAPS  H16X 8536   6.574   5.732   8.777  1.8149 -3.0310  2.5835
   88SAPS  H16Y 8537   6.748   5.723   8.719 -0.9634 -1.3207  0.9604
   88SAPS  C317 8538   6.658   5.904   8.671 -0.3342 -0.0158 -0.2062
   88SAPS  H17X 8539   6.628   5.861   8.573 -1.9973 -3.1951  1.6253
   88SAPS  H17Y 8540   6.752   5.959   8.652 -1.9803  3.3431  0.8824
   88SAPS  C318 8541   6.564   6.015   8.724  0.1278 -0.1639  0.0344
   88SAPS  H18X 8542   6.617   6.070   8.805  1.0624 -1.4751  0.3178
   88SAPS  H18Y 8543   6.471   5.970   8.765  0.1020 -0.1264  0.0159
   88SAPS  H18Z 8544   6.535   6.092   8.648 -0.3538 -0.9946 -0.6336
   89SAPS     N 8545   4.659   1.683  10.665 -0.0560  0.0993 -0.2711
   89SAPS   HN1 8546   4.611   1.596  10.634  1.2972 -0.6007 -0.4392
   89SAPS   HN2 8547   4.589   1.758  10.679  0.2771  0.3131  0.2658
   89SAPS   HN3 8548   4.719   1.714  10.586  0.6308  0.3514  0.3430
   89SAPS   C12 8549   4.737   1.655  10.791  0.1794 -0.0488 -0.1265
   89SAPS  H12A 8550   4.778   1.744  10.836  0.8326 -0.7644  0.6885
   89SAPS   C13 8551   4.660   1.573  10.890 -0.2948  0.4116  0.0369
   89SAPS  O13A 8552   4.548   1.527  10.871  0.3343  0.1402 -0.5312
   89SAPS  O13B 8553   4.725   1.546  10.996  0.3345  0.1427 -0.8504
   89SAPS   C11 8554   4.863   1.581  10.742 -0.2976 -0.4936  0.4979
   89SAPS  H11A 8555   4.843   1.481  10.696  0.9417  1.0522 -3.5764
   89SAPS  H11B 8556   4.924   1.574  10.834 -0.5091 -0.3601  0.6486
   89SAPS     P 8557   5.051   1.584  10.574 -0.3069 -0.3587 -0.2951
   89SAPS   O13 8558   5.123   1.674  10.483  0.1000 -0.3706 -0.1053
   89SAPS   O14 8559   5.138   1.520  10.675  0.3215  0.3988 -0.0370
   89SAPS   O12 8560   4.934   1.655  10.646  0.2318  0.4524  0.8948
   89SAPS   O11 8561   4.977   1.469  10.493 -0.2920 -0.3321  0.4680
   89SAPS    C1 8562   4.893   1.518  10.388 -0.4695 -0.7077 -0.3078
   89SAPS    HA 8563   4.796   1.464  10.390 -1.9732  1.8926 -0.4413
   89SAPS    HB 8564   4.869   1.626  10.391  2.7813  0.0428  0.6479
   89SAPS    C2 8565   4.949   1.495  10.243 -0.2445 -0.0564  0.2299
   89SAPS    HS 8566   4.880   1.534  10.165 -1.0961  2.7252  2.2873
   89SAPS   O21 8567   4.974   1.359  10.212  0.1280  0.4724  0.1942
   89SAPS   C21 8568   4.874   1.289  10.169 -0.3214  0.3191 -0.0479
   89SAPS   O22 8569   4.758   1.320  10.146 -0.2546  0.1649  0.2166
   89SAPS   C22 8570   4.927   1.143  10.157  0.7322 -0.7896 -1.1875
   89SAPS   H2R 8571   4.986   1.124  10.250  0.3197  2.4335 -0.1914
   89SAPS   H2S 8572   4.839   1.075  10.151  2.1599 -2.4172 -4.6910
   89SAPS    C3 8573   5.082   1.568  10.209  0.3087 -0.7371 -0.1032
   89SAPS    HX 8574   5.160   1.530  10.278 -1.3649  0.1457  2.3498
   89SAPS    HY 8575   5.068   1.677  10.229  0.8266  0.1256 -4.0306
   89SAPS   O31 8576   5.126   1.558  10.077 -0.0728  0.4877 -0.2290
   89SAPS   C31 8577   5.251   1.599  10.057  0.1261 -0.1904 -0.1181
   89SAPS   O32 8578   5.329   1.635  10.140 -0.5097  0.3020  0.4217
   89SAPS   C32 8579   5.275   1.590   9.908 -0.0573  0.8862 -0.1001
   89SAPS   H2X 8580   5.376   1.544   9.897 -0.1535 -0.0777  2.6829
   89SAPS   H2Y 8581   5.272   1.692   9.863  0.3282  1.3254  0.8722
   89SAPS   C23 8582   5.021   1.112  10.038  0.2416  0.4795  0.5764
   89SAPS   H3R 8583   5.056   1.007  10.046 -3.1785 -0.7329  0.1425
   89SAPS   H3S 8584   5.105   1.184  10.047  0.8250 -0.2573  1.1463
   89SAPS   C24 8585   4.962   1.154   9.902  0.3779  0.3300 -0.2379
   89SAPS   H4R 8586   5.038   1.162   9.822  1.7800 -0.8102  0.9534
   89SAPS   H4S 8587   4.910   1.251   9.915  0.9670  0.4714  1.1382
   89SAPS   C25 8588   4.854   1.046   9.857 -0.4224  0.7267  0.2652
   89SAPS   H5R 8589   4.756   1.054   9.906 -0.6188 -0.8380  0.1377
   89SAPS   C26 8590   4.862   0.956   9.753  0.0690  0.2529  0.3152
   89SAPS   H6R 8591   4.779   0.886   9.734 -1.8636  1.9943  2.0407
   89SAPS   C27 8592   4.980   0.945   9.660  0.3994  0.5086  0.1515
   89SAPS   H7R 8593   5.076   0.981   9.702  0.8115  1.7209 -1.7588
   89SAPS   H7S 8594   4.964   1.004   9.567 -1.8103  1.3239  1.0211
   89SAPS   C28 8595   4.999   0.804   9.615 -0.1996  0.1021 -0.6000
   89SAPS   H8R 8596   5.025   0.740   9.701 -0.8785  3.1420  1.9403
   89SAPS   C29 8597   4.980   0.752   9.489  0.3283  0.5695 -0.1301
   89SAPS   H9R 8598   4.992   0.644   9.472 -1.1443  0.8085 -2.8550
   89SAPS  C210 8599   4.941   0.815   9.363  0.0580  0.0345  0.3423
   89SAPS  H10R 8600   4.843   0.866   9.375 -0.3552 -0.4508 -0.8867
   89SAPS  H10S 8601   4.923   0.735   9.288  1.4779 -1.1048  1.1850
   89SAPS  C211 8602   5.027   0.923   9.302 -0.2126  0.0149  0.3509
   89SAPS  H11R 8603   5.096   0.964   9.377 -0.9020  0.4878  0.7290
   89SAPS  C212 8604   5.023   0.978   9.181  0.9242  0.2932 -0.9349
   89SAPS  H12R 8605   5.084   1.066   9.157 -2.0342  3.4439  2.4155
   89SAPS  C213 8606   4.934   0.925   9.063 -0.0378  0.0294 -0.2803
   89SAPS  H13R 8607   4.851   0.998   9.052 -2.2920 -1.6975  4.0840
   89SAPS  H13S 8608   4.879   0.832   9.090 -1.4172  0.9876  0.2463
   89SAPS  C214 8609   5.006   0.895   8.934 -0.1590  0.0113  0.4312
   89SAPS  H14R 8610   5.081   0.816   8.945  0.1937  0.3360  0.3522
   89SAPS  C215 8611   4.979   0.955   8.816 -0.6715  0.3842  0.9344
   89SAPS  H15R 8612   5.038   0.918   8.731 -1.2923 -0.7056  0.9721
   89SAPS  C216 8613   4.870   1.056   8.771  0.8415 -0.1808  1.2320
   89SAPS  H16R 8614   4.812   1.089   8.860 -1.0130  1.0739 -0.3792
   89SAPS  H16S 8615   4.795   1.001   8.710 -1.7293  2.2771  2.0337
   89SAPS  C217 8616   4.925   1.173   8.688  0.1373 -0.5275 -0.1587
   89SAPS  H17R 8617   5.007   1.225   8.743 -0.2935  0.8924 -0.8345
   89SAPS  H17S 8618   4.836   1.239   8.679 -0.1145 -1.1122 -2.2196
   89SAPS  C218 8619   4.971   1.128   8.551  0.2116 -0.4738 -0.4370
   89SAPS  H18R 8620   4.902   1.062   8.495  0.6652  0.5332 -2.1983
   89SAPS  H18S 8621   5.064   1.072   8.579  1.4453  2.0510  0.6613
   89SAPS  C219 8622   5.022   1.248   8.463 -0.2510 -0.2726 -0.1623
   89SAPS  H19R 8623   5.115   1.285   8.512 -0.9723  1.4025 -0.0406
   89SAPS  H19S 8624   4.961   1.336   8.490  1.5392  0.2496  2.3925
   89SAPS  C220 8625   5.023   1.233   8.313  0.4639  0.2376 -0.3477
   89SAPS  H20R 8626   4.917   1.209   8.290  0.2554 -0.1030  0.9168
   89SAPS  H20S 8627   5.087   1.152   8.273  0.0603  1.1310 -2.8927
   89SAPS  H20T 8628   5.032   1.333   8.264 -0.1002  0.8221  0.7085
   89SAPS   C33 8629   5.175   1.498   9.837  0.5066 -0.6126  0.4260
   89SAPS   H3X 8630   5.079   1.554   9.842  1.2929  0.7081  0.8056
   89SAPS   H3Y 8631   5.147   1.406   9.892  1.2265 -1.0946 -0.0102
   89SAPS   C34 8632   5.223   1.470   9.694  0.2545  0.3769 -0.1106
   89SAPS   H4X 8633   5.312   1.405   9.703 -0.6160 -0.6547  1.1670
   89SAPS   H4Y 8634   5.246   1.568   9.647  0.8181  0.6891  0.8035
   89SAPS   C35 8635   5.124   1.401   9.598  0.4566 -0.1707 -0.9664
   89SAPS   H5X 8636   5.022   1.432   9.627  0.1606 -3.1607  1.4839
   89SAPS   H5Y 8637   5.130   1.292   9.621 -2.0665 -0.1038  0.1623
   89SAPS   C36 8638   5.160   1.439   9.452  0.5583  0.1673 -0.2784
   89SAPS   H6X 8639   5.255   1.386   9.427 -0.0119 -0.4477 -1.1738
   89SAPS   H6Y 8640   5.167   1.550   9.445  1.9109  0.0596 -0.9464
   89SAPS   C37 8641   5.053   1.382   9.363 -0.0258  0.4751  0.1848
   89SAPS   H7X 8642   4.960   1.436   9.391 -0.8752 -1.2197  0.6571
   89SAPS   H7Y 8643   5.043   1.273   9.379  4.1353  0.2718  1.9050
   89SAPS   C38 8644   5.097   1.413   9.213 -0.2257  0.0177  0.0017
   89SAPS   H8X 8645   5.171   1.337   9.180  2.3377  3.0755 -1.5255
   89SAPS   H8Y 8646   5.151   1.510   9.215  0.2210 -0.2428  1.1284
   89SAPS   C39 8647   4.973   1.418   9.128 -0.8424  0.1584  0.2697
   89SAPS   H9X 8648   4.937   1.523   9.132 -0.2893  0.3209  1.2158
   89SAPS   H9Y 8649   4.901   1.342   9.162 -0.1892 -0.6133 -0.0422
   89SAPS  C310 8650   4.999   1.390   8.982  0.8904 -0.1739  0.0149
   89SAPS  H10X 8651   4.903   1.390   8.927  2.2650 -2.0172 -2.4832
   89SAPS  H10Y 8652   5.040   1.289   8.961 -1.5059 -1.6187  2.0143
   89SAPS  C311 8653   5.087   1.494   8.917  0.0609  0.3274  0.2713
   89SAPS  H11X 8654   5.185   1.490   8.970  1.2730  1.2114 -1.8307
   89SAPS  H11Y 8655   5.029   1.586   8.939 -2.9722 -1.0123 -1.7939
   89SAPS  C312 8656   5.113   1.479   8.768 -0.9679  0.0891 -0.0884
   89SAPS  H12X 8657   5.018   1.474   8.711 -0.7251 -0.9076 -0.4166
   89SAPS  H12Y 8658   5.167   1.385   8.743 -0.8159 -0.3609  1.8042
   89SAPS  C313 8659   5.193   1.602   8.714  0.5226 -0.3855  0.0301
   89SAPS  H13X 8660   5.295   1.600   8.759 -0.1564  0.2244  1.6531
   89SAPS  H13Y 8661   5.150   1.701   8.741  0.3866 -0.2141 -0.8295
   89SAPS  C314 8662   5.212   1.609   8.562  0.1193  0.6909  1.0692
   89SAPS  H14X 8663   5.241   1.711   8.529 -3.2525  2.3572  2.9981
   89SAPS  H14Y 8664   5.115   1.576   8.518  0.5846  1.5124 -0.6012
   89SAPS  C315 8665   5.315   1.508   8.505 -0.2453  0.3394 -0.3183
   89SAPS  H15X 8666   5.290   1.484   8.399 -3.1483  1.3029  0.1082
   89SAPS  H15Y 8667   5.321   1.416   8.566  2.1577  0.3496 -0.4585
   89SAPS  C316 8668   5.461   1.562   8.508 -0.0734  0.4337 -0.2153
   89SAPS  H16X 8669   5.480   1.587   8.614  0.3714  1.2647 -0.4845
   89SAPS  H16Y 8670   5.461   1.659   8.454  0.4666  0.8191  0.4903
   89SAPS  C317 8671   5.567   1.464   8.471  0.0823  1.2301 -0.3548
   89SAPS  H17X 8672   5.528   1.407   8.384  2.0463 -1.1973  0.3002
   89SAPS  H17Y 8673   5.587   1.402   8.561 -1.2149  3.0619  1.2458
   89SAPS  C318 8674   5.694   1.535   8.425  0.3079 -0.2189 -0.4389
   89SAPS  H18X 8675   5.759   1.468   8.364  0.7144  0.2086 -0.4802
   89SAPS  H18Y 8676   5.763   1.564   8.508 -1.1595  1.3196  0.2726
   89SAPS  H18Z 8677   5.670   1.626   8.367 -0.9025 -0.0281  0.3594
   90SAPS     N 8678   0.188   0.484  10.951 -0.5928 -0.9302 -0.0143
   90SAPS   HN1 8679   0.127   0.451  10.873  0.3064  2.0610 -2.0789
   90SAPS   HN2 8680   0.161   0.473  11.050  1.1126  0.3111  0.6107
   90SAPS   HN3 8681   0.212   0.584  10.935  1.6385 -1.1921  1.4127
   90SAPS   C12 8682   0.318   0.416  10.952 -0.2810 -0.0379 -0.2174
   90SAPS  H12A 8683   0.380   0.449  11.034 -0.4863 -1.0958  0.3810
   90SAPS   C13 8684   0.304   0.262  10.955  0.5365 -0.4446 -0.2574
   90SAPS  O13A 8685   0.195   0.203  10.944 -0.2269 -0.4185  0.1995
   90SAPS  O13B 8686   0.411   0.195  10.961  0.5020  0.5167 -0.1744
   90SAPS   C11 8687   0.393   0.436  10.820  0.1768  0.1363  0.8462
   90SAPS  H11A 8688   0.327   0.404  10.737  0.7024 -1.0366  0.8642
   90SAPS  H11B 8689   0.482   0.371  10.808  0.7587  1.4535 -2.2764
   90SAPS     P 8690   0.571   0.637  10.779  0.4707  0.4342 -0.0590
   90SAPS   O13 8691   0.586   0.777  10.829 -0.2677 -0.0625  1.0133
   90SAPS   O14 8692   0.671   0.542  10.836  0.1927 -0.1376  0.1570
   90SAPS   O12 8693   0.423   0.576  10.806  0.4277  0.6185 -0.6366
   90SAPS   O11 8694   0.576   0.623  10.619  0.5765  0.1665  0.1336
   90SAPS    C1 8695   0.548   0.508  10.548 -0.1033  0.0290  0.3717
   90SAPS    HA 8696   0.625   0.493  10.470 -2.3315 -1.7929 -1.5784
   90SAPS    HB 8697   0.534   0.412  10.603  1.3603 -0.0659  0.5847
   90SAPS    C2 8698   0.402   0.523  10.485 -0.0649 -0.9617 -0.0513
   90SAPS    HS 8699   0.346   0.560  10.574  2.1983  0.5676  0.8095
   90SAPS   O21 8700   0.352   0.403  10.425  0.0307  0.0099  0.7200
   90SAPS   C21 8701   0.226   0.407  10.386 -1.0504  0.7365 -0.5583
   90SAPS   O22 8702   0.143   0.487  10.431 -0.1186  0.1082 -0.1063
   90SAPS   C22 8703   0.195   0.301  10.279  0.9878  0.0284 -0.4509
   90SAPS   H2R 8704   0.284   0.244  10.246  0.5520 -0.4475 -0.8306
   90SAPS   H2S 8705   0.119   0.223  10.303 -0.5163  0.9947 -1.8810
   90SAPS    C3 8706   0.406   0.642  10.383  0.8645 -0.0923 -0.0827
   90SAPS    HX 8707   0.437   0.723  10.451 -0.5418  0.0683  0.3825
   90SAPS    HY 8708   0.305   0.657  10.337  1.5715  1.4878 -1.1501
   90SAPS   O31 8709   0.507   0.629  10.279  0.0183  0.1948 -0.3656
   90SAPS   C31 8710   0.490   0.715  10.178  1.1453 -0.6863 -0.0100
   90SAPS   O32 8711   0.392   0.789  10.157 -0.3994 -0.1507  0.0011
   90SAPS   C32 8712   0.609   0.688  10.086  0.6495  0.0453 -0.1830
   90SAPS   H2X 8713   0.588   0.593  10.033  0.9751  0.2426 -0.6636
   90SAPS   H2Y 8714   0.692   0.683  10.161 -0.3004 -0.2342  0.8623
   90SAPS   C23 8715   0.135   0.370  10.153 -0.1598 -0.2054 -0.4851
   90SAPS   H3R 8716   0.043   0.420  10.191 -0.2380 -1.1765  0.6289
   90SAPS   H3S 8717   0.099   0.289  10.086  0.0646 -0.0340 -0.8124
   90SAPS   C24 8718   0.225   0.465  10.067  0.1382 -0.2702 -0.0588
   90SAPS   H4R 8719   0.236   0.562  10.121  0.4624  0.1915 -0.9479
   90SAPS   H4S 8720   0.158   0.495   9.985  0.6968  1.2297  0.0185
   90SAPS   C25 8721   0.362   0.422  10.023 -0.1763 -0.0249 -0.5592
   90SAPS   H5R 8722   0.432   0.395  10.103 -3.2540 -0.0823  2.2038
   90SAPS   C26 8723   0.405   0.415   9.894 -0.6148  0.1751 -0.1737
   90SAPS   H6R 8724   0.511   0.388   9.880  0.1628  2.9706  0.0201
   90SAPS   C27 8725   0.333   0.452   9.764 -0.2294  0.0830 -0.1463
   90SAPS   H7R 8726   0.226   0.440   9.790 -0.2914 -1.4334 -1.0368
   90SAPS   H7S 8727   0.349   0.382   9.679 -3.1841 -1.0835  0.2139
   90SAPS   C28 8728   0.362   0.599   9.730  0.5573 -0.1354 -0.3177
   90SAPS   H8R 8729   0.308   0.675   9.789 -1.2412 -1.4870 -0.1694
   90SAPS   C29 8730   0.423   0.646   9.621  0.4898 -0.3499  0.3048
   90SAPS   H9R 8731   0.439   0.753   9.606  1.5898 -0.6179 -0.5405
   90SAPS  C210 8732   0.497   0.560   9.518 -0.2413  0.7213 -0.1520
   90SAPS  H10R 8733   0.432   0.542   9.430 -1.6518  0.1742  0.9732
   90SAPS  H10S 8734   0.509   0.461   9.566  1.8701  1.1829  0.3249
   90SAPS  C211 8735   0.637   0.620   9.484 -0.1279  0.5956 -0.3110
   90SAPS  H11R 8736   0.679   0.695   9.552 -0.8290  1.4033 -0.7533
   90SAPS  C212 8737   0.721   0.579   9.387 -0.5131  0.8378 -0.7103
   90SAPS  H12R 8738   0.819   0.628   9.385  0.4762 -1.0494 -0.0462
   90SAPS  C213 8739   0.710   0.475   9.288  0.3248 -0.5241 -0.2060
   90SAPS  H13R 8740   0.689   0.385   9.350  0.1428  1.5477  2.8578
   90SAPS  H13S 8741   0.808   0.446   9.243  1.1702  0.8891  0.6809
   90SAPS  C214 8742   0.603   0.494   9.185 -0.5086 -0.1831  0.0307
   90SAPS  H14R 8743   0.502   0.524   9.217 -0.2826  0.2000  0.3877
   90SAPS  C215 8744   0.616   0.462   9.052  0.5083 -0.7153 -0.2302
   90SAPS  H15R 8745   0.529   0.484   8.989  1.1704  0.9387 -0.5866
   90SAPS  C216 8746   0.736   0.405   8.976  0.2490  0.5952  0.3991
   90SAPS  H16R 8747   0.830   0.442   9.023  0.8854 -0.6149  0.1109
   90SAPS  H16S 8748   0.731   0.451   8.875 -0.7370 -2.3404 -0.9511
   90SAPS  C217 8749   0.739   0.244   8.982  0.0878  0.0599 -0.2860
   90SAPS  H17R 8750   0.797   0.209   9.070  2.6491 -1.0334 -2.3390
   90SAPS  H17S 8751   0.798   0.212   8.893  0.0926 -0.1978 -0.1902
   90SAPS  C218 8752   0.605   0.180   8.972  0.4805  0.1180 -0.4656
   90SAPS  H18R 8753   0.542   0.217   9.056 -0.7533 -3.7792  0.4206
   90SAPS  H18S 8754   0.607   0.071   8.993  2.0874  0.1005 -0.6471
   90SAPS  C219 8755   0.546   0.191   8.831  0.1542 -0.2335  0.0209
   90SAPS  H19R 8756   0.600   0.114   8.770  0.3312  0.9287 -1.3094
   90SAPS  H19S 8757   0.581   0.289   8.791  1.5391 -0.1673  1.3561
   90SAPS  C220 8758   0.395   0.181   8.827 -0.7683  0.8185 -0.3200
   90SAPS  H20R 8759   0.365   0.280   8.868 -1.3277 -0.1217  1.5649
   90SAPS  H20S 8760   0.362   0.095   8.889  4.2343 -0.0400  1.3348
   90SAPS  H20T 8761   0.360   0.177   8.721 -1.5035 -2.0534 -0.0190
   90SAPS   C33 8762   0.650   0.810   9.991  0.5323  0.1716 -0.0156
   90SAPS   H3X 8763   0.684   0.893  10.056 -0.9975  0.8486 -0.0376
   90SAPS   H3Y 8764   0.562   0.832   9.927  0.8175  0.2524 -0.3742
   90SAPS   C34 8765   0.772   0.777   9.905  0.0985 -0.3714  0.3703
   90SAPS   H4X 8766   0.863   0.784   9.968  1.0332 -1.0009 -0.8855
   90SAPS   H4Y 8767   0.777   0.860   9.831 -1.7601 -1.2675 -0.8097
   90SAPS   C35 8768   0.775   0.638   9.827  0.0374 -0.0901  0.1892
   90SAPS   H5X 8769   0.678   0.633   9.772 -0.0874  1.5179  0.2587
   90SAPS   H5Y 8770   0.767   0.551   9.896 -0.3493  0.9303  1.4405
   90SAPS   C36 8771   0.902   0.624   9.749  0.1207 -0.2155 -0.2093
   90SAPS   H6X 8772   0.989   0.647   9.815 -1.4876 -0.2530  1.9775
   90SAPS   H6Y 8773   0.895   0.689   9.660 -1.2620 -1.4091 -0.9976
   90SAPS   C37 8774   0.917   0.478   9.697  0.0168 -0.4658 -0.2472
   90SAPS   H7X 8775   0.812   0.457   9.670  0.1964 -1.7031 -0.0089
   90SAPS   H7Y 8776   0.947   0.413   9.782  3.2211  0.8554 -0.2698
   90SAPS   C38 8777   1.000   0.466   9.576  0.2876 -0.3299 -0.0281
   90SAPS   H8X 8778   1.099   0.514   9.592  1.5530 -2.5043 -1.1452
   90SAPS   H8Y 8779   0.958   0.519   9.488  1.0249 -0.2919 -0.3634
   90SAPS   C39 8780   1.022   0.323   9.534 -0.7234  0.4057  0.1357
   90SAPS   H9X 8781   0.929   0.267   9.555 -1.1579  1.6293  1.5961
   90SAPS   H9Y 8782   1.108   0.276   9.587  0.9307  2.5869 -0.5161
   90SAPS  C310 8783   1.054   0.312   9.380  0.1753  0.7215  0.1552
   90SAPS  H10X 8784   1.119   0.400   9.360  1.5567 -0.2043  0.5739
   90SAPS  H10Y 8785   0.966   0.315   9.312 -0.2775  0.2744  0.7100
   90SAPS  C311 8786   1.114   0.183   9.344 -0.3137  0.2526 -0.1669
   90SAPS  H11X 8787   1.064   0.108   9.409 -1.3132 -0.5409 -1.8425
   90SAPS  H11Y 8788   1.217   0.177   9.386 -0.1778  1.1069 -0.3650
   90SAPS  C312 8789   1.110   0.151   9.194  0.9159  0.3535 -0.5129
   90SAPS  H12X 8790   1.007   0.139   9.153  1.1105  0.7107 -1.1225
   90SAPS  H12Y 8791   1.150   0.050   9.170 -3.1043 -1.2168 -0.9851
   90SAPS  C313 8792   1.171   0.262   9.107 -0.3026  0.0856  0.1179
   90SAPS  H13X 8793   1.273   0.284   9.146  1.4551 -0.9913 -3.5787
   90SAPS  H13Y 8794   1.115   0.357   9.113  0.2382  0.6085 -2.3345
   90SAPS  C314 8795   1.176   0.222   8.961  0.5576  0.2717  0.0012
   90SAPS  H14X 8796   1.074   0.227   8.916  0.4139  0.4743  0.3435
   90SAPS  H14Y 8797   1.222   0.121   8.964 -1.9891 -0.9775 -1.4204
   90SAPS  C315 8798   1.259   0.313   8.867 -0.7235  0.7064  0.2560
   90SAPS  H15X 8799   1.274   0.265   8.769  1.9394  1.1709  0.3939
   90SAPS  H15Y 8800   1.363   0.327   8.904 -0.4439 -0.8684  0.0950
   90SAPS  C316 8801   1.196   0.447   8.842  0.0123 -0.4297 -0.7199
   90SAPS  H16X 8802   1.201   0.511   8.933  0.8760 -0.5992 -0.6414
   90SAPS  H16Y 8803   1.094   0.424   8.804 -0.1550  0.6196 -0.9290
   90SAPS  C317 8804   1.258   0.525   8.727  0.7002  0.1338 -0.1231
   90SAPS  H17X 8805   1.359   0.547   8.769  2.0614 -3.2047 -1.4461
   90SAPS  H17Y 8806   1.196   0.615   8.709 -0.8840 -0.8624  0.2744
   90SAPS  C318 8807   1.277   0.448   8.596 -0.7925  0.0603 -0.9654
   90SAPS  H18X 8808   1.181   0.403   8.561  0.7118 -2.7094 -1.6872
   90SAPS  H18Y 8809   1.342   0.359   8.609 -1.2430  0.0709  1.6364
   90SAPS  H18Z 8810   1.327   0.519   8.526 -1.6356  2.0288  0.3865
   91SAPS     N 8811   4.399   5.314   6.021 -0.0075 -0.2424 -0.1688
   91SAPS   HN1 8812   4.377   5.326   6.122 -2.5223 -0.0356 -0.7006
   91SAPS   HN2 8813   4.386   5.412   5.990  1.2981  0.0366  0.1391
   91SAPS   HN3 8814   4.338   5.248   5.969 -1.2149  1.3195 -0.7853
   91SAPS   C12 8815   4.536   5.272   6.009  0.2099 -0.0143  0.5068
   91SAPS  H12A 8816   4.542   5.170   6.042  2.8621  0.2117  0.8270
   91SAPS   C13 8817   4.586   5.284   5.862  0.1020  0.0809 -0.1962
   91SAPS  O13A 8818   4.519   5.336   5.769 -0.7719 -0.0614 -0.4542
   91SAPS  O13B 8819   4.699   5.227   5.841 -0.2216 -0.3725  0.4937
   91SAPS   C11 8820   4.634   5.362   6.094 -0.5831 -0.0877 -0.0009
   91SAPS  H11A 8821   4.735   5.322   6.071 -0.1385  0.8155  0.3580
   91SAPS  H11B 8822   4.606   5.331   6.197  1.8087 -0.5258  0.5398
   91SAPS     P 8823   4.736   5.599   6.118 -0.3155  0.4193  0.4912
   91SAPS   O13 8824   4.865   5.528   6.099  0.5215  0.4287  0.2117
   91SAPS   O14 8825   4.711   5.729   6.048 -0.5454 -0.2755  0.2613
   91SAPS   O12 8826   4.619   5.502   6.089 -0.0746 -0.3022 -0.0847
   91SAPS   O11 8827   4.737   5.631   6.274  0.0508  0.3677  0.1480
   91SAPS    C1 8828   4.628   5.584   6.355  1.1654  0.8605  0.0024
   91SAPS    HA 8829   4.527   5.604   6.314  1.4946  1.2232 -0.6264
   91SAPS    HB 8830   4.636   5.473   6.364 -1.1432  0.5161 -1.8064
   91SAPS    C2 8831   4.637   5.658   6.490 -0.3023 -0.2510  0.2422
   91SAPS    HS 8832   4.726   5.617   6.543 -1.5217 -2.7965  0.3609
   91SAPS   O21 8833   4.530   5.628   6.579 -0.2377  0.3930 -0.5100
   91SAPS   C21 8834   4.529   5.508   6.627 -0.6341  0.8165 -0.0089
   91SAPS   O22 8835   4.609   5.418   6.610  0.0593  0.0223 -0.0771
   91SAPS   C22 8836   4.412   5.492   6.727 -0.4561  0.0002  0.0851
   91SAPS   H2R 8837   4.355   5.587   6.730  0.3674  0.4546  2.0944
   91SAPS   H2S 8838   4.350   5.413   6.678  0.2074 -0.7207  0.3964
   91SAPS    C3 8839   4.650   5.814   6.479 -0.0878 -0.3635 -0.0936
   91SAPS    HX 8840   4.587   5.851   6.396 -0.1861 -0.4042 -0.0371
   91SAPS    HY 8841   4.751   5.845   6.445 -0.1873  1.0523  0.8972
   91SAPS   O31 8842   4.620   5.885   6.601 -0.2030  0.3459 -0.5769
   91SAPS   C31 8843   4.635   6.014   6.596 -0.6705  0.2807 -0.4266
   91SAPS   O32 8844   4.663   6.076   6.496 -0.2337 -0.2293 -0.0171
   91SAPS   C32 8845   4.631   6.081   6.731  0.0004 -0.2148  0.5358
   91SAPS   H2X 8846   4.546   6.153   6.730  1.1158  1.1397 -0.5498
   91SAPS   H2Y 8847   4.722   6.141   6.750  0.2937 -0.1910 -0.8532
   91SAPS   C23 8848   4.444   5.447   6.875 -0.8062  0.1302 -0.0511
   91SAPS   H3R 8849   4.353   5.472   6.934  0.4010 -0.6517  2.1916
   91SAPS   H3S 8850   4.519   5.517   6.918 -0.4214  0.4470 -1.2139
   91SAPS   C24 8851   4.495   5.307   6.895 -1.0962 -0.0256 -0.1375
   91SAPS   H4R 8852   4.534   5.289   6.997  0.3809  1.0707 -0.4948
   91SAPS   H4S 8853   4.572   5.284   6.818 -0.5876 -1.3752  0.7692
   91SAPS   C25 8854   4.369   5.217   6.888  0.5093 -0.5196  0.4487
   91SAPS   H5R 8855   4.353   5.183   6.785  0.3321 -0.0347  0.3134
   91SAPS   C26 8856   4.295   5.163   6.991 -0.3955  1.0596  0.5069
   91SAPS   H6R 8857   4.219   5.091   6.959  0.8106 -0.4548  1.0026
   91SAPS   C27 8858   4.320   5.202   7.132 -0.0054 -0.3140 -0.2030
   91SAPS   H7R 8859   4.301   5.308   7.157 -0.3936 -0.6414  0.8904
   91SAPS   H7S 8860   4.427   5.192   7.158  0.4427 -2.1261 -2.4719
   91SAPS   C28 8861   4.244   5.108   7.228 -0.1134  0.2174 -0.0303
   91SAPS   H8R 8862   4.161   5.052   7.181 -0.4148 -0.5654  1.4144
   91SAPS   C29 8863   4.269   5.087   7.360  0.0344  0.2450  0.0910
   91SAPS   H9R 8864   4.194   5.026   7.412  0.0425 -0.0776 -0.2759
   91SAPS  C210 8865   4.369   5.164   7.450 -0.4291  0.3672  1.0813
   91SAPS  H10R 8866   4.315   5.209   7.536 -1.2540 -1.9870  1.8222
   91SAPS  H10S 8867   4.410   5.252   7.396  1.2351 -0.5724  0.7584
   91SAPS  C211 8868   4.477   5.072   7.497 -0.7632 -0.6534 -0.3533
   91SAPS  H11R 8869   4.519   4.988   7.439 -1.5330 -0.3826 -1.3140
   91SAPS  C212 8870   4.546   5.088   7.616  0.0662 -0.3265 -0.2875
   91SAPS  H12R 8871   4.618   5.013   7.653 -0.6960 -0.5425  0.7948
   91SAPS  C213 8872   4.519   5.190   7.727 -0.5093  0.2446  0.2530
   91SAPS  H13R 8873   4.475   5.287   7.696  0.8142  1.3908  1.8999
   91SAPS  H13S 8874   4.607   5.218   7.790  0.0227 -0.9129  0.0419
   91SAPS  C214 8875   4.417   5.126   7.817  0.6522  0.0734  0.3285
   91SAPS  H14R 8876   4.315   5.158   7.792  1.2171 -0.1638 -2.5363
   91SAPS  C215 8877   4.433   5.038   7.914  0.5700 -0.0829  0.1125
   91SAPS  H15R 8878   4.348   4.998   7.972  0.8625  0.1858  0.7254
   91SAPS  C216 8879   4.568   4.979   7.941  0.4632  0.2203 -0.2990
   91SAPS  H16R 8880   4.651   5.003   7.870  0.9803 -0.5601  0.0423
   91SAPS  H16S 8881   4.547   4.871   7.927  0.6804 -0.1370  2.0607
   91SAPS  C217 8882   4.621   4.976   8.088 -0.2165  0.4073 -0.2480
   91SAPS  H17R 8883   4.657   5.075   8.122 -0.0004  0.9664 -2.0341
   91SAPS  H17S 8884   4.710   4.909   8.086  0.7494  1.6782  0.0605
   91SAPS  C218 8885   4.516   4.914   8.181  0.7468 -0.4437 -0.3249
   91SAPS  H18R 8886   4.468   4.829   8.129 -0.2043  0.5311 -1.0748
   91SAPS  H18S 8887   4.437   4.991   8.190  1.9093  0.9391 -1.5608
   91SAPS  C219 8888   4.586   4.875   8.317  0.4839 -0.4786 -0.3142
   91SAPS  H19R 8889   4.503   4.853   8.388 -0.3059  0.4936 -0.9319
   91SAPS  H19S 8890   4.634   4.966   8.358 -1.6670  0.4295  0.2222
   91SAPS  C220 8891   4.684   4.758   8.315  0.4407  0.0036  0.5767
   91SAPS  H20R 8892   4.691   4.726   8.421 -0.4076  0.0847  0.6664
   91SAPS  H20S 8893   4.782   4.795   8.277  1.7759 -0.3817  3.5503
   91SAPS  H20T 8894   4.656   4.672   8.250  0.8937  0.0244  0.3508
   91SAPS   C33 8895   4.604   5.983   6.850 -0.3364 -0.3327  0.0366
   91SAPS   H3X 8896   4.672   5.896   6.851 -0.0130 -0.0807 -0.1705
   91SAPS   H3Y 8897   4.505   5.941   6.823 -0.7861  0.1007  0.9766
   91SAPS   C34 8898   4.609   6.052   6.990 -1.0679 -0.3958  0.0599
   91SAPS   H4X 8899   4.559   6.151   6.995 -0.1001  0.2035 -1.6262
   91SAPS   H4Y 8900   4.713   6.080   7.015 -1.5258  2.5159 -1.1155
   91SAPS   C35 8901   4.557   5.972   7.110 -0.9399  0.1548  0.3207
   91SAPS   H5X 8902   4.611   5.875   7.118  1.1099  1.2361  0.0933
   91SAPS   H5Y 8903   4.448   5.951   7.104 -0.9141  0.0400  0.2494
   91SAPS   C36 8904   4.575   6.064   7.232 -0.4247 -0.2798 -0.8560
   91SAPS   H6X 8905   4.513   6.155   7.222 -0.7230 -0.1364  1.7834
   91SAPS   H6Y 8906   4.678   6.102   7.223  0.3988 -2.0230  0.8092
   91SAPS   C37 8907   4.550   5.982   7.360  1.0531 -0.4492 -0.1216
   91SAPS   H7X 8908   4.647   5.964   7.410  2.3203  1.6503 -1.7447
   91SAPS   H7Y 8909   4.487   5.892   7.343 -1.3102  1.4904 -2.2363
   91SAPS   C38 8910   4.479   6.077   7.460  0.1155  0.0436  0.4586
   91SAPS   H8X 8911   4.376   6.087   7.419  0.7173  0.2791 -1.0132
   91SAPS   H8Y 8912   4.534   6.173   7.456  1.3238 -0.6625 -0.6046
   91SAPS   C39 8913   4.479   6.022   7.608  0.1369  0.7544  0.6213
   91SAPS   H9X 8914   4.582   5.983   7.621 -0.2831 -0.7591 -0.4514
   91SAPS   H9Y 8915   4.406   5.939   7.612  1.0487 -0.0658  0.3474
   91SAPS  C310 8916   4.455   6.133   7.713 -0.6172 -0.1842 -0.0336
   91SAPS  H10X 8917   4.345   6.145   7.704 -0.8274 -3.1541 -2.2003
   91SAPS  H10Y 8918   4.518   6.216   7.674 -0.5065 -0.1120  0.3020
   91SAPS  C311 8919   4.490   6.098   7.861  0.5556 -0.5650 -0.1653
   91SAPS  H11X 8920   4.413   6.021   7.885  0.2723 -0.2329  0.0014
   91SAPS  H11Y 8921   4.464   6.188   7.921 -1.3643  0.8689 -2.9922
   91SAPS  C312 8922   4.623   6.049   7.895 -0.2334  0.5274  0.4182
   91SAPS  H12X 8923   4.693   6.122   7.850 -0.9560 -1.5828 -4.4245
   91SAPS  H12Y 8924   4.648   5.954   7.844  1.1994  0.4337  1.2841
   91SAPS  C313 8925   4.651   6.030   8.042  0.4194  0.1615  0.0622
   91SAPS  H13X 8926   4.596   6.106   8.101  0.2150  1.2715 -1.5343
   91SAPS  H13Y 8927   4.760   6.041   8.061  0.5493  0.4347 -0.8346
   91SAPS  C314 8928   4.602   5.895   8.089  0.4581 -0.5747 -0.6175
   91SAPS  H14X 8929   4.656   5.807   8.047 -1.8582 -2.6090  0.5093
   91SAPS  H14Y 8930   4.495   5.890   8.062  0.3087  0.2723 -0.1864
   91SAPS  C315 8931   4.603   5.879   8.240  0.2026 -0.1869 -0.0227
   91SAPS  H15X 8932   4.538   5.792   8.264  0.7628 -0.4384  0.5992
   91SAPS  H15Y 8933   4.548   5.966   8.283  2.9520  2.3076 -1.3623
   91SAPS  C316 8934   4.732   5.866   8.308  0.1982  0.4319  0.2271
   91SAPS  H16X 8935   4.799   5.948   8.277  0.4499  0.8575  1.8389
   91SAPS  H16Y 8936   4.790   5.774   8.281 -0.7143 -0.3563  0.9229
   91SAPS  C317 8937   4.737   5.863   8.460 -0.5406  0.2349  0.4145
   91SAPS  H17X 8938   4.671   5.786   8.506  0.4278  0.0245  1.4631
   91SAPS  H17Y 8939   4.695   5.960   8.494  0.2742  0.1894  1.5805
   91SAPS  C318 8940   4.872   5.842   8.518  0.5973  0.0224 -0.0849
   91SAPS  H18X 8941   4.920   5.748   8.483 -0.3307 -0.6945  0.5598
   91SAPS  H18Y 8942   4.864   5.843   8.628 -2.5923  1.2274 -0.2774
   91SAPS  H18Z 8943   4.939   5.927   8.495  0.4618  0.3313  0.6587
   92SAPS     N 8944   4.281   3.287   6.495  0.0490  0.0454  0.0067
   92SAPS   HN1 8945   4.248   3.202   6.546  0.7449  1.1804  2.4113
   92SAPS   HN2 8946   4.383   3.294   6.509 -0.0331 -0.4967  0.8811
   92SAPS   HN3 8947   4.238   3.369   6.542 -2.3925 -0.5410 -1.1184
   92SAPS   C12 8948   4.245   3.281   6.352  0.0009 -0.1091  0.2241
   92SAPS  H12A 8949   4.290   3.370   6.312  0.5706 -0.4421  0.1307
   92SAPS   C13 8950   4.296   3.159   6.270  0.7944 -0.2637  0.2678
   92SAPS  O13A 8951   4.341   3.057   6.325 -0.0374  0.0752  0.3271
   92SAPS  O13B 8952   4.267   3.159   6.147 -0.1735 -0.4532 -0.3398
   92SAPS   C11 8953   4.085   3.274   6.344  0.0861 -0.7958 -0.6965
   92SAPS  H11A 8954   4.053   3.172   6.371  0.3617 -0.2929  1.6228
   92SAPS  H11B 8955   4.060   3.301   6.239 -1.0354  3.1890  0.5113
   92SAPS     P 8956   3.965   3.499   6.402  0.1615 -0.0705 -0.5343
   92SAPS   O13 8957   4.065   3.595   6.349 -0.2285 -0.0358  0.3017
   92SAPS   O14 8958   3.851   3.476   6.311  0.3834  0.1448  0.4372
   92SAPS   O12 8959   4.021   3.358   6.444 -0.6081  0.0201 -0.6268
   92SAPS   O11 8960   3.896   3.554   6.535 -0.1152  0.0865  1.0259
   92SAPS    C1 8961   3.962   3.557   6.661  0.9671  0.8893 -0.1206
   92SAPS    HA 8962   4.073   3.549   6.664  0.7700 -2.5839 -0.2223
   92SAPS    HB 8963   3.937   3.652   6.713  4.3155  1.6271  0.2509
   92SAPS    C2 8964   3.909   3.442   6.740  0.1246 -0.5651  0.4761
   92SAPS    HS 8965   3.944   3.353   6.685 -0.9514 -0.0764 -1.0303
   92SAPS   O21 8966   3.766   3.470   6.750 -1.1912 -0.2622  0.3738
   92SAPS   C21 8967   3.694   3.362   6.775  0.8886  0.2342  0.2484
   92SAPS   O22 8968   3.736   3.244   6.771  0.2348  0.7370 -0.3232
   92SAPS   C22 8969   3.552   3.415   6.811 -0.3128  0.0687  0.0201
   92SAPS   H2R 8970   3.577   3.503   6.874 -1.4399  0.3309  0.1139
   92SAPS   H2S 8971   3.503   3.456   6.721 -0.2282 -0.3481 -0.2145
   92SAPS    C3 8972   3.973   3.438   6.881 -0.1706 -0.0412  0.2776
   92SAPS    HX 8973   3.916   3.366   6.944 -1.9462  0.6311 -0.5026
   92SAPS    HY 8974   3.946   3.535   6.928 -0.3220 -1.1429  2.5385
   92SAPS   O31 8975   4.112   3.404   6.873  0.3945  0.7928  0.0814
   92SAPS   C31 8976   4.159   3.357   6.989  0.3341 -0.5221 -0.7701
   92SAPS   O32 8977   4.104   3.384   7.095  0.2513  0.3433  0.3108
   92SAPS   C32 8978   4.291   3.287   6.970  0.2456 -0.2701  0.1793
   92SAPS   H2X 8979   4.328   3.300   6.866 -0.9763 -0.4057 -0.2923
   92SAPS   H2Y 8980   4.265   3.179   6.963 -0.1154 -0.0798 -1.7191
   92SAPS   C23 8981   3.462   3.315   6.888  0.0621 -0.5473  0.7043
   92SAPS   H3R 8982   3.444   3.222   6.831  0.2555  1.9685 -3.6640
   92SAPS   H3S 8983   3.362   3.365   6.887  0.2398 -0.1413  2.4456
   92SAPS   C24 8984   3.489   3.291   7.036  0.1043 -0.1956 -0.5160
   92SAPS   H4R 8985   3.395   3.241   7.068 -1.1949  1.9820 -0.8279
   92SAPS   H4S 8986   3.496   3.392   7.080  1.6034 -0.6433  0.3069
   92SAPS   C25 8987   3.607   3.207   7.073 -0.3585 -0.3585  0.3640
   92SAPS   H5R 8988   3.634   3.139   6.991 -0.4222 -2.2662  1.8896
   92SAPS   C26 8989   3.693   3.208   7.177 -0.5489 -0.5110 -0.2083
   92SAPS   H6R 8990   3.778   3.139   7.181  1.5225  1.9119 -1.0997
   92SAPS   C27 8991   3.678   3.299   7.298 -0.1747 -0.0340 -0.6484
   92SAPS   H7R 8992   3.633   3.237   7.378 -0.8386 -0.1561 -1.1136
   92SAPS   H7S 8993   3.613   3.386   7.272 -0.0154 -0.0421 -1.0680
   92SAPS   C28 8994   3.818   3.347   7.338 -0.3500 -0.1114 -0.3834
   92SAPS   H8R 8995   3.903   3.319   7.274 -1.6240 -1.4770 -1.5284
   92SAPS   C29 8996   3.844   3.424   7.446  0.1297 -0.3414 -0.6153
   92SAPS   H9R 8997   3.950   3.443   7.465  0.3300  0.7501 -2.6392
   92SAPS  C210 8998   3.748   3.466   7.548 -0.4871  0.2400 -0.0882
   92SAPS  H10R 8999   3.718   3.383   7.616 -0.9598  0.2973 -0.2285
   92SAPS  H10S 9000   3.651   3.488   7.498 -1.0643  0.9777  1.3140
   92SAPS  C211 9001   3.801   3.592   7.619 -0.2958  0.0613 -0.1622
   92SAPS  H11R 9002   3.789   3.684   7.559  1.7492  0.5972  0.2362
   92SAPS  C212 9003   3.868   3.592   7.736  0.1471  0.1203  0.4567
   92SAPS  H12R 9004   3.896   3.685   7.786  0.5269  0.4826 -0.4217
   92SAPS  C213 9005   3.901   3.463   7.811 -0.4263  0.1247  0.1540
   92SAPS  H13R 9006   3.916   3.378   7.742  1.1103  1.0224 -0.6582
   92SAPS  H13S 9007   3.811   3.441   7.872 -1.3147  0.8197 -0.8903
   92SAPS  C214 9008   4.012   3.454   7.920  0.6164 -0.0290 -0.5669
   92SAPS  H14R 9009   4.111   3.434   7.876  0.0109  1.7808 -2.8594
   92SAPS  C215 9010   4.007   3.472   8.049  0.2831  0.0676 -0.8002
   92SAPS  H15R 9011   4.106   3.463   8.098 -1.2295  0.0122  2.4000
   92SAPS  C216 9012   3.893   3.518   8.143  0.6157 -0.3599  0.3492
   92SAPS  H16R 9013   3.825   3.570   8.073  2.7087  1.8014 -0.1282
   92SAPS  H16S 9014   3.928   3.599   8.210 -0.8256 -0.3740  1.1404
   92SAPS  C217 9015   3.824   3.407   8.217  0.2185  0.4407 -0.0454
   92SAPS  H17R 9016   3.900   3.345   8.268  1.1408 -0.1971 -2.1284
   92SAPS  H17S 9017   3.781   3.337   8.143 -1.1664  2.8815 -1.6449
   92SAPS  C218 9018   3.716   3.455   8.308 -0.1170 -0.0490  0.6830
   92SAPS  H18R 9019   3.629   3.495   8.252  0.9313 -0.9742 -1.6571
   92SAPS  H18S 9020   3.753   3.547   8.358 -2.0053  1.0096  0.1625
   92SAPS  C219 9021   3.652   3.361   8.412  0.0690  0.5187 -0.3025
   92SAPS  H19R 9022   3.587   3.286   8.362  1.0242 -0.8002  0.3888
   92SAPS  H19S 9023   3.575   3.416   8.470 -0.7351 -1.2706  0.3656
   92SAPS  C220 9024   3.760   3.294   8.507  0.1896 -1.4143  0.5142
   92SAPS  H20R 9025   3.839   3.236   8.455  0.1259 -1.3074  0.2961
   92SAPS  H20S 9026   3.705   3.232   8.581 -0.2968  1.5427  2.7485
   92SAPS  H20T 9027   3.814   3.366   8.572 -1.6116  2.3164 -1.9651
   92SAPS   C33 9028   4.404   3.311   7.073 -0.1334 -0.4503 -0.1795
   92SAPS   H3X 9029   4.361   3.287   7.173 -0.1716 -1.5567 -0.4624
   92SAPS   H3Y 9030   4.426   3.418   7.096 -1.0065 -0.3027 -0.0004
   92SAPS   C34 9031   4.537   3.241   7.051  0.4112  0.1826  0.1807
   92SAPS   H4X 9032   4.582   3.281   6.958  0.7533  1.6134  0.9535
   92SAPS   H4Y 9033   4.509   3.134   7.035 -0.7241  0.7565 -1.7316
   92SAPS   C35 9034   4.640   3.255   7.169 -0.0564 -0.5354  0.4559
   92SAPS   H5X 9035   4.680   3.358   7.157 -0.5925 -0.6310 -2.5169
   92SAPS   H5Y 9036   4.728   3.193   7.144 -1.5393 -2.8375  0.7526
   92SAPS   C36 9037   4.591   3.223   7.307  0.0999  0.0077 -0.3855
   92SAPS   H6X 9038   4.538   3.127   7.290 -0.1517  0.2519 -1.0116
   92SAPS   H6Y 9039   4.523   3.304   7.342 -1.1733 -1.0106 -0.4558
   92SAPS   C37 9040   4.698   3.209   7.416 -0.4683 -0.5162  0.0248
   92SAPS   H7X 9041   4.746   3.308   7.433 -1.1109 -0.2553  0.3548
   92SAPS   H7Y 9042   4.762   3.120   7.396 -2.4752 -1.5331 -2.1664
   92SAPS   C38 9043   4.622   3.175   7.544  0.5419 -0.0872 -0.3735
   92SAPS   H8X 9044   4.566   3.079   7.546  1.4992 -0.6661 -0.8797
   92SAPS   H8Y 9045   4.547   3.249   7.577 -0.2320 -0.1215 -2.0159
   92SAPS   C39 9046   4.733   3.174   7.652  0.0705 -0.5547  0.0268
   92SAPS   H9X 9047   4.775   3.276   7.654 -0.2400 -0.2917 -3.4290
   92SAPS   H9Y 9048   4.816   3.114   7.608 -0.7958 -1.4460 -0.4189
   92SAPS  C310 9049   4.683   3.125   7.793  0.0214 -0.8305 -0.1893
   92SAPS  H10X 9050   4.608   3.045   7.779  0.4372 -1.4602  1.1474
   92SAPS  H10Y 9051   4.624   3.210   7.835 -0.3141  0.7668 -3.6987
   92SAPS  C311 9052   4.799   3.087   7.890 -0.7613  0.5425  0.9052
   92SAPS  H11X 9053   4.867   3.174   7.897  1.1392 -0.6185 -2.0730
   92SAPS  H11Y 9054   4.843   2.992   7.853 -0.5886  0.3160  1.6834
   92SAPS  C312 9055   4.741   3.057   8.031  0.5121 -0.1763 -0.1067
   92SAPS  H12X 9056   4.685   2.961   8.040  1.0467 -0.4282  0.6044
   92SAPS  H12Y 9057   4.677   3.144   8.055  0.6777  0.1716 -0.9079
   92SAPS  C313 9058   4.852   3.061   8.137 -0.1382  0.0417 -0.7953
   92SAPS  H13X 9059   4.910   3.155   8.124 -1.0770  0.7471  0.0656
   92SAPS  H13Y 9060   4.927   2.979   8.133  2.2077  2.1331 -0.7199
   92SAPS  C314 9061   4.791   3.069   8.278 -0.5949 -0.0250 -0.1794
   92SAPS  H14X 9062   4.736   2.974   8.296  1.5052 -1.1495  0.4431
   92SAPS  H14Y 9063   4.717   3.152   8.277 -3.1490 -2.1382  1.7884
   92SAPS  C315 9064   4.889   3.092   8.401  0.4634 -0.1735 -0.0851
   92SAPS  H15X 9065   4.964   3.169   8.372  1.9676 -1.6920 -0.2960
   92SAPS  H15Y 9066   4.940   2.995   8.419  0.4070 -0.0685  0.6637
   92SAPS  C316 9067   4.824   3.145   8.532 -0.4992  0.8634 -0.6961
   92SAPS  H16X 9068   4.738   3.075   8.541 -0.4259  1.0771  2.1680
   92SAPS  H16Y 9069   4.796   3.250   8.510 -0.3934  0.7262 -1.4879
   92SAPS  C317 9070   4.905   3.142   8.664 -0.1190 -0.3847 -0.6664
   92SAPS  H17X 9071   4.909   3.038   8.702 -0.6044  0.0440  0.6023
   92SAPS  H17Y 9072   4.859   3.205   8.743  1.5634 -0.0370  0.0692
   92SAPS  C318 9073   5.043   3.214   8.648  0.1252 -0.0517  0.8193
   92SAPS  H18X 9074   5.099   3.197   8.742 -0.4493 -0.9289  1.0153
   92SAPS  H18Y 9075   5.032   3.322   8.625 -1.0198 -0.6752 -1.7795
   92SAPS  H18Z 9076   5.092   3.167   8.560 -0.7566 -0.0099  0.3023
   93SAPS     N 9077   4.554   3.656   6.033  0.0033  0.1697 -0.3785
   93SAPS   HN1 9078   4.468   3.597   6.028 -0.2358  0.1572  2.9210
   93SAPS   HN2 9079   4.555   3.717   6.118 -0.3712  1.0325 -0.9837
   93SAPS   HN3 9080   4.559   3.710   5.944  0.8292 -0.2642 -0.5953
   93SAPS   C12 9081   4.679   3.580   6.042 -0.0942 -0.3026  0.1918
   93SAPS  H12A 9082   4.667   3.475   6.019 -0.7538 -0.4578  1.2189
   93SAPS   C13 9083   4.783   3.632   5.938  1.0028  0.2901  1.0541
   93SAPS  O13A 9084   4.762   3.736   5.872  0.0029 -0.0447 -0.5860
   93SAPS  O13B 9085   4.901   3.575   5.934  0.3389 -0.5688  0.0117
   93SAPS   C11 9086   4.725   3.592   6.186  0.3529  0.1481 -0.1226
   93SAPS  H11A 9087   4.738   3.698   6.216 -3.0657  0.4059  0.6205
   93SAPS  H11B 9088   4.828   3.552   6.195 -0.2122 -0.7363  3.1765
   93SAPS     P 9089   4.662   3.421   6.391  0.4037 -0.1239 -0.2526
   93SAPS   O13 9090   4.533   3.410   6.471 -0.1621  0.2493 -0.1465
   93SAPS   O14 9091   4.713   3.292   6.333  0.5165 -0.2357  0.3027
   93SAPS   O12 9092   4.642   3.521   6.281  0.3181  0.1667  0.0935
   93SAPS   O11 9093   4.776   3.487   6.488  0.1083  0.1912 -0.3189
   93SAPS    C1 9094   4.747   3.570   6.598 -0.7641 -0.4088 -0.2154
   93SAPS    HA 9095   4.816   3.657   6.601 -1.2300  0.0132 -1.2823
   93SAPS    HB 9096   4.642   3.607   6.598 -0.3960  0.6948  0.8985
   93SAPS    C2 9097   4.770   3.482   6.723 -0.5732  0.4159 -0.2687
   93SAPS    HS 9098   4.711   3.387   6.720 -0.5396  0.3668  0.5522
   93SAPS   O21 9099   4.745   3.566   6.840 -0.6965  0.4742  0.2053
   93SAPS   C21 9100   4.612   3.592   6.860 -0.6641  0.1129  0.5526
   93SAPS   O22 9101   4.526   3.523   6.811  0.2325 -0.6733  0.2837
   93SAPS   C22 9102   4.578   3.707   6.950  0.5129  0.5317  0.2569
   93SAPS   H2R 9103   4.645   3.692   7.038  0.9714 -0.0145 -0.1833
   93SAPS   H2S 9104   4.604   3.803   6.900 -1.0374  0.2898 -1.0424
   93SAPS    C3 9105   4.923   3.441   6.729 -0.8692  0.1928  0.1872
   93SAPS    HX 9106   4.984   3.534   6.728 -2.2768  1.1501  0.9372
   93SAPS    HY 9107   4.940   3.385   6.635  3.0464  2.5440 -0.6039
   93SAPS   O31 9108   4.958   3.363   6.850  0.2470 -0.1486 -0.3342
   93SAPS   C31 9109   4.933   3.231   6.836 -0.1936 -0.2821  0.2727
   93SAPS   O32 9110   4.891   3.174   6.741 -0.0273 -0.1192  0.5136
   93SAPS   C32 9111   4.965   3.152   6.967  0.8179 -0.1996 -0.0062
   93SAPS   H2X 9112   5.021   3.061   6.937 -1.8783 -2.1360  0.6185
   93SAPS   H2Y 9113   4.874   3.114   7.018  0.4200 -0.4354 -0.8836
   93SAPS   C23 9114   4.426   3.723   6.972 -0.1672 -0.0582 -0.2187
   93SAPS   H3R 9115   4.401   3.777   7.066  0.3214 -1.6092  0.8327
   93SAPS   H3S 9116   4.365   3.632   6.989  0.8694 -0.1207  3.6978
   93SAPS   C24 9117   4.360   3.794   6.858  0.0854 -0.5074 -0.1212
   93SAPS   H4R 9118   4.395   3.748   6.762 -1.5178 -2.4935  0.2076
   93SAPS   H4S 9119   4.400   3.898   6.859  2.2819 -1.3092 -0.6413
   93SAPS   C25 9120   4.210   3.791   6.861  0.0859 -0.3325 -0.4863
   93SAPS   H5R 9121   4.171   3.692   6.834 -0.1114 -0.0594 -1.2224
   93SAPS   C26 9122   4.132   3.888   6.914 -0.7986 -0.0202 -0.1181
   93SAPS   H6R 9123   4.024   3.880   6.899 -0.7744 -1.5363  0.3803
   93SAPS   C27 9124   4.179   4.019   6.981 -0.1239 -0.3493  0.0956
   93SAPS   H7R 9125   4.290   4.013   6.990 -0.1938 -1.3012  0.3962
   93SAPS   H7S 9126   4.137   4.020   7.084  0.3455 -1.2458  0.3019
   93SAPS   C28 9127   4.142   4.144   6.902 -0.3547 -1.2364 -0.0186
   93SAPS   H8R 9128   4.165   4.134   6.795 -0.2061 -0.7215 -0.0361
   93SAPS   C29 9129   4.096   4.259   6.951  0.4356 -0.3472 -1.0416
   93SAPS   H9R 9130   4.074   4.340   6.881 -0.4168 -0.5292 -0.9909
   93SAPS  C210 9131   4.073   4.300   7.097  0.5126 -0.0452  0.3197
   93SAPS  H10R 9132   4.034   4.404   7.100 -0.6122 -0.4209 -0.8850
   93SAPS  H10S 9133   4.177   4.304   7.135  0.8918  0.5441 -0.7465
   93SAPS  C211 9134   3.967   4.223   7.170  0.0262 -0.5154  0.2128
   93SAPS  H11R 9135   3.884   4.186   7.108  0.1333 -0.5805  0.1078
   93SAPS  C212 9136   3.957   4.196   7.300  0.3091  0.5728 -0.4466
   93SAPS  H12R 9137   3.870   4.141   7.337  0.0203  0.3505 -1.4374
   93SAPS  C213 9138   4.059   4.236   7.401  0.2813  0.5193 -1.1345
   93SAPS  H13R 9139   4.004   4.269   7.492  1.2783 -1.9698  0.4146
   93SAPS  H13S 9140   4.127   4.312   7.357  2.4659 -0.1267  1.0319
   93SAPS  C214 9141   4.160   4.129   7.433  0.4207  0.2364 -0.3287
   93SAPS  H14R 9142   4.226   4.102   7.349 -1.0282 -0.6983 -1.1790
   93SAPS  C215 9143   4.196   4.072   7.554  1.2039 -0.2528 -0.1198
   93SAPS  H15R 9144   4.273   3.994   7.559  1.7353  0.2613 -0.2356
   93SAPS  C216 9145   4.134   4.127   7.684 -0.8706  0.5798 -0.9125
   93SAPS  H16R 9146   4.033   4.171   7.671 -1.0461  0.2906 -0.5313
   93SAPS  H16S 9147   4.205   4.206   7.719  0.5070 -0.8039 -0.5366
   93SAPS  C217 9148   4.112   4.018   7.791 -0.6520 -0.4794  1.1166
   93SAPS  H17R 9149   4.212   3.976   7.816 -0.0538 -1.5226 -2.7193
   93SAPS  H17S 9150   4.058   3.931   7.749  1.1298 -0.6068 -1.0301
   93SAPS  C218 9151   4.071   4.080   7.919 -0.2640  0.1282 -0.2204
   93SAPS  H18R 9152   3.966   4.114   7.905 -0.4137 -0.5923 -0.8246
   93SAPS  H18S 9153   4.140   4.165   7.939  1.4748 -0.9414 -1.5768
   93SAPS  C219 9154   4.085   3.976   8.034  0.5735  0.1287 -0.4594
   93SAPS  H19R 9155   4.061   4.025   8.131  1.3858  0.8748 -0.6294
   93SAPS  H19S 9156   4.192   3.954   8.052  0.8841  0.9455 -1.2688
   93SAPS  C220 9157   3.997   3.847   8.014  0.2818 -0.1817 -0.6158
   93SAPS  H20R 9158   4.038   3.786   7.932 -0.3871 -1.5060  0.0280
   93SAPS  H20S 9159   3.891   3.867   7.984 -0.1028 -1.0510  0.1424
   93SAPS  H20T 9160   3.992   3.789   8.108 -1.0004 -0.9295 -1.1345
   93SAPS   C33 9161   5.026   3.249   7.074 -0.3351  0.7439 -0.1082
   93SAPS   H3X 9162   4.959   3.336   7.084 -0.9411  0.2123  0.4570
   93SAPS   H3Y 9163   5.118   3.298   7.036  0.1537  1.4156  1.8872
   93SAPS   C34 9164   5.044   3.186   7.213  0.0661 -0.0580 -0.2852
   93SAPS   H4X 9165   5.133   3.120   7.220 -2.1403 -3.3504 -1.5828
   93SAPS   H4Y 9166   4.958   3.116   7.228  1.0154 -1.0342  0.6983
   93SAPS   C35 9167   5.042   3.285   7.331  0.4845  0.6954 -0.1420
   93SAPS   H5X 9168   4.947   3.342   7.340  0.2880  0.4304 -0.5388
   93SAPS   H5Y 9169   5.120   3.362   7.316 -1.4521  2.8272  0.3593
   93SAPS   C36 9170   5.075   3.213   7.454  0.4289 -0.8141 -0.1388
   93SAPS   H6X 9171   5.177   3.168   7.445  0.3791 -0.7840 -0.8749
   93SAPS   H6Y 9172   4.998   3.136   7.476  0.7206 -1.0987 -0.0999
   93SAPS   C37 9173   5.092   3.311   7.578  0.0051 -0.2709  0.7581
   93SAPS   H7X 9174   4.993   3.361   7.587 -0.8813 -1.6151 -1.1437
   93SAPS   H7Y 9175   5.167   3.387   7.551 -0.2191 -0.5899 -0.8177
   93SAPS   C38 9176   5.138   3.228   7.702 -0.0847 -0.6903  0.1923
   93SAPS   H8X 9177   5.224   3.166   7.670 -0.1159 -0.6159 -0.0360
   93SAPS   H8Y 9178   5.063   3.152   7.733 -1.7502 -1.1976 -4.6545
   93SAPS   C39 9179   5.186   3.324   7.813 -0.9694  0.8896  0.5506
   93SAPS   H9X 9180   5.127   3.418   7.807  0.5224  1.7771 -0.4976
   93SAPS   H9Y 9181   5.295   3.343   7.805 -0.7719 -0.1027  0.8247
   93SAPS  C310 9182   5.177   3.252   7.949  0.6695 -0.0466  0.2092
   93SAPS  H10X 9183   5.243   3.164   7.941 -0.1061 -0.9474  3.1207
   93SAPS  H10Y 9184   5.074   3.212   7.964 -0.3448  1.1932 -3.0199
   93SAPS  C311 9185   5.215   3.341   8.064  0.2054 -0.6372 -0.0976
   93SAPS  H11X 9186   5.124   3.402   8.086  0.5930  0.1734 -0.7170
   93SAPS  H11Y 9187   5.309   3.388   8.031  0.9991  0.2198  3.2491
   93SAPS  C312 9188   5.233   3.256   8.194  0.0459 -0.4288  0.3259
   93SAPS  H12X 9189   5.325   3.194   8.188 -0.0683 -0.6159  0.5256
   93SAPS  H12Y 9190   5.149   3.183   8.198 -1.6419  1.5755  2.5861
   93SAPS  C313 9191   5.219   3.342   8.328  0.0045  0.2587  0.0749
   93SAPS  H13X 9192   5.118   3.340   8.373  0.9075  1.2888  2.2001
   93SAPS  H13Y 9193   5.221   3.452   8.310  0.5842  0.1524 -0.5574
   93SAPS  C314 9194   5.322   3.299   8.431 -0.7170  0.1157 -0.2275
   93SAPS  H14X 9195   5.419   3.269   8.386 -1.1857 -0.8623 -0.5853
   93SAPS  H14Y 9196   5.279   3.212   8.485  0.1856 -0.0301  0.2730
   93SAPS  C315 9197   5.350   3.407   8.544 -0.1469 -0.2649 -0.8950
   93SAPS  H15X 9198   5.255   3.428   8.598  1.3714  0.4369  1.6264
   93SAPS  H15Y 9199   5.407   3.494   8.505 -1.1437 -0.0444 -1.8763
   93SAPS  C316 9200   5.451   3.368   8.656 -0.4896 -0.4233 -0.2043
   93SAPS  H16X 9201   5.546   3.365   8.599 -0.2470 -0.6955  0.2065
   93SAPS  H16Y 9202   5.431   3.266   8.697 -1.5883  0.6025  1.9202
   93SAPS  C317 9203   5.455   3.469   8.773 -0.8004  0.3873  0.2449
   93SAPS  H17X 9204   5.533   3.428   8.841 -0.7826 -1.2075 -0.7079
   93SAPS  H17Y 9205   5.364   3.494   8.832 -1.0326 -1.1288  0.5335
   93SAPS  C318 9206   5.513   3.605   8.739  0.2130 -0.3712  0.3513
   93SAPS  H18X 9207   5.540   3.657   8.833 -0.3944  0.8108 -0.1239
   93SAPS  H18Y 9208   5.436   3.658   8.679  2.1015 -0.3170 -2.0781
   93SAPS  H18Z 9209   5.605   3.583   8.682  0.4962 -0.4340  0.8369
   94SAPS     N 9210   4.981   5.387   5.878 -0.2601  0.5308  0.3112
   94SAPS   HN1 9211   4.945   5.308   5.820 -2.7986  0.2249  2.2565
   94SAPS   HN2 9212   5.057   5.354   5.941 -0.4716 -0.8545 -0.1272
   94SAPS   HN3 9213   4.916   5.455   5.921  2.3154  2.9647  0.5389
   94SAPS   C12 9214   5.061   5.471   5.783  0.2604  1.0149  0.7330
   94SAPS  H12A 9215   5.128   5.403   5.732  1.7729  2.8042  0.2511
   94SAPS   C13 9216   4.978   5.550   5.676  0.4381 -0.0159 -0.4335
   94SAPS  O13A 9217   4.854   5.565   5.687 -0.2902  1.0598 -0.8607
   94SAPS  O13B 9218   5.044   5.639   5.615 -0.4322  0.0548  0.6657
   94SAPS   C11 9219   5.132   5.572   5.870  0.0154  0.0358  0.3909
   94SAPS  H11A 9220   5.049   5.634   5.911 -0.4990  0.2817 -1.0164
   94SAPS  H11B 9221   5.187   5.643   5.804 -0.8920 -0.7955 -1.2534
   94SAPS     P 9222   5.313   5.594   6.056 -0.0693 -0.1429 -0.2725
   94SAPS   O13 9223   5.361   5.505   6.162 -0.9244 -0.5844  0.2120
   94SAPS   O14 9224   5.419   5.659   5.971  0.0646 -0.1317  0.1304
   94SAPS   O12 9225   5.218   5.509   5.964  0.0199 -0.3317  0.1060
   94SAPS   O11 9226   5.214   5.697   6.115  0.0692  0.3704 -0.2417
   94SAPS    C1 9227   5.256   5.836   6.138 -0.1889 -0.1840 -0.3510
   94SAPS    HA 9228   5.357   5.835   6.183  0.0688  1.3447 -0.8656
   94SAPS    HB 9229   5.260   5.888   6.040  0.0535 -1.2501 -0.9093
   94SAPS    C2 9230   5.154   5.914   6.229  0.2169 -0.2478 -0.1614
   94SAPS    HS 9231   5.200   6.015   6.232 -0.3372 -0.0272  0.9257
   94SAPS   O21 9232   5.130   5.847   6.358  0.3896 -0.3969  0.1642
   94SAPS   C21 9233   5.186   5.912   6.459 -0.8038 -0.1782  0.5939
   94SAPS   O22 9234   5.264   6.003   6.457 -0.3380  0.3366 -0.4126
   94SAPS   C22 9235   5.125   5.864   6.590 -0.1045  0.6362  0.1925
   94SAPS   H2R 9236   5.063   5.775   6.569  4.0899 -2.2236 -0.8571
   94SAPS   H2S 9237   5.202   5.816   6.655 -0.3576 -0.3738 -0.2508
   94SAPS    C3 9238   5.016   5.915   6.157 -0.0734 -0.8377 -0.4338
   94SAPS    HX 9239   4.951   5.825   6.164 -0.5375 -0.3391  2.5438
   94SAPS    HY 9240   5.043   5.924   6.050  2.3181  0.6018  0.2512
   94SAPS   O31 9241   4.930   6.030   6.198  0.1075 -0.0950  0.3819
   94SAPS   C31 9242   4.946   6.151   6.152 -0.4159  0.0220 -0.1034
   94SAPS   O32 9243   5.013   6.185   6.054  0.2501 -0.2800  0.6099
   94SAPS   C32 9244   4.869   6.247   6.242  0.3749  0.0284 -0.3169
   94SAPS   H2X 9245   4.913   6.240   6.344 -0.4675 -0.7090  0.0054
   94SAPS   H2Y 9246   4.770   6.198   6.256  0.1146  0.5808 -0.1995
   94SAPS   C23 9247   5.021   5.970   6.661 -0.8539  0.5903  0.8127
   94SAPS   H3R 9248   4.923   5.971   6.608 -0.7915  0.8697  0.6998
   94SAPS   H3S 9249   5.057   6.075   6.668 -1.1078  0.6362  1.5116
   94SAPS   C24 9250   4.999   5.937   6.811  0.1885  0.5903  0.7337
   94SAPS   H4R 9251   4.967   5.831   6.817 -0.8413  0.8479 -0.1167
   94SAPS   H4S 9252   4.925   6.010   6.849 -0.7380 -0.6579  1.3425
   94SAPS   C25 9253   5.118   5.934   6.901  0.2857  0.7767 -0.3708
   94SAPS   H5R 9254   5.204   5.875   6.867  0.4581  0.7437  0.1068
   94SAPS   C26 9255   5.118   5.985   7.027  0.1516 -0.8255  0.1820
   94SAPS   H6R 9256   5.215   5.988   7.079  0.1489 -0.7636  0.1834
   94SAPS   C27 9257   5.007   6.054   7.104  0.0777 -0.0110  0.3827
   94SAPS   H7R 9258   4.913   6.022   7.053  0.6920  0.1552 -0.8802
   94SAPS   H7S 9259   5.011   6.163   7.082 -2.1558  0.2144  0.9654
   94SAPS   C28 9260   4.988   6.008   7.252 -0.3168 -0.0757  0.2245
   94SAPS   H8R 9261   5.027   5.909   7.279  0.3560  0.6263  1.8445
   94SAPS   C29 9262   4.946   6.085   7.354 -0.3487 -0.5373 -0.0489
   94SAPS   H9R 9263   4.939   6.035   7.452  1.6616 -0.1704  0.3134
   94SAPS  C210 9264   4.897   6.228   7.358 -0.0996 -0.1078 -0.0608
   94SAPS  H10R 9265   4.797   6.217   7.405  0.4647 -1.6381  0.8438
   94SAPS  H10S 9266   4.893   6.267   7.254  2.2521 -0.3788 -0.2865
   94SAPS  C211 9267   4.970   6.316   7.453 -0.6351 -0.0114  0.5582
   94SAPS  H11R 9268   5.057   6.359   7.402 -0.2240  0.9780  2.0652
   94SAPS  C212 9269   4.948   6.341   7.588  0.8572  0.3942 -0.4046
   94SAPS  H12R 9270   5.020   6.407   7.638  1.0819  0.0534 -0.2798
   94SAPS  C213 9271   4.836   6.296   7.678  0.5428 -0.6160  0.4128
   94SAPS  H13R 9272   4.877   6.247   7.769 -0.5545 -2.2933  0.0450
   94SAPS  H13S 9273   4.784   6.218   7.618  0.0605  0.0878 -0.0886
   94SAPS  C214 9274   4.743   6.414   7.697  0.9486 -0.3430  0.3596
   94SAPS  H14R 9275   4.691   6.440   7.603  0.9230  2.2013  1.0565
   94SAPS  C215 9276   4.711   6.472   7.813 -0.0763 -0.8979  0.1984
   94SAPS  H15R 9277   4.638   6.555   7.809  1.3638  0.5573  2.7795
   94SAPS  C216 9278   4.766   6.441   7.948 -0.4707  0.6917 -0.3538
   94SAPS  H16R 9279   4.855   6.373   7.947 -0.9178  0.0519  1.6312
   94SAPS  H16S 9280   4.679   6.394   7.999  1.2893 -1.1666  1.0487
   94SAPS  C217 9281   4.804   6.563   8.035 -0.2359 -0.2556 -0.7003
   94SAPS  H17R 9282   4.822   6.526   8.138  0.2109  1.7219 -0.0540
   94SAPS  H17S 9283   4.723   6.640   8.038  1.6008  1.7040 -0.5900
   94SAPS  C218 9284   4.931   6.643   7.989  0.3621 -0.4719  0.0146
   94SAPS  H18R 9285   4.928   6.733   8.054  3.5484 -1.8895  2.2475
   94SAPS  H18S 9286   4.921   6.668   7.881 -4.6387 -2.1711 -0.0519
   94SAPS  C219 9287   5.054   6.564   8.008  0.7436  0.2166  0.9305
   94SAPS  H19R 9288   5.049   6.463   7.962  2.3752  0.8494 -0.7041
   94SAPS  H19S 9289   5.065   6.564   8.118 -1.5719  0.5522  1.1822
   94SAPS  C220 9290   5.173   6.640   7.944 -0.2217 -0.3703  0.0596
   94SAPS  H20R 9291   5.152   6.660   7.837  0.2279 -1.6962 -0.2844
   94SAPS  H20S 9292   5.272   6.594   7.963  0.6649  1.3369 -0.2969
   94SAPS  H20T 9293   5.174   6.747   7.974 -1.1884  0.5298 -2.9049
   94SAPS   C33 9294   4.845   6.389   6.195  0.4602  0.1274 -0.2239
   94SAPS   H3X 9295   4.818   6.390   6.088  2.6604 -0.9297 -0.8267
   94SAPS   H3Y 9296   4.939   6.448   6.202  2.0935 -2.2606 -1.2452
   94SAPS   C34 9297   4.724   6.448   6.271 -0.1140  0.0209 -0.0349
   94SAPS   H4X 9298   4.634   6.395   6.230 -0.8983  0.9080  0.5197
   94SAPS   H4Y 9299   4.723   6.555   6.241  1.5862  0.3451  1.0230
   94SAPS   C35 9300   4.717   6.448   6.427 -0.3780 -0.5960  0.1094
   94SAPS   H5X 9301   4.818   6.477   6.465 -0.1915 -0.9045 -0.1423
   94SAPS   H5Y 9302   4.717   6.340   6.451  0.3396 -0.6528 -0.1281
   94SAPS   C36 9303   4.617   6.529   6.506 -0.1912  0.1995 -0.1261
   94SAPS   H6X 9304   4.523   6.514   6.451  0.0602  1.1267 -0.8248
   94SAPS   H6Y 9305   4.633   6.638   6.493  0.2640  0.0892 -0.5003
   94SAPS   C37 9306   4.605   6.504   6.664 -0.5971  0.5339  0.0937
   94SAPS   H7X 9307   4.712   6.485   6.688 -1.7566 -3.9031  2.3448
   94SAPS   H7Y 9308   4.554   6.406   6.681  1.6554 -0.0988  4.0160
   94SAPS   C38 9309   4.547   6.621   6.739 -0.4406 -1.2122 -0.2954
   94SAPS   H8X 9310   4.478   6.685   6.680  1.0083  1.8139  1.1808
   94SAPS   H8Y 9311   4.634   6.687   6.761 -0.3982 -1.2615 -0.3132
   94SAPS   C39 9312   4.482   6.582   6.877  0.1200 -0.3052 -0.0588
   94SAPS   H9X 9313   4.380   6.540   6.861  1.3944 -3.4765 -0.1697
   94SAPS   H9Y 9314   4.476   6.671   6.943 -0.9433  0.8502 -1.6491
   94SAPS  C310 9315   4.561   6.472   6.949  0.1642  0.7049 -0.1329
   94SAPS  H10X 9316   4.668   6.498   6.932  1.4361 -3.5585  0.9350
   94SAPS  H10Y 9317   4.544   6.382   6.887  2.1125 -0.2447  0.6856
   94SAPS  C311 9318   4.539   6.466   7.094 -0.9673  0.0922  0.4534
   94SAPS  H11X 9319   4.576   6.365   7.124 -3.2349 -0.7798  0.4063
   94SAPS  H11Y 9320   4.432   6.462   7.125 -0.9914 -1.1231  0.2449
   94SAPS  C312 9321   4.615   6.570   7.174 -0.1333  0.1877 -0.7747
   94SAPS  H12X 9322   4.617   6.664   7.115 -1.5541  0.6091 -0.1782
   94SAPS  H12Y 9323   4.718   6.533   7.191 -0.0487 -0.4564 -2.6460
   94SAPS  C313 9324   4.552   6.596   7.321  0.2624  0.7326 -0.2837
   94SAPS  H13X 9325   4.550   6.497   7.373  1.0718 -0.9098 -3.2609
   94SAPS  H13Y 9326   4.446   6.627   7.311  0.3944  0.9462 -1.0049
   94SAPS  C314 9327   4.625   6.700   7.409 -1.0833  0.0036  0.5239
   94SAPS  H14X 9328   4.648   6.794   7.354  1.5352 -0.5265  0.6172
   94SAPS  H14Y 9329   4.716   6.640   7.434  0.9652  3.3508  1.4924
   94SAPS  C315 9330   4.538   6.728   7.529 -0.4047  0.3344 -0.1669
   94SAPS  H15X 9331   4.520   6.627   7.573 -0.4030  0.3827 -0.0560
   94SAPS  H15Y 9332   4.452   6.790   7.498 -1.6285 -0.7070  1.0537
   94SAPS  C316 9333   4.615   6.799   7.639  0.1400  0.6326  0.1536
   94SAPS  H16X 9334   4.635   6.899   7.596 -2.0637  0.1264 -2.1642
   94SAPS  H16Y 9335   4.704   6.740   7.670 -0.4225 -1.1156 -1.4636
   94SAPS  C317 9336   4.514   6.831   7.761 -0.4554  0.4811 -0.0155
   94SAPS  H17X 9337   4.499   6.734   7.814  0.9332 -0.9908 -2.2327
   94SAPS  H17Y 9338   4.424   6.880   7.718 -0.3595 -0.2967 -1.1210
   94SAPS  C318 9339   4.582   6.924   7.860  0.3528 -0.3350  0.2574
   94SAPS  H18X 9340   4.692   6.905   7.866  0.3499 -0.2022  0.8235
   94SAPS  H18Y 9341   4.544   6.906   7.963 -1.3146  2.4423  0.1597
   94SAPS  H18Z 9342   4.558   7.027   7.828  0.2588 -1.0930 -2.2278
   95SAPS     N 9343   0.686   3.523   6.274  0.4481 -0.0541  0.4444
   95SAPS   HN1 9344   0.723   3.611   6.233  0.3434 -0.7415 -1.1846
   95SAPS   HN2 9345   0.586   3.511   6.247  1.0789 -0.2377 -1.9436
   95SAPS   HN3 9346   0.700   3.526   6.377 -2.1245  0.3689  0.8138
   95SAPS   C12 9347   0.777   3.421   6.215  0.3690 -0.0602 -0.1885
   95SAPS  H12A 9348   0.746   3.323   6.249  1.5854  0.0300  1.2300
   95SAPS   C13 9349   0.779   3.417   6.060 -0.6161 -0.4014 -0.2929
   95SAPS  O13A 9350   0.692   3.481   6.004  0.1271 -0.1646  0.3939
   95SAPS  O13B 9351   0.861   3.339   5.997  0.2243  0.6032 -0.8095
   95SAPS   C11 9352   0.924   3.433   6.274  0.1979 -0.2511  0.1384
   95SAPS  H11A 9353   0.994   3.360   6.228 -0.4783  0.2117 -1.6590
   95SAPS  H11B 9354   0.907   3.393   6.377 -1.2916 -0.4108 -0.1579
   95SAPS     P 9355   1.123   3.586   6.304 -0.1123 -0.5168 -0.5065
   95SAPS   O13 9356   1.199   3.507   6.202  0.6793 -0.0122  0.2255
   95SAPS   O14 9357   1.148   3.734   6.298  0.1108  0.0628 -0.1534
   95SAPS   O12 9358   0.968   3.562   6.279  0.0028  0.9012  0.2818
   95SAPS   O11 9359   1.160   3.539   6.443  0.0078 -0.0501 -0.2946
   95SAPS    C1 9360   1.103   3.609   6.555  0.1707  0.0305 -0.2829
   95SAPS    HA 9361   1.168   3.697   6.575  0.7122 -0.3321 -0.4454
   95SAPS    HB 9362   0.996   3.638   6.541  0.3550  1.7439  1.6137
   95SAPS    C2 9363   1.108   3.528   6.687 -0.6817 -0.3717  0.3052
   95SAPS    HS 9364   1.044   3.589   6.755  0.8511  3.2899 -1.3574
   95SAPS   O21 9365   1.245   3.516   6.740  0.2760 -1.2569  0.0733
   95SAPS   C21 9366   1.312   3.633   6.777 -0.3150  0.0677 -0.5031
   95SAPS   O22 9367   1.259   3.743   6.784 -0.2508 -0.0569 -0.7436
   95SAPS   C22 9368   1.456   3.605   6.817  0.0267  0.3095  0.3435
   95SAPS   H2R 9369   1.471   3.495   6.812  2.1524  0.5855  0.3479
   95SAPS   H2S 9370   1.516   3.661   6.742 -0.4856 -0.6980 -0.8341
   95SAPS    C3 9371   1.051   3.394   6.664  0.8369  0.5521  0.4760
   95SAPS    HX 9372   1.134   3.337   6.617  1.3227  1.2193  0.5255
   95SAPS    HY 9373   0.978   3.386   6.580  0.9736 -2.4464  0.5724
   95SAPS   O31 9374   1.012   3.331   6.792 -0.0538 -0.2535  0.4852
   95SAPS   C31 9375   0.892   3.369   6.834 -0.0744  0.0321  0.7526
   95SAPS   O32 9376   0.814   3.438   6.772 -0.4709 -0.2538 -0.0770
   95SAPS   C32 9377   0.863   3.277   6.960 -1.2328 -0.1353  0.1056
   95SAPS   H2X 9378   0.935   3.314   7.036 -1.9589  1.6343 -0.0274
   95SAPS   H2Y 9379   0.867   3.169   6.934 -1.9822 -0.1043 -0.1609
   95SAPS   C23 9380   1.498   3.653   6.958  0.5153  0.5414  0.3636
   95SAPS   H3R 9381   1.434   3.593   7.025 -0.6120 -0.3979 -1.5281
   95SAPS   H3S 9382   1.471   3.759   6.978  0.8662  0.2481  2.5728
   95SAPS   C24 9383   1.651   3.620   6.984 -0.2559 -0.0325  0.5417
   95SAPS   H4R 9384   1.716   3.663   6.905  1.0540  1.3108  2.3244
   95SAPS   H4S 9385   1.661   3.510   6.974 -2.7200 -0.4721  2.3226
   95SAPS   C25 9386   1.686   3.678   7.122 -0.8611  0.0613  0.6850
   95SAPS   H5R 9387   1.691   3.788   7.125  0.3630 -0.0570  3.8483
   95SAPS   C26 9388   1.716   3.601   7.228 -0.2606 -0.5394 -0.6310
   95SAPS   H6R 9389   1.726   3.654   7.325 -0.1616 -0.0253 -0.9173
   95SAPS   C27 9390   1.718   3.455   7.232 -0.4471  0.3113 -0.8459
   95SAPS   H7R 9391   1.644   3.416   7.160  1.2812 -1.6015 -1.6309
   95SAPS   H7S 9392   1.684   3.429   7.334  2.9653  0.7509  0.4923
   95SAPS   C28 9393   1.837   3.370   7.198  0.3037  0.2766 -0.2791
   95SAPS   H8R 9394   1.888   3.419   7.114  0.7346  1.9971  0.9594
   95SAPS   C29 9395   1.878   3.260   7.261 -0.6557 -0.5712 -0.5597
   95SAPS   H9R 9396   1.960   3.197   7.224 -0.8747 -1.0411 -0.2452
   95SAPS  C210 9397   1.832   3.201   7.394 -0.0614  0.2813  0.1174
   95SAPS  H10R 9398   1.839   3.276   7.477 -0.0297 -1.2235  1.4934
   95SAPS  H10S 9399   1.900   3.118   7.420 -1.4253 -0.6834  0.7100
   95SAPS  C211 9400   1.685   3.159   7.386  0.2477 -0.3423  0.1718
   95SAPS  H11R 9401   1.654   3.143   7.282 -0.1180 -0.0519  0.2365
   95SAPS  C212 9402   1.592   3.156   7.481 -0.5594 -0.9317  0.0503
   95SAPS  H12R 9403   1.488   3.133   7.456 -0.7663  0.5826 -0.5418
   95SAPS  C213 9404   1.614   3.192   7.627  0.4581  0.3901 -0.6142
   95SAPS  H13R 9405   1.579   3.296   7.643  0.6692  0.4138 -0.2880
   95SAPS  H13S 9406   1.722   3.191   7.653  0.9764  0.7616 -2.6791
   95SAPS  C214 9407   1.538   3.108   7.725  0.6540  0.2328  0.4605
   95SAPS  H14R 9408   1.492   3.018   7.681  1.5328 -0.4138  0.8485
   95SAPS  C215 9409   1.532   3.120   7.856  0.5533  0.3768  0.1609
   95SAPS  H15R 9410   1.474   3.055   7.923 -0.1041  0.7337 -0.0596
   95SAPS  C216 9411   1.599   3.229   7.931 -0.4295 -0.8204  0.0244
   95SAPS  H16R 9412   1.536   3.255   8.019 -1.1944 -0.3472 -0.6508
   95SAPS  H16S 9413   1.608   3.322   7.871 -0.0896 -0.8991 -0.0450
   95SAPS  C217 9414   1.740   3.178   7.994 -0.2841  0.7534  0.0025
   95SAPS  H17R 9415   1.803   3.268   8.008  0.4464  0.7651 -2.9467
   95SAPS  H17S 9416   1.799   3.120   7.919 -0.7960 -0.3582  0.4415
   95SAPS  C218 9417   1.726   3.105   8.128  0.1157  0.3221 -0.1173
   95SAPS  H18R 9418   1.659   3.162   8.196 -1.0588  0.2688 -1.2204
   95SAPS  H18S 9419   1.827   3.108   8.176  0.0344 -1.2283  0.1739
   95SAPS  C219 9420   1.674   2.958   8.115 -0.5386  0.6664  0.5613
   95SAPS  H19R 9421   1.732   2.915   8.030 -0.9468 -0.2988  0.7648
   95SAPS  H19S 9422   1.568   2.967   8.083 -0.1615  0.3011 -0.8584
   95SAPS  C220 9423   1.673   2.874   8.244 -0.1648  0.0228 -0.3219
   95SAPS  H20R 9424   1.611   2.783   8.226 -0.7212  0.2570  0.3901
   95SAPS  H20S 9425   1.627   2.924   8.332  1.3714 -1.4217  1.3521
   95SAPS  H20T 9426   1.772   2.827   8.265  0.0347  1.5755  2.3739
   95SAPS   C33 9427   0.715   3.304   7.000 -0.1277  0.4612 -0.3478
   95SAPS   H3X 9428   0.640   3.280   6.921  1.1767 -0.1203 -1.4336
   95SAPS   H3Y 9429   0.715   3.411   7.030  2.1737  0.2936  0.3782
   95SAPS   C34 9430   0.665   3.223   7.125  0.1639 -0.3561 -0.7616
   95SAPS   H4X 9431   0.746   3.199   7.198 -0.4011  0.4556  0.1376
   95SAPS   H4Y 9432   0.624   3.123   7.099  1.0079 -1.1216  0.7479
   95SAPS   C35 9433   0.562   3.292   7.206  0.1015  0.2420  0.0208
   95SAPS   H5X 9434   0.472   3.305   7.143  0.1794  0.2325 -0.0926
   95SAPS   H5Y 9435   0.584   3.395   7.240 -0.4223  0.6085 -0.7395
   95SAPS   C36 9436   0.499   3.211   7.321  0.2619  0.0154  0.2859
   95SAPS   H6X 9437   0.581   3.195   7.395  0.3484  3.2342  0.9249
   95SAPS   H6Y 9438   0.447   3.115   7.298 -1.1411  0.6174  0.9119
   95SAPS   C37 9439   0.388   3.292   7.390  0.2329  0.3745  0.4241
   95SAPS   H7X 9440   0.297   3.314   7.330  0.4456  1.3007  0.4298
   95SAPS   H7Y 9441   0.442   3.386   7.411  1.8415 -0.2899 -0.6437
   95SAPS   C38 9442   0.336   3.230   7.524 -0.4232  0.7147  0.4864
   95SAPS   H8X 9443   0.419   3.184   7.580 -0.6082 -2.0046 -1.3448
   95SAPS   H8Y 9444   0.274   3.139   7.507 -3.0370  2.4891  0.1249
   95SAPS   C39 9445   0.254   3.321   7.612  0.3375  0.5640  0.0660
   95SAPS   H9X 9446   0.148   3.312   7.580  0.7268  0.2836 -1.1713
   95SAPS   H9Y 9447   0.278   3.427   7.586 -0.3888  0.6695 -0.2055
   95SAPS  C310 9448   0.273   3.286   7.759 -0.7012 -0.1462 -0.3233
   95SAPS  H10X 9449   0.384   3.280   7.766 -0.4291  1.5228 -2.5529
   95SAPS  H10Y 9450   0.225   3.191   7.791  0.8809 -0.4493  1.1918
   95SAPS  C311 9451   0.219   3.393   7.847  0.1065 -0.3570 -0.6035
   95SAPS  H11X 9452   0.112   3.418   7.836  0.0208 -0.6570 -0.4471
   95SAPS  H11Y 9453   0.267   3.490   7.820  2.1378 -1.7565 -2.2103
   95SAPS  C312 9454   0.239   3.354   7.995 -0.9876 -0.0900  0.0827
   95SAPS  H12X 9455   0.346   3.325   7.998 -1.4858 -1.9227  0.5251
   95SAPS  H12Y 9456   0.173   3.271   8.028  3.1866 -3.0974  1.2376
   95SAPS  C313 9457   0.211   3.475   8.098 -0.4997  0.4491  0.2598
   95SAPS  H13X 9458   0.117   3.525   8.066 -1.0606 -0.4198  0.5146
   95SAPS  H13Y 9459   0.302   3.538   8.091 -0.0716 -0.1533  0.3570
   95SAPS  C314 9460   0.190   3.418   8.241  0.2634  0.0316  0.1886
   95SAPS  H14X 9461   0.259   3.333   8.263 -1.4551 -1.1564  1.0663
   95SAPS  H14Y 9462   0.087   3.378   8.240  1.0186 -2.0061  0.3886
   95SAPS  C315 9463   0.192   3.522   8.351 -0.5853  0.5839 -0.9257
   95SAPS  H15X 9464   0.132   3.614   8.332 -1.4485  0.1378 -0.4009
   95SAPS  H15Y 9465   0.299   3.548   8.361 -0.1255 -1.3753 -0.4533
   95SAPS  C316 9466   0.151   3.475   8.498  0.2492 -0.5405  0.0913
   95SAPS  H16X 9467   0.212   3.389   8.535  1.2967 -0.0753 -0.5234
   95SAPS  H16Y 9468   0.042   3.454   8.497  0.3378 -0.9708 -0.9279
   95SAPS  C317 9469   0.155   3.584   8.610 -0.1313 -0.2118 -0.3435
   95SAPS  H17X 9470   0.147   3.539   8.711 -0.4564 -0.9064 -0.6712
   95SAPS  H17Y 9471   0.093   3.671   8.581 -1.0825 -0.7791 -0.0629
   95SAPS  C318 9472   0.292   3.656   8.630  0.6920 -0.1407  0.5526
   95SAPS  H18X 9473   0.372   3.579   8.630  1.7075  0.8878  1.7792
   95SAPS  H18Y 9474   0.301   3.702   8.731 -0.5418 -0.4619  0.8248
   95SAPS  H18Z 9475   0.307   3.736   8.553 -0.2935 -0.0457  0.4461
   96SAPS     N 9476   1.402   5.889   6.304 -0.4224  0.1549 -0.0716
   96SAPS   HN1 9477   1.353   5.856   6.390  0.0167 -0.5974 -0.1095
   96SAPS   HN2 9478   1.502   5.913   6.321 -0.4510  0.2318 -0.0100
   96SAPS   HN3 9479   1.367   5.982   6.274  1.0818  0.5277 -0.7225
   96SAPS   C12 9480   1.400   5.771   6.204 -0.1358  0.5582 -0.2393
   96SAPS  H12A 9481   1.298   5.764   6.168 -0.0127  0.9605 -0.6713
   96SAPS   C13 9482   1.484   5.808   6.078 -0.3867  0.2042 -0.3829
   96SAPS  O13A 9483   1.537   5.919   6.065 -0.0612 -0.5222  0.2016
   96SAPS  O13B 9484   1.489   5.722   5.981  0.0587  0.2969 -0.2922
   96SAPS   C11 9485   1.448   5.643   6.278 -0.4506  0.4817  0.7076
   96SAPS  H11A 9486   1.553   5.660   6.310  0.3428 -0.2661 -1.4795
   96SAPS  H11B 9487   1.456   5.556   6.210 -1.0722  0.6206  0.4514
   96SAPS     P 9488   1.274   5.507   6.411  0.3377  0.3478 -0.1065
   96SAPS   O13 9489   1.170   5.581   6.486  0.1047 -0.3998  0.0510
   96SAPS   O14 9490   1.237   5.455   6.275 -0.0817 -0.0273  0.1073
   96SAPS   O12 9491   1.387   5.611   6.401 -0.0888  0.3423 -0.0197
   96SAPS   O11 9492   1.338   5.390   6.495  0.7771 -0.2347  0.1361
   96SAPS    C1 9493   1.466   5.338   6.450 -0.4330  0.9430 -0.7484
   96SAPS    HA 9494   1.445   5.242   6.399  0.0300  0.4264  0.0267
   96SAPS    HB 9495   1.521   5.398   6.374  1.4233 -1.3187 -1.2238
   96SAPS    C2 9496   1.571   5.307   6.563 -0.3484 -0.4191  0.1567
   96SAPS    HS 9497   1.655   5.253   6.515  1.0710  0.3111  1.7689
   96SAPS   O21 9498   1.521   5.242   6.681 -0.5387 -1.0471 -0.1645
   96SAPS   C21 9499   1.542   5.112   6.694 -0.1063  0.4670  0.5603
   96SAPS   O22 9500   1.594   5.042   6.606  0.5646  0.1210  0.0434
   96SAPS   C22 9501   1.485   5.058   6.821  0.2521  0.1341  0.4288
   96SAPS   H2R 9502   1.374   5.051   6.823  0.2149  0.0134 -1.3352
   96SAPS   H2S 9503   1.506   4.949   6.822 -0.0116  0.0526 -1.2908
   96SAPS    C3 9504   1.620   5.445   6.609  0.2073 -1.3387  0.5607
   96SAPS    HX 9505   1.527   5.502   6.627  0.6395 -0.8464  1.2663
   96SAPS    HY 9506   1.663   5.500   6.522  0.2041 -1.0954  0.7111
   96SAPS   O31 9507   1.705   5.461   6.723 -0.5330  0.8046 -0.1152
   96SAPS   C31 9508   1.818   5.381   6.727  0.5947 -0.3682  0.5916
   96SAPS   O32 9509   1.857   5.317   6.630 -0.5618 -0.4233  0.1475
   96SAPS   C32 9510   1.893   5.408   6.853 -0.2316  0.2256 -0.2760
   96SAPS   H2X 9511   1.819   5.426   6.934 -0.7232 -0.0994 -0.6489
   96SAPS   H2Y 9512   1.947   5.502   6.831  0.8432  0.0500  1.5046
   96SAPS   C23 9513   1.529   5.132   6.946 -0.3305  0.3745 -0.4370
   96SAPS   H3R 9514   1.471   5.225   6.964 -0.8560 -0.2511  1.2443
   96SAPS   H3S 9515   1.637   5.142   6.970 -0.3256  0.8230 -0.6383
   96SAPS   C24 9516   1.476   5.043   7.068 -0.1746  0.1662  0.0514
   96SAPS   H4R 9517   1.523   4.943   7.062  0.9908  0.6838  0.3843
   96SAPS   H4S 9518   1.367   5.039   7.045  0.0770  1.5886 -1.4643
   96SAPS   C25 9519   1.476   5.099   7.210  0.3285 -0.3488  0.4011
   96SAPS   H5R 9520   1.563   5.162   7.237 -0.4833  0.4989  1.0494
   96SAPS   C26 9521   1.384   5.077   7.309  0.0273 -0.1781 -0.0746
   96SAPS   H6R 9522   1.417   5.098   7.412 -0.6478 -0.2540  0.1571
   96SAPS   C27 9523   1.262   4.993   7.303  0.4236  0.7484 -0.5707
   96SAPS   H7R 9524   1.285   4.901   7.361 -1.0206 -1.5700 -3.5447
   96SAPS   H7S 9525   1.232   4.945   7.207  0.0640  1.0074 -0.5856
   96SAPS   C28 9526   1.136   5.067   7.347 -0.7374  0.0285  0.7763
   96SAPS   H8R 9527   1.088   5.119   7.263 -0.7334 -1.4833 -0.1867
   96SAPS   C29 9528   1.092   5.092   7.471  0.3059  0.4215  0.3546
   96SAPS   H9R 9529   1.001   5.148   7.496 -0.7669 -1.3099  0.3795
   96SAPS  C210 9530   1.165   5.043   7.593 -0.1629 -0.3413  0.6851
   96SAPS  H10R 9531   1.243   4.968   7.571  0.9500  1.1245 -0.5080
   96SAPS  H10S 9532   1.093   4.995   7.663 -0.1759 -0.0086  0.9034
   96SAPS  C211 9533   1.236   5.150   7.661 -0.2965 -0.8026 -0.2191
   96SAPS  H11R 9534   1.318   5.183   7.597  0.6043 -2.2851  0.1448
   96SAPS  C212 9535   1.210   5.201   7.783  0.5083  0.6163  0.0990
   96SAPS  H12R 9536   1.271   5.290   7.805  0.4531 -0.0508  3.1307
   96SAPS  C213 9537   1.109   5.156   7.886 -1.0894 -0.0401  0.2353
   96SAPS  H13R 9538   1.147   5.064   7.935 -1.9459 -0.8288 -0.5691
   96SAPS  H13S 9539   1.023   5.122   7.824 -0.9332  1.8744 -1.0587
   96SAPS  C214 9540   1.055   5.256   7.984 -0.2572  0.0904  0.1377
   96SAPS  H14R 9541   1.061   5.359   7.946 -2.0227 -0.2600 -1.1384
   96SAPS  C215 9542   0.969   5.230   8.083  0.2997  0.0423 -0.4330
   96SAPS  H15R 9543   0.926   5.297   8.160 -2.0315 -1.2510 -0.5644
   96SAPS  C216 9544   0.927   5.095   8.121  0.3139  0.0386  0.3022
   96SAPS  H16R 9545   0.994   5.008   8.098  1.2562  0.2746  2.0436
   96SAPS  H16S 9546   0.839   5.066   8.060  0.3012 -0.0373  0.3544
   96SAPS  C217 9547   0.896   5.082   8.271  0.3243  0.0831 -0.4125
   96SAPS  H17R 9548   0.987   5.094   8.334 -0.0535  0.3202  0.0876
   96SAPS  H17S 9549   0.864   4.977   8.289 -0.1468  0.4405  0.9239
   96SAPS  C218 9550   0.785   5.158   8.338  0.3462 -0.1831  0.8585
   96SAPS  H18R 9551   0.702   5.158   8.264 -0.7180  0.2111  2.0341
   96SAPS  H18S 9552   0.819   5.264   8.343  1.2574 -0.3093 -1.7915
   96SAPS  C219 9553   0.745   5.112   8.483  0.5278  0.4413  0.4754
   96SAPS  H19R 9554   0.843   5.092   8.532  0.7609 -0.2280 -0.2705
   96SAPS  H19S 9555   0.700   5.011   8.477  1.4665  0.1548 -2.6087
   96SAPS  C220 9556   0.656   5.207   8.551  0.2195  0.3285 -0.4377
   96SAPS  H20R 9557   0.616   5.159   8.644  3.1212 -0.0945  0.6338
   96SAPS  H20S 9558   0.572   5.234   8.484 -1.5841 -1.3730  1.0507
   96SAPS  H20T 9559   0.703   5.303   8.582  0.0773  0.2294  0.0862
   96SAPS   C33 9560   1.982   5.290   6.906  0.4103  0.4380 -0.5986
   96SAPS   H3X 9561   2.043   5.329   6.990 -1.6711  0.6538  0.8509
   96SAPS   H3Y 9562   2.060   5.269   6.829 -0.3395  0.6250 -1.4217
   96SAPS   C34 9563   1.906   5.173   6.969 -0.1420  0.1177 -0.5991
   96SAPS   H4X 9564   1.821   5.151   6.900 -1.7050  0.1956  1.2728
   96SAPS   H4Y 9565   1.867   5.212   7.065 -1.6693  0.4746 -1.3316
   96SAPS   C35 9566   1.989   5.047   6.989  0.0593 -0.3941  0.0587
   96SAPS   H5X 9567   2.076   5.071   7.053 -0.8627  0.6149  0.9674
   96SAPS   H5Y 9568   2.039   5.020   6.894  2.1877  0.7174  0.8227
   96SAPS   C36 9569   1.905   4.930   7.052  0.6770 -0.2208  0.0388
   96SAPS   H6X 9570   1.976   4.846   7.069  2.2471  1.0598  0.0173
   96SAPS   H6Y 9571   1.829   4.894   6.980  1.6751 -1.1686 -0.5501
   96SAPS   C37 9572   1.848   4.970   7.187 -0.0484  0.5924 -0.5182
   96SAPS   H7X 9573   1.767   5.044   7.168  0.6521  0.6337 -3.7087
   96SAPS   H7Y 9574   1.921   5.009   7.261 -0.7308  0.4363  0.2481
   96SAPS   C38 9575   1.785   4.849   7.255 -0.2251 -0.0046 -0.8268
   96SAPS   H8X 9576   1.861   4.768   7.254  2.8546  2.7547 -0.2301
   96SAPS   H8Y 9577   1.701   4.800   7.200 -1.4088 -0.9532  1.7521
   96SAPS   C39 9578   1.741   4.869   7.398  0.5862 -0.1134 -0.6076
   96SAPS   H9X 9579   1.656   4.800   7.420  0.6653  0.3580  1.2210
   96SAPS   H9Y 9580   1.693   4.969   7.388 -1.2566 -1.0132 -1.0139
   96SAPS  C310 9581   1.857   4.871   7.500  0.5409 -0.0529 -0.2278
   96SAPS  H10X 9582   1.900   4.973   7.485 -0.0314 -0.0704 -2.1025
   96SAPS  H10Y 9583   1.927   4.789   7.474 -0.2327 -0.7045 -0.2633
   96SAPS  C311 9584   1.804   4.860   7.646 -0.8369 -0.2526  0.2055
   96SAPS  H11X 9585   1.745   4.766   7.649 -1.3837  0.0241 -1.2858
   96SAPS  H11Y 9586   1.727   4.939   7.658  0.8925  1.9703 -2.6607
   96SAPS  C312 9587   1.911   4.883   7.751  0.4171 -0.1262  0.3454
   96SAPS  H12X 9588   1.980   4.968   7.731 -0.0565  0.4896  1.2683
   96SAPS  H12Y 9589   1.988   4.807   7.727  0.3019  0.8999 -3.7054
   96SAPS  C313 9590   1.861   4.889   7.891  0.0933  0.4713 -0.1846
   96SAPS  H13X 9591   1.799   4.799   7.912  2.7676 -1.1434  1.0498
   96SAPS  H13Y 9592   1.794   4.977   7.894 -0.8541 -0.1773 -1.6515
   96SAPS  C314 9593   1.975   4.886   7.990  0.8266  0.5684  0.1339
   96SAPS  H14X 9594   2.029   4.983   7.983  0.3067  0.8701  0.2815
   96SAPS  H14Y 9595   2.045   4.802   7.970 -1.3043 -2.1966  3.5823
   96SAPS  C315 9596   1.926   4.859   8.136  0.7657 -0.2273  0.3251
   96SAPS  H15X 9597   1.841   4.788   8.128 -0.0479  0.9927 -2.4186
   96SAPS  H15Y 9598   1.886   4.955   8.175  0.6166 -0.1643  0.0210
   96SAPS  C316 9599   2.025   4.808   8.238  0.1443  0.7394  0.3337
   96SAPS  H16X 9600   2.120   4.863   8.220 -0.8984  2.2900 -0.4714
   96SAPS  H16Y 9601   2.047   4.701   8.218 -0.5920 -0.2783  4.5275
   96SAPS  C317 9602   1.976   4.813   8.382 -0.8056  0.0869 -0.5756
   96SAPS  H17X 9603   1.871   4.774   8.387 -0.4633 -0.6579  1.0576
   96SAPS  H17Y 9604   1.963   4.920   8.405 -2.3314 -0.5292  1.6213
   96SAPS  C318 9605   2.073   4.736   8.479 -0.3968 -0.4587 -0.1926
   96SAPS  H18X 9606   2.106   4.638   8.438  0.2222  0.4150 -1.8586
   96SAPS  H18Y 9607   2.017   4.706   8.570 -0.5197  2.2478  0.6769
   96SAPS  H18Z 9608   2.168   4.791   8.499 -0.7105 -0.5077  1.4869
   97SAPS     N 9609   2.836   3.806   6.495  0.2644  0.0785 -0.2434
   97SAPS   HN1 9610   2.742   3.808   6.540  0.3013  1.1465 -0.2011
   97SAPS   HN2 9611   2.909   3.762   6.554 -1.3048 -0.0165  1.6736
   97SAPS   HN3 9612   2.872   3.903   6.485  1.1666 -0.1235  1.0015
   97SAPS   C12 9613   2.804   3.712   6.381  0.0087 -0.2571 -0.9248
   97SAPS  H12A 9614   2.794   3.612   6.420 -1.0758  0.1684 -0.0447
   97SAPS   C13 9615   2.680   3.737   6.297  0.2376  0.5004 -0.5390
   97SAPS  O13A 9616   2.621   3.849   6.289 -0.3111 -0.6919  0.2400
   97SAPS  O13B 9617   2.644   3.641   6.228  0.0851  0.3155  0.2039
   97SAPS   C11 9618   2.921   3.714   6.278 -0.2583 -0.0798  0.8170
   97SAPS  H11A 9619   2.927   3.821   6.249  1.0799 -0.5192 -0.6033
   97SAPS  H11B 9620   2.903   3.665   6.180 -0.0969  2.8131 -0.7148
   97SAPS     P 9621   3.186   3.741   6.326  0.0741 -0.0085 -0.2431
   97SAPS   O13 9622   3.243   3.672   6.203 -0.3121  0.0261  0.0524
   97SAPS   O14 9623   3.186   3.894   6.335 -1.0884 -0.3197  0.3522
   97SAPS   O12 9624   3.039   3.666   6.342  0.3579  0.3093  0.2586
   97SAPS   O11 9625   3.274   3.678   6.450 -1.2861  0.2092 -0.3016
   97SAPS    C1 9626   3.289   3.535   6.464 -0.0590 -0.5444 -0.0243
   97SAPS    HA 9627   3.287   3.473   6.372 -0.8625  0.7065 -0.8605
   97SAPS    HB 9628   3.391   3.512   6.502 -0.9171 -0.0290  2.6945
   97SAPS    C2 9629   3.200   3.479   6.568 -0.1130 -0.7070 -0.8341
   97SAPS    HS 9630   3.091   3.476   6.544 -0.0133 -0.8384 -1.2625
   97SAPS   O21 9631   3.220   3.557   6.692 -0.2828  1.0995  0.4747
   97SAPS   C21 9632   3.115   3.636   6.724 -0.1480  0.6753  0.2284
   97SAPS   O22 9633   3.022   3.663   6.648 -0.0305  0.3962  0.3624
   97SAPS   C22 9634   3.124   3.678   6.872  0.8841  0.4901 -0.3555
   97SAPS   H2R 9635   3.221   3.732   6.883  0.2097  1.7253 -0.3675
   97SAPS   H2S 9636   3.050   3.757   6.898 -1.8705 -1.5730 -1.7005
   97SAPS    C3 9637   3.240   3.327   6.583  0.0449  0.4009  0.1380
   97SAPS    HX 9638   3.351   3.324   6.585  0.1318  1.2782 -2.2543
   97SAPS    HY 9639   3.208   3.270   6.494  1.1787  0.1742 -0.1361
   97SAPS   O31 9640   3.184   3.269   6.707 -0.1572 -0.6398  0.2984
   97SAPS   C31 9641   3.072   3.209   6.690 -0.0979  0.3757  0.5065
   97SAPS   O32 9642   3.026   3.168   6.580 -0.6037 -0.1096 -0.4229
   97SAPS   C32 9643   3.006   3.175   6.820  0.4710 -0.2480 -0.3974
   97SAPS   H2X 9644   2.936   3.093   6.796 -0.4797  0.1591  0.9307
   97SAPS   H2Y 9645   2.937   3.259   6.843  1.3816  0.5864 -0.6788
   97SAPS   C23 9646   3.109   3.554   6.963 -0.2319  0.1523 -1.1045
   97SAPS   H3R 9647   3.181   3.478   6.925 -0.3246  0.0894 -1.1530
   97SAPS   H3S 9648   3.010   3.514   6.933 -0.5034 -0.0337  0.0114
   97SAPS   C24 9649   3.119   3.591   7.110  0.3711 -0.5842 -0.6592
   97SAPS   H4R 9650   3.040   3.524   7.152 -0.5771 -0.8504 -2.8004
   97SAPS   H4S 9651   3.080   3.693   7.134  1.3146 -0.6092  1.0474
   97SAPS   C25 9652   3.254   3.561   7.155  0.2739  0.0257  0.0245
   97SAPS   H5R 9653   3.322   3.595   7.076  0.4543  0.5266  0.3943
   97SAPS   C26 9654   3.309   3.537   7.276 -0.1301  1.0965  0.0754
   97SAPS   H6R 9655   3.419   3.529   7.285 -0.1604 -0.8458 -1.1161
   97SAPS   C27 9656   3.222   3.517   7.401  0.2526  0.2123  0.0146
   97SAPS   H7R 9657   3.188   3.411   7.403 -3.0022  1.1786 -0.6833
   97SAPS   H7S 9658   3.121   3.563   7.391  0.0636 -0.0009  0.8587
   97SAPS   C28 9659   3.282   3.571   7.527  0.5881  0.0493  0.1352
   97SAPS   H8R 9660   3.293   3.680   7.521  0.2504  0.0599 -0.3058
   97SAPS   C29 9661   3.300   3.497   7.640 -0.5452  0.6509 -1.0523
   97SAPS   H9R 9662   3.349   3.542   7.727  0.7718 -2.3164 -0.2101
   97SAPS  C210 9663   3.275   3.349   7.668  0.2051  0.0926 -0.9953
   97SAPS  H10R 9664   3.168   3.330   7.643  0.4410  0.2539 -2.1145
   97SAPS  H10S 9665   3.274   3.333   7.778  0.1551  1.2803 -0.8071
   97SAPS  C211 9666   3.370   3.273   7.584  0.5826  0.5780  0.0175
   97SAPS  H11R 9667   3.352   3.289   7.477  0.3574  1.3278  0.1661
   97SAPS  C212 9668   3.478   3.199   7.624 -0.1250 -0.8097 -0.5526
   97SAPS  H12R 9669   3.535   3.138   7.553 -0.5457 -0.4925 -1.1820
   97SAPS  C213 9670   3.533   3.178   7.762  0.2526 -0.6244  0.3410
   97SAPS  H13R 9671   3.573   3.275   7.800  3.2911 -1.7839  0.2770
   97SAPS  H13S 9672   3.626   3.119   7.748  0.6714  0.4304 -1.5254
   97SAPS  C214 9673   3.445   3.107   7.864 -0.6824 -0.4037  1.0332
   97SAPS  H14R 9674   3.338   3.097   7.843 -0.2684 -0.3302 -1.2175
   97SAPS  C215 9675   3.481   3.074   7.991 -0.4045  0.1199  0.0624
   97SAPS  H15R 9676   3.409   3.035   8.065 -2.8804  1.1721 -1.7133
   97SAPS  C216 9677   3.612   3.115   8.059 -0.9410 -0.2727 -0.4750
   97SAPS  H16R 9678   3.590   3.205   8.120 -0.0274 -1.0910  1.1108
   97SAPS  H16S 9679   3.695   3.129   7.987 -1.1952  1.4401 -0.4491
   97SAPS  C217 9680   3.649   3.003   8.166  0.1509 -0.7993 -0.2749
   97SAPS  H17R 9681   3.556   2.972   8.219  0.5273  0.3169  1.0679
   97SAPS  H17S 9682   3.713   3.043   8.247  1.9057 -1.7296 -1.1745
   97SAPS  C218 9683   3.716   2.879   8.107  0.3980  0.0267 -0.3411
   97SAPS  H18R 9684   3.778   2.902   8.017 -0.0098  0.0889 -0.6065
   97SAPS  H18S 9685   3.632   2.811   8.081 -0.0636  0.0097  1.1482
   97SAPS  C219 9686   3.790   2.794   8.212  0.0199  0.3940  0.2564
   97SAPS  H19R 9687   3.798   2.689   8.177  0.2662  0.7083 -0.6559
   97SAPS  H19S 9688   3.735   2.793   8.309  0.7481 -0.6785  0.6669
   97SAPS  C220 9689   3.935   2.839   8.241  0.3803 -0.3106  0.4683
   97SAPS  H20R 9690   3.928   2.943   8.280  2.6796  0.6094 -1.3934
   97SAPS  H20S 9691   4.006   2.837   8.155 -0.2623  0.5285 -0.1011
   97SAPS  H20T 9692   3.983   2.781   8.322  2.0009  2.4014  1.5139
   97SAPS   C33 9693   3.086   3.146   6.947 -0.5463  0.0720 -0.3378
   97SAPS   H3X 9694   3.173   3.215   6.943  0.0356 -0.6046  0.4387
   97SAPS   H3Y 9695   3.138   3.048   6.956  0.8992  0.9262  0.9246
   97SAPS   C34 9696   3.005   3.167   7.080 -0.5672  0.0657 -0.3857
   97SAPS   H4X 9697   2.967   3.064   7.095  0.2421 -0.0934  0.6312
   97SAPS   H4Y 9698   2.928   3.245   7.061 -1.5271 -0.0413  2.7056
   97SAPS   C35 9699   3.086   3.220   7.201 -0.7468 -0.2427  0.1434
   97SAPS   H5X 9700   3.017   3.259   7.278 -0.9378  0.3829 -0.3370
   97SAPS   H5Y 9701   3.136   3.313   7.167  0.8293 -1.7361 -1.7881
   97SAPS   C36 9702   3.171   3.114   7.273  0.0912 -0.2560 -0.6316
   97SAPS   H6X 9703   3.244   3.169   7.336 -2.4964  1.0717  1.3494
   97SAPS   H6Y 9704   3.220   3.056   7.192 -0.3804  0.8845 -1.7594
   97SAPS   C37 9705   3.090   3.028   7.371 -0.1844 -0.0200 -0.4951
   97SAPS   H7X 9706   3.159   2.944   7.394  0.9522  0.9190 -0.3831
   97SAPS   H7Y 9707   3.008   2.980   7.314 -0.8110 -0.2931  0.6140
   97SAPS   C38 9708   3.042   3.093   7.499 -0.1061  0.2209 -1.0911
   97SAPS   H8X 9709   2.958   3.162   7.478 -0.6140 -1.3810 -4.6482
   97SAPS   H8Y 9710   3.130   3.146   7.542  0.8653 -1.1794 -1.3083
   97SAPS   C39 9711   2.990   2.996   7.606  0.2839 -0.1149  0.6797
   97SAPS   H9X 9712   2.932   2.914   7.559 -1.3892  2.0569 -1.1956
   97SAPS   H9Y 9713   2.932   3.062   7.674 -1.1722 -1.8570  1.1608
   97SAPS  C310 9714   3.109   2.931   7.689 -0.3645 -0.4172  0.2968
   97SAPS  H10X 9715   3.075   2.915   7.793 -0.7703 -0.0362  0.2231
   97SAPS  H10Y 9716   3.188   3.008   7.704 -2.0475  1.1976  1.0738
   97SAPS  C311 9717   3.180   2.804   7.643  0.4516 -1.5826 -0.1393
   97SAPS  H11X 9718   3.224   2.832   7.545  1.3764 -0.2399  0.6498
   97SAPS  H11Y 9719   3.108   2.723   7.617  0.9258 -2.0381 -0.0524
   97SAPS  C312 9720   3.283   2.762   7.745 -0.0649 -0.3823 -0.4889
   97SAPS  H12X 9721   3.234   2.755   7.844 -0.6842  0.6849 -0.7188
   97SAPS  H12Y 9722   3.362   2.840   7.749  1.7793 -2.1482 -1.9826
   97SAPS  C313 9723   3.345   2.628   7.702 -0.4707 -0.6486 -0.2613
   97SAPS  H13X 9724   3.449   2.639   7.665 -0.1715  0.8358  0.9703
   97SAPS  H13Y 9725   3.279   2.585   7.624 -1.4833  1.3618 -0.5359
   97SAPS  C314 9726   3.344   2.515   7.808  0.2603 -1.0317 -0.0028
   97SAPS  H14X 9727   3.364   2.415   7.765 -0.1380 -1.8420  1.6905
   97SAPS  H14Y 9728   3.236   2.508   7.836  0.3462 -0.3407  0.5183
   97SAPS  C315 9729   3.443   2.536   7.920  0.2989  0.3848 -0.4017
   97SAPS  H15X 9730   3.431   2.627   7.982 -0.4734  1.4557 -2.0811
   97SAPS  H15Y 9731   3.541   2.562   7.874 -1.2616  0.7732 -3.6697
   97SAPS  C316 9732   3.454   2.419   8.017  0.3490 -0.4040 -0.0959
   97SAPS  H16X 9733   3.469   2.334   7.947  1.7413  0.1262 -0.4679
   97SAPS  H16Y 9734   3.365   2.401   8.081  0.2074 -0.3558 -0.2838
   97SAPS  C317 9735   3.573   2.419   8.114 -0.2367 -0.5140 -0.2178
   97SAPS  H17X 9736   3.662   2.458   8.060 -0.0408 -3.0166 -1.7903
   97SAPS  H17Y 9737   3.596   2.314   8.145  0.4915 -0.2831  0.0344
   97SAPS  C318 9738   3.557   2.507   8.246 -0.7974  0.6613  1.1091
   97SAPS  H18X 9739   3.648   2.493   8.308 -1.1339 -0.6047  1.3273
   97SAPS  H18Y 9740   3.472   2.467   8.306 -1.0330 -0.3522  0.1115
   97SAPS  H18Z 9741   3.533   2.614   8.230 -3.9863 -0.1444  0.2422
   98SAPS     N 9742   1.119   3.396   5.957  0.3240 -0.0970  0.4639
   98SAPS   HN1 9743   1.120   3.470   5.883  2.4125 -0.4807  0.0635
   98SAPS   HN2 9744   1.018   3.383   5.979  0.5269 -1.2780  0.7141
   98SAPS   HN3 9745   1.184   3.413   6.036  0.5737 -0.8166  0.4144
   98SAPS   C12 9746   1.169   3.274   5.893 -0.5184 -0.2149 -0.0292
   98SAPS  H12A 9747   1.090   3.231   5.834  0.3665 -1.2740 -0.4501
   98SAPS   C13 9748   1.291   3.293   5.813 -0.0906 -0.2783  0.5914
   98SAPS  O13A 9749   1.351   3.406   5.805  0.4211 -0.3602  0.4528
   98SAPS  O13B 9750   1.336   3.198   5.742  0.6960  0.2708  0.6636
   98SAPS   C11 9751   1.205   3.161   6.007 -0.4565  0.3016 -0.1427
   98SAPS  H11A 9752   1.243   3.068   5.960 -0.5425  0.7599 -1.1354
   98SAPS  H11B 9753   1.104   3.147   6.050  0.1666  1.0673  1.5997
   98SAPS     P 9754   1.369   3.134   6.210 -0.1300 -0.0483 -0.1554
   98SAPS   O13 9755   1.446   3.027   6.140  0.3010 -0.5996 -0.9210
   98SAPS   O14 9756   1.448   3.223   6.306 -0.0935 -0.4075 -0.0879
   98SAPS   O12 9757   1.300   3.217   6.101 -0.4994  0.2462  0.9258
   98SAPS   O11 9758   1.246   3.074   6.287  0.8883 -0.0314  0.6205
   98SAPS    C1 9759   1.154   3.133   6.375 -0.7106  0.3074  0.4238
   98SAPS    HA 9760   1.196   3.218   6.432  0.7882  0.3021 -0.6569
   98SAPS    HB 9761   1.074   3.164   6.304  1.1245 -1.7334 -2.6658
   98SAPS    C2 9762   1.098   3.024   6.473  0.2295  0.1947 -0.0920
   98SAPS    HS 9763   1.081   2.929   6.416  0.3929  0.1445 -0.0587
   98SAPS   O21 9764   0.989   3.076   6.550 -0.6812  0.3821 -0.8700
   98SAPS   C21 9765   0.874   3.053   6.486 -0.3739 -0.1821  0.0856
   98SAPS   O22 9766   0.868   2.999   6.379 -0.0918  0.8618  0.2891
   98SAPS   C22 9767   0.760   3.114   6.567 -0.1425 -0.0232 -0.0037
   98SAPS   H2R 9768   0.730   3.048   6.651  1.3085 -2.5343 -1.3851
   98SAPS   H2S 9769   0.795   3.210   6.611  2.1573 -1.5672  1.6416
   98SAPS    C3 9770   1.219   2.970   6.564  0.3566 -0.4029  0.1948
   98SAPS    HX 9771   1.296   2.925   6.498  1.0154 -0.1706  0.7959
   98SAPS    HY 9772   1.177   2.885   6.621 -1.0042 -0.2211 -0.5237
   98SAPS   O31 9773   1.285   3.068   6.648 -0.0745 -0.7900 -0.3770
   98SAPS   C31 9774   1.298   3.032   6.771 -0.5928 -0.6162  0.5158
   98SAPS   O32 9775   1.275   2.923   6.824 -0.4320  0.2450 -0.0418
   98SAPS   C32 9776   1.337   3.160   6.849 -0.5081 -0.6300  0.2474
   98SAPS   H2X 9777   1.274   3.244   6.812 -1.3219 -1.6004 -0.5933
   98SAPS   H2Y 9778   1.444   3.183   6.830 -0.1467 -1.8181  0.8094
   98SAPS   C23 9779   0.625   3.139   6.484  0.0205 -0.4056  0.2294
   98SAPS   H3R 9780   0.622   3.061   6.405  3.3776 -1.5613  1.1676
   98SAPS   H3S 9781   0.627   3.237   6.432  1.3117  1.2461  3.2873
   98SAPS   C24 9782   0.505   3.142   6.581  0.2722 -0.5697  0.3387
   98SAPS   H4R 9783   0.421   3.201   6.537 -0.4693 -2.3581 -0.6837
   98SAPS   H4S 9784   0.545   3.195   6.670 -0.9045 -1.4066  1.3835
   98SAPS   C25 9785   0.461   3.002   6.599  0.2030 -0.1465 -0.6599
   98SAPS   H5R 9786   0.418   2.952   6.510 -0.1735  1.2744 -1.2860
   98SAPS   C26 9787   0.463   2.940   6.715  0.2248 -0.1026  0.5081
   98SAPS   H6R 9788   0.448   2.831   6.721  0.2066 -0.3037 -2.6188
   98SAPS   C27 9789   0.504   2.984   6.859  0.5745  0.0421  0.2265
   98SAPS   H7R 9790   0.520   3.093   6.872  1.7014  0.0663 -1.2447
   98SAPS   H7S 9791   0.606   2.940   6.861  0.5869  0.1083  1.1833
   98SAPS   C28 9792   0.409   2.918   6.960 -1.1466 -0.0330 -0.0151
   98SAPS   H8R 9793   0.425   2.811   6.975  0.3206  0.3226  1.0626
   98SAPS   C29 9794   0.305   2.974   7.022 -0.2046  0.8037 -0.4830
   98SAPS   H9R 9795   0.249   2.907   7.089  0.1505 -0.6975 -1.6696
   98SAPS  C210 9796   0.245   3.114   7.007 -0.6271 -1.3168  0.5352
   98SAPS  H10R 9797   0.315   3.175   6.946 -1.6867  0.9016  1.4845
   98SAPS  H10S 9798   0.225   3.160   7.106  1.2242 -0.6799  0.6435
   98SAPS  C211 9799   0.119   3.106   6.926  0.6044 -0.3494 -0.3421
   98SAPS  H11R 9800   0.139   3.103   6.818  0.2200  0.5417 -0.4505
   98SAPS  C212 9801  -0.010   3.126   6.971  0.3694 -0.2539 -0.6958
   98SAPS  H12R 9802  -0.096   3.118   6.904  0.1198  0.4119 -0.4631
   98SAPS  C213 9803  -0.054   3.163   7.118  0.1810  0.2599 -0.1486
   98SAPS  H13R 9804  -0.162   3.139   7.118  0.1017  0.6168  0.3760
   98SAPS  H13S 9805  -0.046   3.272   7.136 -0.3222  0.6010 -1.8487
   98SAPS  C214 9806   0.010   3.080   7.230  0.4494 -0.5285  0.5423
   98SAPS  H14R 9807   0.075   2.992   7.220 -0.2326 -1.3676  2.9962
   98SAPS  C215 9808  -0.001   3.112   7.359 -0.0850  0.3290 -0.8110
   98SAPS  H15R 9809   0.046   3.039   7.425 -1.3857 -0.6244 -0.9194
   98SAPS  C216 9810  -0.095   3.226   7.407 -0.0574 -0.7835  0.0371
   98SAPS  H16R 9811  -0.180   3.243   7.337 -0.0332 -1.3413 -0.1278
   98SAPS  H16S 9812  -0.040   3.322   7.394 -0.6625 -0.5333 -0.7511
   98SAPS  C217 9813  -0.159   3.201   7.541  1.0889  0.0445  0.0188
   98SAPS  H17R 9814  -0.246   3.133   7.527  0.1155  1.5064 -1.1981
   98SAPS  H17S 9815  -0.211   3.295   7.568 -0.4367 -0.7351 -0.1731
   98SAPS  C218 9816  -0.075   3.180   7.667  0.0337  0.0564  0.1341
   98SAPS  H18R 9817  -0.029   3.278   7.693 -2.0355  0.6597  1.6773
   98SAPS  H18S 9818   0.007   3.108   7.647 -0.5672 -0.3795 -0.8156
   98SAPS  C219 9819  -0.153   3.142   7.793  0.4365 -0.7120  0.0816
   98SAPS  H19R 9820  -0.181   3.036   7.807 -1.2777 -0.1497  1.0638
   98SAPS  H19S 9821  -0.251   3.193   7.801  1.0789  0.5582  0.0849
   98SAPS  C220 9822  -0.076   3.183   7.923  0.2255  1.0275 -0.7534
   98SAPS  H20R 9823  -0.070   3.294   7.911 -0.9517  0.9913 -1.8067
   98SAPS  H20S 9824   0.023   3.134   7.914 -0.2590 -0.0686 -0.1591
   98SAPS  H20T 9825  -0.133   3.143   8.009 -0.0038 -3.1023 -2.7169
   98SAPS   C33 9826   1.327   3.145   6.998  0.0150 -0.2246 -0.2441
   98SAPS   H3X 9827   1.398   3.073   7.043 -1.5997 -0.1940  2.4554
   98SAPS   H3Y 9828   1.224   3.112   7.024 -0.2225 -0.1023 -0.9950
   98SAPS   C34 9829   1.350   3.282   7.072  0.5339 -0.7861 -0.0894
   98SAPS   H4X 9830   1.299   3.362   7.016 -1.0473 -1.9831 -0.3917
   98SAPS   H4Y 9831   1.460   3.290   7.058  0.2553  1.5495 -1.1510
   98SAPS   C35 9832   1.317   3.284   7.222 -0.2266  0.2052 -0.4352
   98SAPS   H5X 9833   1.364   3.191   7.261 -0.1585 -0.9510 -3.1691
   98SAPS   H5Y 9834   1.206   3.284   7.230 -0.2582  0.7086 -0.8617
   98SAPS   C36 9835   1.362   3.409   7.295 -0.2477 -0.2202 -0.4131
   98SAPS   H6X 9836   1.323   3.488   7.229  3.0279  0.1289 -2.0073
   98SAPS   H6Y 9837   1.473   3.412   7.302 -0.4274  0.2462  3.1877
   98SAPS   C37 9838   1.311   3.418   7.439  0.4006  0.5318  0.1744
   98SAPS   H7X 9839   1.324   3.317   7.483 -0.3683 -0.3354 -1.5370
   98SAPS   H7Y 9840   1.203   3.440   7.455 -0.4947 -0.6951 -3.5733
   98SAPS   C38 9841   1.391   3.521   7.510 -0.0237 -0.3418  0.4605
   98SAPS   H8X 9842   1.404   3.615   7.453  2.8196 -1.6883 -1.2336
   98SAPS   H8Y 9843   1.483   3.469   7.546 -0.7070 -1.2673  0.9258
   98SAPS   C39 9844   1.320   3.563   7.645 -0.1995 -0.0023  0.1893
   98SAPS   H9X 9845   1.299   3.466   7.697 -0.0223  0.3311  0.8956
   98SAPS   H9Y 9846   1.220   3.605   7.621 -1.6866 -2.3250  2.0343
   98SAPS  C310 9847   1.408   3.651   7.738 -0.1347 -0.3606 -0.0580
   98SAPS  H10X 9848   1.432   3.748   7.689  0.7938  0.7785  2.5440
   98SAPS  H10Y 9849   1.502   3.591   7.740 -0.9424 -1.7140 -1.6689
   98SAPS  C311 9850   1.363   3.673   7.881  0.0467 -0.1999 -0.4071
   98SAPS  H11X 9851   1.352   3.570   7.921 -2.0434 -0.5353 -1.7784
   98SAPS  H11Y 9852   1.261   3.717   7.879  0.3094  0.3820 -1.0151
   98SAPS  C312 9853   1.456   3.760   7.970 -0.5925 -0.0969  0.4753
   98SAPS  H12X 9854   1.408   3.761   8.070 -1.8787 -1.8881 -0.0893
   98SAPS  H12Y 9855   1.461   3.862   7.926 -0.5948  0.8310  2.5653
   98SAPS  C313 9856   1.599   3.707   7.988 -0.0353 -0.8466  0.3348
   98SAPS  H13X 9857   1.654   3.734   7.895 -0.3174 -1.3036  0.0324
   98SAPS  H13Y 9858   1.597   3.597   8.008 -0.4326 -1.0815 -0.9609
   98SAPS  C314 9859   1.688   3.784   8.088  0.6819  0.1920  0.2017
   98SAPS  H14X 9860   1.643   3.781   8.189 -1.3925  0.6129 -0.6856
   98SAPS  H14Y 9861   1.719   3.884   8.049  3.7720 -0.3531  1.0904
   98SAPS  C315 9862   1.829   3.724   8.101 -0.4089  0.1399  0.1114
   98SAPS  H15X 9863   1.901   3.800   8.136 -1.2439  0.4753  1.1100
   98SAPS  H15Y 9864   1.867   3.698   7.999  3.6805  0.2041  1.5195
   98SAPS  C316 9865   1.837   3.578   8.165  0.0018 -0.1769  0.4251
   98SAPS  H16X 9866   1.783   3.509   8.097 -0.4266 -0.5172  1.1013
   98SAPS  H16Y 9867   1.781   3.566   8.260 -0.8830 -0.3546 -0.1126
   98SAPS  C317 9868   1.985   3.525   8.160 -0.6960 -0.9178 -1.1073
   98SAPS  H17X 9869   2.041   3.605   8.214 -0.1086 -2.4009  0.5083
   98SAPS  H17Y 9870   2.029   3.540   8.059 -1.5827  0.2866 -1.3332
   98SAPS  C318 9871   2.010   3.391   8.218  0.4601 -0.3756  0.4164
   98SAPS  H18X 9872   2.106   3.339   8.196  0.6727  0.7170 -1.2846
   98SAPS  H18Y 9873   1.928   3.324   8.186 -0.3162  1.3223 -1.2314
   98SAPS  H18Z 9874   2.005   3.397   8.329 -3.3179 -0.7805  0.3289
   99SAPS     N 9875   6.304   0.956   5.845  0.9685 -0.5612 -0.5568
   99SAPS   HN1 9876   6.332   1.032   5.780 -2.1125  0.1577 -1.1080
   99SAPS   HN2 9877   6.282   0.881   5.775 -1.6961  0.0852 -0.4815
   99SAPS   HN3 9878   6.223   1.000   5.894 -0.0085  2.1068 -4.3309
   99SAPS   C12 9879   6.425   0.921   5.927 -0.4481  0.7053 -0.1197
   99SAPS  H12A 9880   6.402   0.821   5.959 -1.1155  0.6899 -0.6368
   99SAPS   C13 9881   6.553   0.912   5.835  0.7740  0.5162 -0.6896
   99SAPS  O13A 9882   6.539   0.935   5.712 -0.0603 -0.0536  0.3195
   99SAPS  O13B 9883   6.655   0.859   5.884  0.7327 -0.1283  0.6364
   99SAPS   C11 9884   6.450   1.027   6.048  0.1919 -0.3028  0.2117
   99SAPS  H11A 9885   6.449   1.119   5.987 -0.4194 -0.2625  0.2854
   99SAPS  H11B 9886   6.543   0.983   6.093  0.8558  0.5824 -0.2822
   99SAPS     P 9887   6.347   1.093   6.279  0.1692 -0.0905 -0.3257
   99SAPS   O13 9888   6.450   1.197   6.271 -0.2394 -0.1161  0.3697
   99SAPS   O14 9889   6.219   1.133   6.346 -0.1208 -0.3804 -0.0130
   99SAPS   O12 9890   6.336   1.024   6.139 -0.5080 -0.5192  0.0889
   99SAPS   O11 9891   6.409   0.967   6.365 -0.3542  0.0954 -0.6869
   99SAPS    C1 9892   6.338   0.843   6.357 -0.7968 -0.1645 -0.1391
   99SAPS    HA 9893   6.229   0.864   6.362 -1.0733 -1.5483 -0.1136
   99SAPS    HB 9894   6.362   0.798   6.258 -1.7674 -0.3267 -0.3018
   99SAPS    C2 9895   6.364   0.741   6.473  0.6342  0.4460  0.6242
   99SAPS    HS 9896   6.301   0.652   6.454 -0.0184  1.1597 -0.5628
   99SAPS   O21 9897   6.333   0.812   6.590 -0.2809  0.4855  0.0036
   99SAPS   C21 9898   6.269   0.744   6.683 -0.1287 -0.4163 -0.1497
   99SAPS   O22 9899   6.237   0.624   6.669  0.6554  0.8686 -0.2487
   99SAPS   C22 9900   6.245   0.833   6.803 -0.1752 -0.1840 -0.5858
   99SAPS   H2R 9901   6.268   0.936   6.768 -1.6456  0.6803  0.9277
   99SAPS   H2S 9902   6.136   0.836   6.825  0.1494 -0.1317  1.0932
   99SAPS    C3 9903   6.509   0.688   6.478  0.0772  0.6034  0.2572
   99SAPS    HX 9904   6.585   0.769   6.477 -1.6923  2.3764 -3.2408
   99SAPS    HY 9905   6.529   0.637   6.381 -0.9104 -0.5947  0.6770
   99SAPS   O31 9906   6.541   0.598   6.586  0.3355  0.6976  0.1761
   99SAPS   C31 9907   6.514   0.465   6.567 -0.4418 -0.2949 -0.0874
   99SAPS   O32 9908   6.442   0.415   6.482  0.0303  0.0177  0.5368
   99SAPS   C32 9909   6.561   0.397   6.689 -0.3596  0.3396  0.0512
   99SAPS   H2X 9910   6.550   0.459   6.780  0.2269  0.3612  0.1098
   99SAPS   H2Y 9911   6.671   0.384   6.685 -0.4156 -0.8427  1.7398
   99SAPS   C23 9912   6.330   0.800   6.926  0.1267 -0.5834  0.5034
   99SAPS   H3R 9913   6.327   0.888   6.993 -0.6896  1.1030 -1.6928
   99SAPS   H3S 9914   6.436   0.791   6.894 -0.2537  0.6367 -1.1200
   99SAPS   C24 9915   6.287   0.668   6.990 -0.7583 -0.5785  0.1375
   99SAPS   H4R 9916   6.364   0.650   7.068 -0.0788  0.8854 -0.1640
   99SAPS   H4S 9917   6.290   0.589   6.912 -0.3121  0.5081 -0.9807
   99SAPS   C25 9918   6.154   0.690   7.067  0.2543 -0.6241 -0.0249
   99SAPS   H5R 9919   6.065   0.714   7.007  2.3999  0.0581 -3.0730
   99SAPS   C26 9920   6.140   0.690   7.203 -0.4493 -0.2054  0.0132
   99SAPS   H6R 9921   6.040   0.707   7.245 -0.0544  0.3510  0.7355
   99SAPS   C27 9922   6.240   0.664   7.306  0.7624  0.0366 -1.2163
   99SAPS   H7R 9923   6.319   0.592   7.275  0.1490 -0.9443 -0.5213
   99SAPS   H7S 9924   6.189   0.624   7.396 -1.8723  1.6978 -1.9343
   99SAPS   C28 9925   6.317   0.788   7.349 -0.4105 -0.4835 -0.9130
   99SAPS   H8R 9926   6.369   0.829   7.260  0.6997  0.2828  0.0738
   99SAPS   C29 9927   6.330   0.847   7.476  0.6036 -0.5987 -0.1340
   99SAPS   H9R 9928   6.392   0.938   7.474 -1.4720  0.9492  3.0170
   99SAPS  C210 9929   6.263   0.802   7.604 -0.3178 -0.4430 -0.4566
   99SAPS  H10R 9930   6.197   0.715   7.589  0.1353 -1.0651  1.1426
   99SAPS  H10S 9931   6.188   0.881   7.626 -0.6267 -0.4134 -1.5812
   99SAPS  C211 9932   6.350   0.794   7.729  0.5523 -0.0546  0.1710
   99SAPS  H11R 9933   6.374   0.688   7.750  0.6146  0.3408  2.1879
   99SAPS  C212 9934   6.401   0.897   7.809 -0.3882 -0.3045 -0.7973
   99SAPS  H12R 9935   6.459   0.874   7.899  2.2071  0.9232 -2.0946
   99SAPS  C213 9936   6.368   1.041   7.770 -0.0705 -0.2690 -0.0184
   99SAPS  H13R 9937   6.261   1.067   7.785  0.2075  0.9231 -0.0392
   99SAPS  H13S 9938   6.388   1.057   7.662  0.7942  1.4710  0.3626
   99SAPS  C214 9939   6.455   1.141   7.839 -0.5864  0.0171 -0.4200
   99SAPS  H14R 9940   6.483   1.106   7.940 -2.0787 -0.9116 -0.3096
   99SAPS  C215 9941   6.488   1.270   7.808 -0.8390  0.5501  0.4008
   99SAPS  H15R 9942   6.549   1.336   7.871  0.1304  1.3590 -1.3402
   99SAPS  C216 9943   6.438   1.329   7.680 -0.7772  0.3282 -0.1794
   99SAPS  H16R 9944   6.327   1.329   7.682 -0.7885 -0.1008 -0.7384
   99SAPS  H16S 9945   6.471   1.282   7.585 -0.0702  1.2301 -0.3903
   99SAPS  C217 9946   6.479   1.476   7.692  0.2415 -0.2363  0.0193
   99SAPS  H17R 9947   6.588   1.489   7.706  0.3522 -2.9090  2.1371
   99SAPS  H17S 9948   6.420   1.533   7.766  1.1811 -0.1442  0.7089
   99SAPS  C218 9949   6.452   1.548   7.559 -0.2681 -0.0094  0.0306
   99SAPS  H18R 9950   6.344   1.549   7.533  0.3670  0.9152 -2.7647
   99SAPS  H18S 9951   6.496   1.489   7.476  1.4210  0.0024  0.9053
   99SAPS  C219 9952   6.513   1.685   7.560 -0.3785 -0.4250 -0.1920
   99SAPS  H19R 9953   6.619   1.686   7.591 -0.8874  1.0339  1.6354
   99SAPS  H19S 9954   6.466   1.749   7.638  0.8435 -0.4417  0.5737
   99SAPS  C220 9955   6.490   1.764   7.432  0.0034  0.0266 -0.5434
   99SAPS  H20R 9956   6.382   1.780   7.414  0.0662 -1.7478 -2.6848
   99SAPS  H20S 9957   6.531   1.729   7.335 -0.2738  0.4136 -0.7979
   99SAPS  H20T 9958   6.538   1.864   7.436  1.1519 -0.3163 -4.1044
   99SAPS   C33 9959   6.504   0.256   6.729 -0.2664 -0.1760  0.2396
   99SAPS   H3X 9960   6.472   0.200   6.638  0.1800  0.4100 -0.2817
   99SAPS   H3Y 9961   6.415   0.278   6.792 -0.2440 -0.7645  0.4840
   99SAPS   C34 9962   6.599   0.161   6.808  0.3762 -0.7051 -0.8079
   99SAPS   H4X 9963   6.663   0.109   6.733 -2.1931 -4.1970 -0.7099
   99SAPS   H4Y 9964   6.539   0.081   6.856 -0.3805 -0.0278 -0.6195
   99SAPS   C35 9965   6.676   0.228   6.920 -0.5210 -0.1999 -0.5144
   99SAPS   H5X 9966   6.602   0.292   6.972  0.0844  0.6480 -0.6830
   99SAPS   H5Y 9967   6.748   0.303   6.880  0.7844 -1.9853 -1.5440
   99SAPS   C36 9968   6.748   0.135   7.020  0.5662 -0.5437  0.2881
   99SAPS   H6X 9969   6.799   0.052   6.968  0.4140  0.0106 -0.7667
   99SAPS   H6Y 9970   6.666   0.091   7.081  1.2181 -1.3967  0.5533
   99SAPS   C37 9971   6.849   0.211   7.102 -0.0997 -0.3523  0.4629
   99SAPS   H7X 9972   6.805   0.297   7.157  0.1990 -0.8147  1.4275
   99SAPS   H7Y 9973   6.914   0.262   7.027 -1.1248  1.4717  0.7873
   99SAPS   C38 9974   6.911   0.127   7.219  0.2926 -0.2723 -0.4800
   99SAPS   H8X 9975   6.973   0.194   7.283  0.0801 -0.7954  0.2862
   99SAPS   H8Y 9976   6.978   0.050   7.176  1.8975  0.6982  0.2469
   99SAPS   C39 9977   6.807   0.065   7.310 -0.0683  0.1231 -0.0724
   99SAPS   H9X 9978   6.752  -0.019   7.262  1.1187 -1.2333  0.9027
   99SAPS   H9Y 9979   6.724   0.134   7.336 -0.8443 -0.4076 -1.0941
   99SAPS  C310 9980   6.864   0.014   7.445  0.4522  0.0070 -0.5823
   99SAPS  H10X 9981   6.912   0.102   7.492  3.1196 -0.7294 -1.8498
   99SAPS  H10Y 9982   6.950  -0.052   7.421 -0.0089 -0.6272 -0.5113
   99SAPS  C311 9983   6.766  -0.063   7.539 -0.0636  0.2076  0.5369
   99SAPS  H11X 9984   6.816  -0.146   7.593 -0.3839  1.0306  2.1058
   99SAPS  H11Y 9985   6.691  -0.109   7.471 -0.1847  0.3504  0.5743
   99SAPS  C312 9986   6.697   0.019   7.648 -0.5334 -0.4492 -0.8799
   99SAPS  H12X 9987   6.589   0.025   7.622 -0.7205  1.6380  0.2921
   99SAPS  H12Y 9988   6.741   0.121   7.648  0.4914 -0.8752 -0.1635
   99SAPS  C313 9989   6.715  -0.028   7.793  0.4377  0.2659  0.5292
   99SAPS  H13X 9990   6.822  -0.018   7.822  0.3500  2.6925  0.0994
   99SAPS  H13Y 9991   6.677  -0.133   7.798  0.2040  0.3155 -0.1883
   99SAPS  C314 9992   6.622   0.037   7.885  0.7724  0.4201 -0.1080
   99SAPS  H14X 9993   6.518   0.023   7.849  0.6581  0.4718  0.2048
   99SAPS  H14Y 9994   6.643   0.146   7.888  0.2353  0.5382 -0.5486
   99SAPS  C315 9995   6.642   0.008   8.036  0.4012 -0.4381  0.0784
   99SAPS  H15X 9996   6.575   0.077   8.092 -1.7085 -2.1302 -0.2961
   99SAPS  H15Y 9997   6.746   0.032   8.067  0.9194 -1.4701 -0.8193
   99SAPS  C316 9998   6.613  -0.140   8.076 -0.1519 -0.9486 -0.0399
   99SAPS  H16X 9999   6.659  -0.163   8.175 -0.9316 -0.0417  0.5431
   99SAPS  H16Y10000   6.653  -0.207   7.996 -1.6783  0.3437 -1.9328
   99SAPS  C31710001   6.462  -0.168   8.087  0.4739 -0.4249 -0.2010
   99SAPS  H17X10002   6.405  -0.150   7.994 -0.7654  1.3389  0.8463
   99SAPS  H17Y10003   6.413  -0.110   8.169  0.0407 -3.0204  1.4166
   99SAPS  C31810004   6.457  -0.321   8.113  0.0383  0.2005 -0.1507
   99SAPS  H18X10005   6.489  -0.382   8.026  1.1844  2.4805 -1.3590
   99SAPS  H18Y10006   6.354  -0.341   8.149  0.0062  1.0751  0.2610
   99SAPS  H18Z10007   6.525  -0.355   8.194  1.4522  0.5712 -1.1674
  100SAPS     N10008   2.919   3.173   6.309  0.1326 -0.6798  0.1599
  100SAPS   HN110009   2.948   3.268   6.279  0.9196 -0.2653  2.1097
  100SAPS   HN210010   2.832   3.176   6.365 -0.9133 -0.9858 -1.4340
  100SAPS   HN310011   2.994   3.123   6.361 -0.2551 -1.0037  0.4146
  100SAPS   C1210012   2.890   3.086   6.188 -0.6974 -0.3506 -0.2642
  100SAPS  H12A10013   2.821   3.010   6.223 -0.5359 -0.0466  0.7270
  100SAPS   C1310014   2.835   3.169   6.068  0.1615  0.0770  0.5383
  100SAPS  O13A10015   2.815   3.289   6.066  0.2921 -0.2487 -0.5299
  100SAPS  O13B10016   2.813   3.102   5.961 -0.0782 -0.2933  0.5092
  100SAPS   C1110017   3.028   3.028   6.145 -0.2478  0.1047 -0.2692
  100SAPS  H11A10018   3.097   3.110   6.117 -1.2489  0.7326 -0.9209
  100SAPS  H11B10019   3.018   2.953   6.064  1.2835  1.6792 -1.9593
  100SAPS     P10020   3.178   2.846   6.266 -0.1350 -0.0818 -0.6371
  100SAPS   O1310021   3.115   2.721   6.231  0.3687  0.1854  0.0043
  100SAPS   O1410022   3.305   2.880   6.190  0.0588 -0.3489  0.0721
  100SAPS   O1210023   3.077   2.964   6.261  0.7545  0.1378 -0.2325
  100SAPS   O1110024   3.223   2.832   6.413  0.3812  0.3091 -0.0912
  100SAPS    C110025   3.291   2.928   6.493 -0.5084  0.3874  0.2268
  100SAPS    HA10026   3.388   2.963   6.451  0.2172  0.3326  1.8209
  100SAPS    HB10027   3.224   3.016   6.503 -0.4738  0.4022  0.3310
  100SAPS    C210028   3.310   2.861   6.630  0.3362 -0.1959  0.1328
  100SAPS    HS10029   3.380   2.776   6.612  1.8094  0.5378  2.2825
  100SAPS   O2110030   3.177   2.829   6.680  0.2187 -0.0411  0.1166
  100SAPS   C2110031   3.176   2.738   6.776 -0.0872 -0.1189 -0.0743
  100SAPS   O2210032   3.276   2.675   6.820  0.8803  0.4796  0.3454
  100SAPS   C2210033   3.037   2.742   6.842 -0.0288 -0.7733  0.2886
  100SAPS   H2R10034   3.028   2.852   6.859  1.4929 -1.0771  3.3396
  100SAPS   H2S10035   2.966   2.721   6.759 -1.6240 -2.5385  2.0599
  100SAPS    C310036   3.391   2.951   6.722  0.3446 -0.4500  0.0314
  100SAPS    HX10037   3.359   3.056   6.703  0.3837 -0.5438 -0.5481
  100SAPS    HY10038   3.494   2.943   6.682  0.0777  0.4331 -0.8675
  100SAPS   O3110039   3.382   2.933   6.858  0.1121 -0.3737 -0.1814
  100SAPS   C3110040   3.497   2.883   6.921  0.1093  0.1533  0.2781
  100SAPS   O3210041   3.598   2.846   6.863  0.0911  0.4634 -0.3690
  100SAPS   C3210042   3.477   2.883   7.074  0.2708  0.1290 -0.2319
  100SAPS   H2X10043   3.406   2.799   7.091 -1.0521  1.0395 -1.1528
  100SAPS   H2Y10044   3.428   2.976   7.109  2.7890  0.8643  1.4853
  100SAPS   C2310045   3.012   2.652   6.969  0.3255  0.1229 -0.2856
  100SAPS   H3R10046   3.048   2.549   6.946  0.4934 -0.2078  1.3613
  100SAPS   H3S10047   2.903   2.634   6.978  0.1798  1.4672  0.8095
  100SAPS   C2410048   3.079   2.716   7.098  0.7456  0.2238 -0.1967
  100SAPS   H4R10049   3.034   2.814   7.123  0.1550  0.0665 -0.6218
  100SAPS   H4S10050   3.185   2.741   7.078  0.8583  1.1438  1.4776
  100SAPS   C2510051   3.078   2.618   7.215  0.1734 -0.3014  0.0541
  100SAPS   H5R10052   2.980   2.612   7.264  0.3865  0.0539  0.5250
  100SAPS   C2610053   3.171   2.522   7.239 -0.0826 -0.0231  0.6002
  100SAPS   H6R10054   3.177   2.469   7.335 -0.2769 -2.2919 -0.6218
  100SAPS   C2710055   3.292   2.490   7.154 -0.2711 -0.2653  0.0417
  100SAPS   H7R10056   3.376   2.553   7.191  1.0078 -1.8961 -0.0260
  100SAPS   H7S10057   3.272   2.534   7.054 -0.4119 -1.5266 -0.4949
  100SAPS   C2810058   3.332   2.345   7.149  0.0444  0.7598  0.5260
  100SAPS   H8R10059   3.308   2.292   7.056  0.3945  0.5494  0.5553
  100SAPS   C2910060   3.391   2.269   7.248  0.3157  0.1383 -0.3592
  100SAPS   H9R10061   3.421   2.168   7.216 -0.2073  0.6943 -2.6883
  100SAPS  C21010062   3.427   2.315   7.385 -0.4545 -0.8421 -0.9419
  100SAPS  H10R10063   3.387   2.411   7.426  1.0171 -1.2150  1.4850
  100SAPS  H10S10064   3.538   2.322   7.389 -0.5009  1.1520 -2.2626
  100SAPS  C21110065   3.385   2.200   7.471  1.0516  0.5645  0.3237
  100SAPS  H11R10066   3.278   2.180   7.481  1.0259  0.1557 -0.7239
  100SAPS  C21210067   3.472   2.131   7.550  0.6993 -0.4393  0.4054
  100SAPS  H12R10068   3.433   2.052   7.616  0.5635 -0.0536  0.7910
  100SAPS  C21310069   3.617   2.155   7.565 -0.0383 -0.3186  0.4259
  100SAPS  H13R10070   3.665   2.176   7.467 -0.3060  1.1349  0.6054
  100SAPS  H13S10071   3.659   2.058   7.602  0.5243 -0.9769 -1.8270
  100SAPS  C21410072   3.645   2.267   7.661  0.2460 -0.5511 -0.5094
  100SAPS  H14R10073   3.602   2.359   7.620 -0.8937 -1.4445 -1.3460
  100SAPS  C21510074   3.720   2.275   7.775  0.4026 -0.0727 -0.0739
  100SAPS  H15R10075   3.730   2.374   7.824 -0.2601 -1.1988  2.4124
  100SAPS  C21610076   3.814   2.170   7.835  0.7617 -0.3817  0.2136
  100SAPS  H16R10077   3.913   2.201   7.797  0.2657 -0.2469 -1.0008
  100SAPS  H16S10078   3.798   2.067   7.798 -0.9414 -0.2231  0.4462
  100SAPS  C21710079   3.817   2.167   7.990 -0.2844  0.3400 -0.2769
  100SAPS  H17R10080   3.714   2.159   8.031  0.6871 -0.7632  2.0267
  100SAPS  H17S10081   3.856   2.261   8.036 -0.5711  1.0008 -1.3652
  100SAPS  C21810082   3.888   2.042   8.029  0.9568  0.2072 -0.6927
  100SAPS  H18R10083   3.983   2.040   7.972  0.5510  1.8879 -1.4476
  100SAPS  H18S10084   3.828   1.956   7.994 -0.4762  1.2267 -0.7753
  100SAPS  C21910085   3.908   2.027   8.174 -0.4763 -0.0375  0.1586
  100SAPS  H19R10086   3.814   2.017   8.232  0.1222 -1.7827  0.8423
  100SAPS  H19S10087   3.951   2.124   8.208 -0.9460 -0.0358  0.7552
  100SAPS  C22010088   4.000   1.909   8.213  0.3273 -1.0101 -0.6037
  100SAPS  H20R10089   4.089   1.938   8.154 -0.0512  1.8810  0.1932
  100SAPS  H20S10090   3.950   1.816   8.178 -0.2390 -1.0112  0.1812
  100SAPS  H20T10091   4.005   1.894   8.323  1.5294 -0.2973 -0.5624
  100SAPS   C3310092   3.611   2.856   7.147  0.2881  0.5234  0.2661
  100SAPS   H3X10093   3.682   2.940   7.133  1.4991 -0.8375 -2.1138
  100SAPS   H3Y10094   3.644   2.755   7.115  0.3961  0.3290  0.9788
  100SAPS   C3410095   3.578   2.843   7.296  0.5385  0.2405  0.5665
  100SAPS   H4X10096   3.497   2.769   7.316  2.8223 -2.2420  0.9649
  100SAPS   H4Y10097   3.542   2.942   7.331  0.3157 -0.1084  1.3459
  100SAPS   C3510098   3.689   2.787   7.380  0.2777 -0.4367 -0.2260
  100SAPS   H5X10099   3.786   2.834   7.353  0.6597 -1.4995 -0.7354
  100SAPS   H5Y10100   3.714   2.680   7.364 -1.0224 -0.5795 -1.4225
  100SAPS   C3610101   3.665   2.839   7.523 -0.2056  0.7615 -0.4692
  100SAPS   H6X10102   3.558   2.820   7.549 -0.5152  1.4833 -1.2092
  100SAPS   H6Y10103   3.663   2.950   7.523 -1.2031  0.7493 -0.5407
  100SAPS   C3710104   3.773   2.773   7.611  0.0856  0.4684 -0.7758
  100SAPS   H7X10105   3.875   2.799   7.576  0.2292  2.2576  0.9419
  100SAPS   H7Y10106   3.775   2.664   7.590  2.5308 -0.0885  2.0116
  100SAPS   C3810107   3.770   2.803   7.754  0.1246  0.6610  0.0098
  100SAPS   H8X10108   3.670   2.784   7.799  0.6436  1.6905  1.6800
  100SAPS   H8Y10109   3.791   2.912   7.763  0.0437  0.7550 -0.9672
  100SAPS   C3910110   3.864   2.705   7.838 -0.3554  0.6840  0.2621
  100SAPS   H9X10111   3.811   2.607   7.827  0.4063  0.2753  0.2247
  100SAPS   H9Y10112   3.851   2.749   7.939  2.2397  1.3267  0.3456
  100SAPS  C31010113   4.015   2.699   7.789 -1.4821  0.1709  0.7022
  100SAPS  H10X10114   4.052   2.797   7.752 -0.4729 -0.5632 -0.2765
  100SAPS  H10Y10115   4.026   2.635   7.698 -0.2384  1.3810 -0.0189
  100SAPS  C31110116   4.118   2.649   7.900 -0.2032  0.3784  0.5462
  100SAPS  H11X10117   4.127   2.724   7.981  0.8004  0.8670 -0.0108
  100SAPS  H11Y10118   4.222   2.641   7.862 -0.4794 -0.2991 -0.0870
  100SAPS  C31210119   4.075   2.518   7.968  0.4399 -0.3822 -0.1009
  100SAPS  H12X10120   4.070   2.443   7.887  1.8247 -0.1792 -0.3947
  100SAPS  H12Y10121   3.982   2.546   8.022  1.4244 -3.5040  3.4732
  100SAPS  C31310122   4.168   2.470   8.080  0.4906 -0.5409 -0.0368
  100SAPS  H13X10123   4.111   2.420   8.162 -0.7658 -0.3584 -0.7854
  100SAPS  H13Y10124   4.228   2.547   8.133  0.3412  0.7067 -1.6715
  100SAPS  C31410125   4.259   2.354   8.054 -0.2497  0.3743  0.3794
  100SAPS  H14X10126   4.312   2.369   7.957  0.8249  0.1201  0.9168
  100SAPS  H14Y10127   4.199   2.261   8.043  2.5889 -1.4906  0.0962
  100SAPS  C31510128   4.369   2.343   8.158 -0.3524 -0.1536  0.0064
  100SAPS  H15X10129   4.321   2.337   8.258 -0.4990 -0.6789 -0.0917
  100SAPS  H15Y10130   4.434   2.433   8.159  0.1086 -0.4821 -0.2913
  100SAPS  C31610131   4.456   2.224   8.144 -0.3557  0.4973 -0.1129
  100SAPS  H16X10132   4.501   2.243   8.044 -3.8899 -0.1602 -1.9132
  100SAPS  H16Y10133   4.389   2.136   8.135 -1.7542  1.5192 -0.0367
  100SAPS  C31710134   4.548   2.188   8.262  0.4465  0.2600 -0.2874
  100SAPS  H17X10135   4.611   2.270   8.304  2.7600 -0.2153 -2.7587
  100SAPS  H17Y10136   4.627   2.120   8.226 -0.6150 -0.2088 -1.7987
  100SAPS  C31810137   4.477   2.121   8.379  0.8216 -0.4405 -0.5030
  100SAPS  H18X10138   4.542   2.133   8.469 -0.6242 -0.4732  0.5569
  100SAPS  H18Y10139   4.456   2.012   8.369 -0.8249 -0.2509  0.7597
  100SAPS  H18Z10140   4.380   2.170   8.399  0.5194 -1.2598  0.0562
  101OSM      N10141   2.338   3.062  10.725  0.0679  0.3938  0.5583
  101OSM    C1510142   2.246   3.102  10.616 -0.0345  0.1419  0.2549
  101OSM   H15A10143   2.257   3.050  10.522  1.0451  0.3492  0.2632
  101OSM   H15B10144   2.261   3.206  10.590  3.7036 -0.6960 -1.2122
  101OSM   H15C10145   2.147   3.090  10.659 -0.0099  0.0720  0.2923
  101OSM    C1410146   2.305   3.151  10.846 -0.1415 -0.5585  0.2022
  101OSM   H14A10147   2.357   3.112  10.932 -1.4564 -2.8648  0.0013
  101OSM   H14B10148   2.201   3.151  10.876 -0.3540 -0.3039 -0.5242
  101OSM   H14C10149   2.321   3.256  10.830 -0.4892 -0.1326  2.3976
  101OSM    C1310150   2.300   2.925  10.757  0.4227 -0.3536 -0.1643
  101OSM   H13A10151   2.367   2.850  10.796 -2.0793 -3.5578 -1.7658
  101OSM   H13B10152   2.276   2.877  10.663  0.5568  2.1573 -1.5091
  101OSM   H13C10153   2.208   2.917  10.811 -0.6935 -1.4802 -2.1411
  101OSM    C1210154   2.482   3.076  10.683  0.0677  0.0877  1.2239
  101OSM   H12A10155   2.503   3.172  10.639 -0.3797 -0.1255  0.5345
  101OSM   H12B10156   2.505   3.006  10.604  4.2191  0.5667  1.8796
  101OSM    C1110157   2.577   3.063  10.801  0.2822  0.2391  0.1791
  101OSM   H11A10158   2.556   3.140  10.878 -2.0981  1.4496 -1.6247
  101OSM   H11B10159   2.679   3.076  10.758  0.9087  0.0462  1.5892
  101OSM      P10160   2.671   2.810  10.833  0.7182 -0.2171 -0.1665
  101OSM    O1310161   2.782   2.821  10.934 -0.3359 -0.6712  0.3340
  101OSM    O1410162   2.595   2.686  10.835 -0.4353  0.0703  0.5790
  101OSM    O1110163   2.743   2.839  10.695 -0.0531 -0.1064 -0.5121
  101OSM    O1210164   2.572   2.933  10.855 -0.3324 -0.2056  0.3514
  101OSM    C1S10165   2.669   2.803  10.576 -0.0471 -0.6540  0.2710
  101OSM    H1S10166   2.570   2.852  10.567  0.8426  0.9745 -0.8138
  101OSM    H1T10167   2.651   2.693  10.576  0.2402 -0.7040 -0.7898
  101OSM     NF10168   2.674   2.864  10.340 -0.1118 -0.3512 -0.0432
  101OSM    HNF10169   2.689   2.806  10.260 -0.5179 -0.7912  0.1974
  101OSM    C2S10170   2.756   2.850  10.462 -0.1673 -0.1253 -0.5673
  101OSM    H2S10171   2.799   2.951  10.479  0.5922 -0.7911  1.6116
  101OSM    C3S10172   2.879   2.759  10.441 -0.6121 -0.6181  0.4495
  101OSM    H3S10173   2.836   2.672  10.387  0.0208  0.0459 -1.1576
  101OSM     O310174   2.943   2.722  10.564  0.0441 -0.3778  0.7502
  101OSM    HO310175   2.870   2.721  10.627 -1.0310 -0.0241 -0.4685
  101OSM    C4S10176   2.977   2.840  10.357 -0.5419 -0.5985 -0.2161
  101OSM    H4S10177   2.949   2.847  10.251  0.1453  0.3463 -0.3372
  101OSM    C5S10178   3.103   2.873  10.383 -0.1536 -0.0824 -0.3938
  101OSM    H5S10179   3.146   2.843  10.480 -1.7951 -2.4651 -0.3551
  101OSM    C6S10180   3.200   2.940  10.288 -0.1263  0.6125 -0.1432
  101OSM    H6S10181   3.299   2.890  10.300  0.1349  1.1188 -0.1855
  101OSM    H6T10182   3.218   3.044  10.321 -2.3307  0.9391  0.1194
  101OSM    C7S10183   3.152   2.938  10.144 -0.1873  0.2204 -0.6298
  101OSM    H7S10184   3.055   2.992  10.138 -0.4727 -0.4699 -2.4775
  101OSM    H7T10185   3.144   2.831  10.116 -0.4553  0.0239  0.1812
  101OSM    C8S10186   3.257   2.988  10.038  0.2516 -0.2813 -0.6935
  101OSM    H8S10187   3.350   2.931  10.057 -0.3791 -1.0080  0.2533
  101OSM    H8T10188   3.293   3.091  10.055  2.2170 -1.0191 -0.2728
  101OSM    C9S10189   3.204   2.967   9.897 -0.3788 -0.9358  1.0720
  101OSM    H9S10190   3.100   3.005   9.889  0.1451  0.2544 -0.2378
  101OSM    H9T10191   3.186   2.862   9.865  1.6624 -0.9772 -0.0243
  101OSM   C10S10192   3.297   3.034   9.791 -0.5396  0.0039 -0.2220
  101OSM   H10S10193   3.406   3.016   9.804 -0.5501  0.3493  0.3424
  101OSM   H10T10194   3.298   3.145   9.799  0.5543  0.0855 -1.3358
  101OSM   C11S10195   3.246   2.993   9.650 -0.3910 -0.4453  1.1168
  101OSM   H11S10196   3.140   3.026   9.642 -0.6858 -1.5305  0.5252
  101OSM   H11T10197   3.239   2.883   9.640 -0.0675 -0.2553 -1.6415
  101OSM   C12S10198   3.335   3.040   9.533  0.0336  0.2298 -0.6437
  101OSM   H12S10199   3.433   2.990   9.545  0.6442  1.2728 -1.2148
  101OSM   H12T10200   3.348   3.150   9.538 -0.6202  0.3123 -0.6999
  101OSM   C13S10201   3.269   2.998   9.403 -0.2282 -1.1921  0.0036
  101OSM   H13S10202   3.169   3.046   9.389  0.1509 -1.2275 -3.3102
  101OSM   H13T10203   3.255   2.888   9.398  1.9922 -1.4996  0.2435
  101OSM   C14S10204   3.369   3.054   9.295 -0.0046  0.2914 -0.2312
  101OSM   H14S10205   3.438   2.969   9.278  0.2806  0.2327  1.1675
  101OSM   H14T10206   3.428   3.144   9.322  0.5932  0.6451 -2.5949
  101OSM   C15S10207   3.307   3.071   9.159 -0.4203 -0.1931  0.3423
  101OSM   H15S10208   3.386   3.123   9.100 -1.3812  2.9827  1.7257
  101OSM   H15T10209   3.230   3.151   9.166 -0.9957 -0.6901 -0.3119
  101OSM   C16S10210   3.250   2.945   9.097  0.5044  0.3962  0.1026
  101OSM   H16S10211   3.145   2.914   9.119 -0.2005 -0.5344 -4.1802
  101OSM   H16T10212   3.311   2.861   9.135 -0.7089  0.4206  2.2061
  101OSM   C17S10213   3.242   2.958   8.943 -0.2279  0.0170  0.3848
  101OSM   H17S10214   3.231   2.854   8.905  2.8722 -0.4289  0.6061
  101OSM   H17T10215   3.342   2.987   8.905  1.3218  0.2768  4.3588
  101OSM   C18S10216   3.132   3.055   8.896 -0.3629  0.3215  0.2939
  101OSM   H18S10217   3.152   3.154   8.940 -2.1180  1.6246 -1.7260
  101OSM   H18T10218   3.028   3.025   8.923 -0.6312  0.3022 -0.7368
  101OSM   H18U10219   3.132   3.066   8.785  2.9890  0.5377  0.2729
  101OSM    C1F10220   2.576   2.947  10.317  0.0008 -0.2957  0.6195
  101OSM     OF10221   2.523   3.015  10.402 -0.8276 -0.0591 -0.5914
  101OSM    C2F10222   2.522   2.938  10.178 -0.0063 -0.5714 -0.4447
  101OSM    H2F10223   2.420   2.897  10.187 -1.0306  2.1502  0.8380
  101OSM    H2G10224   2.584   2.877  10.109  2.1533  0.1525  0.7929
  101OSM    C3F10225   2.480   3.073  10.114 -0.0049  0.7686  0.2334
  101OSM    H3F10226   2.425   3.140  10.184 -0.6527  2.0230 -1.4268
  101OSM    H3G10227   2.410   3.041  10.034 -0.9180  0.6801  1.0583
  101OSM    C4F10228   2.594   3.151  10.051  0.2487  0.0209  0.2533
  101OSM    H4F10229   2.684   3.089  10.031  1.1004  1.2410  0.2280
  101OSM    H4G10230   2.631   3.225  10.126  0.4298 -2.4795  2.6958
  101OSM    C5F10231   2.544   3.238   9.931  0.1417  1.2861 -0.6719
  101OSM    H5F10232   2.626   3.311   9.910  0.6925  0.9256  0.2146
  101OSM    H5G10233   2.452   3.293   9.959 -0.0918  0.2312  0.6482
  101OSM    C6F10234   2.517   3.159   9.802  1.0561 -0.2085 -0.6665
  101OSM    H6F10235   2.430   3.095   9.830  0.1637  1.8359  1.4653
  101OSM    H6G10236   2.604   3.092   9.786  1.6250  0.3942 -0.1363
  101OSM    C7F10237   2.464   3.251   9.687 -0.0867 -0.9123  0.5110
  101OSM    H7F10238   2.524   3.344   9.680 -1.4244 -0.1161 -0.8943
  101OSM    H7G10239   2.360   3.288   9.706  0.4213  0.2637  1.0439
  101OSM    C8F10240   2.460   3.178   9.549  0.4029  0.5917 -0.4001
  101OSM    H8F10241   2.392   3.090   9.542  0.4864  0.5103 -0.1916
  101OSM    H8G10242   2.559   3.132   9.529  0.0124  0.3212 -1.7392
  101OSM    C9F10243   2.420   3.274   9.440  0.3705 -0.2964 -0.2513
  101OSM    H9F10244   2.315   3.306   9.447  0.8773  1.8300 -1.8414
  101OSM   C10F10245   2.499   3.342   9.347  0.3965  0.8288 -0.3340
  101OSM   H10F10246   2.455   3.399   9.264  3.6784 -0.0541 -2.7395
  101OSM   C11F10247   2.645   3.338   9.328  0.0140 -0.5070 -0.6980
  101OSM   H11F10248   2.692   3.321   9.427 -1.8759  0.2866  0.3659
  101OSM   H11G10249   2.670   3.438   9.285  0.7480 -1.5926 -2.8387
  101OSM   C12F10250   2.711   3.230   9.239  0.5735 -0.4968 -0.5977
  101OSM   H12F10251   2.694   3.126   9.273  0.7916 -0.5184 -0.5539
  101OSM   H12G10252   2.821   3.240   9.244  0.4756 -0.4210  3.1131
  101OSM   C13F10253   2.666   3.254   9.094 -0.0388  0.5082 -0.4650
  101OSM   H13F10254   2.713   3.350   9.065  2.2795 -0.5291 -0.2782
  101OSM   H13G10255   2.555   3.252   9.087 -0.0798 -1.6034  0.3465
  101OSM   C14F10256   2.708   3.140   9.004  0.2474 -0.2439  0.5559
  101OSM   H14F10257   2.663   3.048   9.048  0.2055 -0.8121 -0.6531
  101OSM   H14G10258   2.818   3.133   9.017  0.4396 -0.8517 -1.2501
  101OSM   C15F10259   2.656   3.157   8.859 -0.2672 -0.4948 -0.4532
  101OSM   H15F10260   2.690   3.258   8.826 -0.7130 -0.3535 -0.4894
  101OSM   H15G10261   2.545   3.160   8.854 -0.2963 -0.0374  0.3359
  101OSM   C16F10262   2.713   3.053   8.766 -1.0039  0.0227  0.4950
  101OSM   H16F10263   2.689   2.950   8.800  2.1022 -0.1252  2.4615
  101OSM   H16G10264   2.823   3.056   8.754 -1.0465  1.1606  0.3710
  101OSM   C17F10265   2.648   3.058   8.628  0.0052 -0.5212 -0.3398
  101OSM   H17F10266   2.649   3.161   8.586 -0.6542 -0.5107 -0.3210
  101OSM   H17G10267   2.541   3.037   8.647  0.2188 -1.1954  0.1204
  101OSM   C18F10268   2.709   2.948   8.536 -0.5301 -0.0963  0.5349
  101OSM   H18F10269   2.814   2.974   8.512  0.0256 -3.6822 -1.2728
  101OSM   H18G10270   2.651   2.947   8.441  1.2512  2.2948 -0.6213
  101OSM   H18H10271   2.703   2.852   8.592  0.7299 -0.6984 -0.3421
  102OSM      N10272   2.644   2.012  11.114  0.0161  0.7567 -0.2856
  102OSM    C1510273   2.784   2.060  11.074 -0.4218 -1.1259  1.2085
  102OSM   H15A10274   2.794   2.153  11.019  3.0104 -0.2885  3.0545
  102OSM   H15B10275   2.855   1.991  11.031 -0.5998 -1.0420  0.7768
  102OSM   H15C10276   2.838   2.087  11.164 -2.6119  3.2047  1.3841
  102OSM    C1410277   2.649   1.896  11.204 -0.7163 -0.2747 -0.3496
  102OSM   H14A10278   2.685   1.805  11.159  0.7536 -0.4372  1.1274
  102OSM   H14B10279   2.551   1.870  11.241 -1.0159  1.7120  0.3686
  102OSM   H14C10280   2.715   1.908  11.289  1.7281 -0.9319 -2.1170
  102OSM    C1310281   2.575   2.121  11.190 -0.6017  1.0071 -0.1073
  102OSM   H13A10282   2.548   2.192  11.114 -4.4900 -1.4353 -1.0978
  102OSM   H13B10283   2.647   2.171  11.254  0.3370 -0.0911 -0.2867
  102OSM   H13C10284   2.486   2.086  11.240  0.4014 -0.7971  0.4730
  102OSM    C1210285   2.568   1.969  10.994  0.4516  0.9247  0.0996
  102OSM   H12A10286   2.469   1.935  11.021 -0.2093  0.9362 -2.1924
  102OSM   H12B10287   2.610   1.881  10.948 -1.6030  1.3856 -2.8507
  102OSM    C1110288   2.551   2.069  10.878  0.2235 -0.2142  0.4014
  102OSM   H11A10289   2.505   2.010  10.796 -0.5182 -0.1967  0.8015
  102OSM   H11B10290   2.653   2.100  10.847  0.1349 -0.5591 -0.2408
  102OSM      P10291   2.317   2.176  10.853 -0.0681  0.0295 -0.0843
  102OSM    O1310292   2.236   2.055  10.894  0.0775 -0.4799  0.5178
  102OSM    O1410293   2.267   2.309  10.891 -0.3027 -0.0369  0.5241
  102OSM    O1110294   2.347   2.177  10.703  0.4919 -0.4531  0.3390
  102OSM    O1210295   2.463   2.176  10.915  0.1599 -0.1227 -0.0512
  102OSM    C1S10296   2.316   2.287  10.615  0.2270  0.1794 -0.4294
  102OSM    H1S10297   2.393   2.367  10.625 -0.1548  0.5832 -0.6636
  102OSM    H1T10298   2.213   2.323  10.635  0.3596  1.3970 -1.8392
  102OSM     NF10299   2.301   2.350  10.384 -0.1034  0.6358 -0.6713
  102OSM    HNF10300   2.212   2.393  10.367 -0.3509  0.0845 -0.7926
  102OSM    C2S10301   2.304   2.231  10.471  0.9671  0.3617  0.7315
  102OSM    H2S10302   2.394   2.167  10.464 -0.2381 -1.1112 -2.2256
  102OSM    C3S10303   2.191   2.127  10.452 -1.2748  0.1165 -0.1539
  102OSM    H3S10304   2.096   2.165  10.495 -1.4134  1.0092 -1.2483
  102OSM     O310305   2.198   2.001  10.524 -0.4630 -0.0837 -0.2936
  102OSM    HO310306   2.284   1.996  10.566 -0.4409 -1.4678 -0.4726
  102OSM    C4S10307   2.177   2.102  10.310  0.1876  0.1182 -0.3993
  102OSM    H4S10308   2.266   2.051  10.270  1.2399  1.1526  0.5737
  102OSM    C5S10309   2.059   2.110  10.246 -0.1071 -0.5705 -0.1658
  102OSM    H5S10310   1.959   2.140  10.282  0.0649 -1.8474  1.4097
  102OSM    C6S10311   2.049   2.076  10.099  0.5767  0.3974  0.2961
  102OSM    H6S10312   2.149   2.047  10.063 -0.0796 -2.7482  0.7920
  102OSM    H6T10313   2.006   2.163  10.045  0.3840 -0.7604 -1.4693
  102OSM    C7S10314   1.947   1.956  10.074  0.1379  0.7245 -0.6010
  102OSM    H7S10315   1.847   1.982  10.115  0.2669 -1.1791  1.0495
  102OSM    H7T10316   1.987   1.862  10.120 -0.5135  0.0084 -1.4851
  102OSM    C8S10317   1.937   1.935   9.924  0.0752  0.0248 -0.2275
  102OSM    H8S10318   2.039   1.909   9.887  0.4999  0.4695  0.6212
  102OSM    H8T10319   1.902   2.025   9.869 -1.1202  0.4462  1.1917
  102OSM    C9S10320   1.866   1.805   9.880  0.7433  0.5937 -0.2127
  102OSM    H9S10321   1.902   1.733   9.957 -1.0144 -0.7162 -0.5835
  102OSM    H9T10322   1.886   1.762   9.779 -0.4926 -0.9406  0.1632
  102OSM   C10S10323   1.714   1.827   9.900 -0.2390  0.5130  0.2478
  102OSM   H10S10324   1.691   1.883   9.994  1.9035  0.5855  0.7755
  102OSM   H10T10325   1.679   1.722   9.906 -0.4350  0.6155  0.9173
  102OSM   C11S10326   1.634   1.882   9.775 -0.2034  0.1148  0.2085
  102OSM   H11S10327   1.646   1.992   9.763 -1.1645  0.1607 -0.4498
  102OSM   H11T10328   1.527   1.874   9.804  0.1915 -1.6350  1.2404
  102OSM   C12S10329   1.645   1.804   9.637 -1.0091 -0.2510 -0.3376
  102OSM   H12S10330   1.747   1.805   9.594 -1.6289 -1.5129 -1.8931
  102OSM   H12T10331   1.593   1.873   9.567 -1.1638  0.0645  0.0829
  102OSM   C13S10332   1.576   1.667   9.631  0.3379 -0.2495 -0.2083
  102OSM   H13S10333   1.474   1.675   9.673  0.5196  0.0412  0.1857
  102OSM   H13T10334   1.632   1.607   9.707 -1.3758  1.3000  2.3351
  102OSM   C14S10335   1.581   1.584   9.497  0.0870 -0.2926 -0.7141
  102OSM   H14S10336   1.548   1.483   9.529 -0.9045  0.1149 -0.4020
  102OSM   H14T10337   1.688   1.586   9.469  0.6040  0.5704  1.2546
  102OSM   C15S10338   1.492   1.626   9.378 -0.0031  0.3742 -0.1769
  102OSM   H15S10339   1.515   1.735   9.378 -1.9418  0.8447  2.4437
  102OSM   H15T10340   1.386   1.611   9.409  0.5816 -2.9143  0.4437
  102OSM   C16S10341   1.519   1.544   9.253  0.2049  0.1917  0.3619
  102OSM   H16S10342   1.508   1.436   9.278 -1.0819 -0.0490 -1.1684
  102OSM   H16T10343   1.625   1.556   9.223  0.5079  2.2300  2.1049
  102OSM   C17S10344   1.426   1.587   9.138 -1.0586  0.6870 -1.1716
  102OSM   H17S10345   1.322   1.577   9.174 -1.6110 -0.9349 -3.1168
  102OSM   H17T10346   1.428   1.521   9.049  0.0720 -3.0801  1.5216
  102OSM   C18S10347   1.433   1.733   9.102 -0.6633 -0.3174  0.1796
  102OSM   H18S10348   1.536   1.770   9.086  0.1143 -1.0551  3.1078
  102OSM   H18T10349   1.394   1.801   9.181  1.6052  1.3828 -0.1066
  102OSM   H18U10350   1.375   1.755   9.010  0.5732  0.3642 -0.4476
  102OSM    C1F10351   2.408   2.423  10.354 -0.0821 -0.0353  0.4309
  102OSM     OF10352   2.521   2.399  10.392  0.7226  0.0838 -0.1346
  102OSM    C2F10353   2.389   2.538  10.266 -0.2124 -0.1254 -0.5068
  102OSM    H2F10354   2.468   2.548  10.189  1.2524 -0.2927  0.9299
  102OSM    H2G10355   2.405   2.629  10.329  1.3404  0.0748 -1.1827
  102OSM    C3F10356   2.247   2.562  10.202  0.3009  0.2476 -0.3043
  102OSM    H3F10357   2.241   2.666  10.164  1.2935 -0.6297 -2.9701
  102OSM    H3G10358   2.166   2.570  10.278 -0.6971  0.4366 -1.3655
  102OSM    C4F10359   2.215   2.460  10.096 -0.3930  0.7271 -0.7476
  102OSM    H4F10360   2.196   2.362  10.146 -0.5296  1.5307  0.7972
  102OSM    H4G10361   2.305   2.443  10.032 -1.5303 -1.8108 -1.7500
  102OSM    C5F10362   2.095   2.492  10.011  0.2460 -0.5201 -0.1950
  102OSM    H5F10363   2.073   2.600  10.002 -0.2586 -0.6245 -0.2292
  102OSM    H5G10364   2.004   2.443  10.051  0.2327  0.3501  0.8609
  102OSM    C6F10365   2.125   2.437   9.871 -0.1762  0.5867  0.1536
  102OSM    H6F10366   2.172   2.337   9.882  1.0132  1.1583  0.3806
  102OSM    H6G10367   2.193   2.507   9.820 -0.4463 -1.4517 -3.1371
  102OSM    C7F10368   1.996   2.402   9.792  0.1964 -0.6069 -0.2944
  102OSM    H7F10369   1.923   2.484   9.800  0.3054 -0.3668 -1.5607
  102OSM    H7G10370   1.953   2.306   9.827 -0.6936  0.3025  1.1215
  102OSM    C8F10371   2.033   2.374   9.640 -0.1260  0.1335 -0.2539
  102OSM    H8F10372   2.083   2.458   9.588 -1.1554  0.9609  0.0666
  102OSM    H8G10373   1.927   2.375   9.606 -0.1004  1.4953 -0.3060
  102OSM    C9F10374   2.097   2.245   9.602 -0.3377 -0.1214 -0.2497
  102OSM    H9F10375   2.079   2.171   9.681 -3.1301 -1.1614 -1.8092
  102OSM   C10F10376   2.173   2.221   9.486  0.3787 -0.4522 -0.3548
  102OSM   H10F10377   2.220   2.125   9.461 -0.9548 -1.3479  0.5218
  102OSM   C11F10378   2.202   2.317   9.380  0.7156  0.0135  0.0332
  102OSM   H11F10379   2.309   2.342   9.397  0.6907  1.1794 -1.3212
  102OSM   H11G10380   2.137   2.407   9.387  0.7946  0.1462 -0.7851
  102OSM   C12F10381   2.190   2.264   9.239 -0.4343 -0.4222  0.7285
  102OSM   H12F10382   2.280   2.208   9.208  1.1983  2.4774  0.1082
  102OSM   H12G10383   2.175   2.351   9.171 -0.5710  0.8419  2.3553
  102OSM   C13F10384   2.072   2.169   9.203  0.1455 -0.4024  0.0216
  102OSM   H13F10385   1.989   2.203   9.269 -1.3542 -3.0986 -0.4261
  102OSM   H13G10386   2.085   2.065   9.240  1.3444  0.6619  2.7290
  102OSM   C14F10387   2.026   2.199   9.056  0.0621  0.4748  0.3435
  102OSM   H14F10388   2.116   2.196   8.990  0.7091  0.7882  1.2052
  102OSM   H14G10389   1.982   2.300   9.040 -3.5669 -1.0311  0.2857
  102OSM   C15F10390   1.921   2.095   8.993 -0.7636 -0.0805 -0.2842
  102OSM   H15F10391   1.840   2.083   9.068 -0.0629 -0.3062  0.4506
  102OSM   H15G10392   1.973   1.997   8.984 -0.0250  0.3666 -1.0052
  102OSM   C16F10393   1.864   2.132   8.853  0.0910  0.1875 -0.0020
  102OSM   H16F10394   1.908   2.062   8.779 -0.5640  0.2189 -0.4285
  102OSM   H16G10395   1.902   2.232   8.822  1.7966 -0.9133 -1.5908
  102OSM   C17F10396   1.715   2.145   8.836 -0.1835  0.5913 -0.5054
  102OSM   H17F10397   1.692   2.206   8.746  2.1998  0.8345 -0.9727
  102OSM   H17G10398   1.681   2.208   8.921 -2.1734 -1.4422  0.2620
  102OSM   C18F10399   1.626   2.016   8.830 -0.0589  0.3255  0.1756
  102OSM   H18F10400   1.637   1.954   8.739  1.5378  0.4908  0.2400
  102OSM   H18G10401   1.520   2.039   8.852  0.1666  0.7958  0.7635
  102OSM   H18H10402   1.646   1.956   8.920 -2.4462 -0.2708  0.3362
  103OSM      N10403   3.789   4.533  11.375  0.1521 -0.2169  0.8672
  103OSM    C1510404   3.773   4.647  11.473 -0.1496 -0.1503 -0.6309
  103OSM   H15A10405   3.773   4.626  11.579 -0.4798  1.4426 -0.2994
  103OSM   H15B10406   3.682   4.701  11.448 -0.5654 -1.1588 -1.3327
  103OSM   H15C10407   3.853   4.715  11.450  0.9920 -1.3020 -0.0869
  103OSM    C1410408   3.908   4.450  11.415  0.1367  0.1046 -0.0560
  103OSM   H14A10409   3.997   4.511  11.413  0.7484 -0.7664  0.2824
  103OSM   H14B10410   3.923   4.366  11.350  2.5136 -1.5133  2.5010
  103OSM   H14C10411   3.891   4.400  11.510 -0.9314  1.0090  0.2537
  103OSM    C1310412   3.680   4.440  11.389  0.8521  0.0557 -0.4140
  103OSM   H13A10413   3.584   4.478  11.359  0.5691  1.0481  1.6184
  103OSM   H13B10414   3.660   4.421  11.494  0.2514 -0.8204 -0.6792
  103OSM   H13C10415   3.694   4.345  11.339 -0.5702 -0.2268 -0.3040
  103OSM    C1210416   3.799   4.566  11.227  0.1113 -0.0903 -0.8109
  103OSM   H12A10417   3.714   4.629  11.203 -0.6003 -1.1601 -1.1418
  103OSM   H12B10418   3.802   4.480  11.162 -0.7678  0.1023 -1.1160
  103OSM    C1110419   3.924   4.649  11.182  0.3965 -0.0856  0.8439
  103OSM   H11A10420   3.904   4.675  11.076 -2.5745  1.2335  1.6764
  103OSM   H11B10421   4.013   4.582  11.183 -0.8192 -1.7221  1.6168
  103OSM      P10422   3.880   4.902  11.214 -0.4610  0.0556  0.1166
  103OSM    O1310423   3.734   4.887  11.199 -0.4581 -0.3438  0.0229
  103OSM    O1410424   3.916   5.004  11.314 -0.2051  0.4240  0.1269
  103OSM    O1110425   3.944   4.948  11.077 -0.4159 -0.1802  0.3476
  103OSM    O1210426   3.957   4.767  11.257 -0.7177 -0.7132 -0.2295
  103OSM    C1S10427   3.861   4.923  10.961 -0.3801 -0.2462 -0.3195
  103OSM    H1S10428   3.770   4.985  10.972 -0.0898  0.0546  0.4914
  103OSM    H1T10429   3.834   4.816  10.950  1.6546 -0.6049 -2.1812
  103OSM     NF10430   3.830   4.934  10.715  1.4538  0.0158  0.8282
  103OSM    HNF10431   3.842   4.844  10.675 -0.7695 -0.4695  1.2204
  103OSM    C2S10432   3.932   4.960  10.823  0.5465  0.6532  0.0820
  103OSM    H2S10433   3.971   5.064  10.833 -2.0783  1.8281 -1.4044
  103OSM    C3S10434   4.058   4.869  10.813  0.8030 -0.7013  0.7677
  103OSM    H3S10435   4.026   4.764  10.829 -0.8272 -0.0313  2.2051
  103OSM     O310436   4.157   4.896  10.913 -0.0489  0.6072 -0.5100
  103OSM    HO310437   4.104   4.939  10.980 -1.3194 -4.5243  2.0083
  103OSM    C4S10438   4.124   4.876  10.680 -0.4147  0.3286 -0.1228
  103OSM    H4S10439   4.147   4.981  10.659 -2.9007  0.4177 -2.6785
  103OSM    C5S10440   4.146   4.777  10.586  0.1498 -0.4688 -0.2862
  103OSM    H5S10441   4.108   4.675  10.608  0.7379 -1.3177 -3.0531
  103OSM    C6S10442   4.212   4.786  10.454  0.2760  0.1682  0.0645
  103OSM    H6S10443   4.322   4.779  10.471  0.3272 -0.6829 -0.5640
  103OSM    H6T10444   4.201   4.891  10.422 -1.5692 -0.9197 -3.1167
  103OSM    C7S10445   4.171   4.694  10.335  0.2816 -0.0855 -0.9584
  103OSM    H7S10446   4.067   4.709  10.299  0.0021  1.7841  0.6019
  103OSM    H7T10447   4.186   4.586  10.355 -1.7004 -0.8334 -3.2993
  103OSM    C8S10448   4.261   4.730  10.216 -0.3737  1.0515 -0.3211
  103OSM    H8S10449   4.361   4.690  10.245 -1.6140 -0.6573  1.7776
  103OSM    H8T10450   4.271   4.840  10.205 -3.2460  1.1695 -2.0548
  103OSM    C9S10451   4.223   4.678  10.080  0.4600  0.1167  0.6254
  103OSM    H9S10452   4.130   4.714  10.032 -0.3869 -1.9672  0.6493
  103OSM    H9T10453   4.209   4.568  10.094  1.0898 -0.1213 -0.5103
  103OSM   C10S10454   4.334   4.709   9.981  0.0760  0.2588  0.2420
  103OSM   H10S10455   4.431   4.680  10.027  0.8086  0.9686 -0.8397
  103OSM   H10T10456   4.341   4.819   9.974  1.0249  0.0457 -2.7327
  103OSM   C11S10457   4.315   4.660   9.842 -0.5309  1.0217  0.0329
  103OSM   H11S10458   4.208   4.663   9.815 -0.6251  0.0389  0.2845
  103OSM   H11T10459   4.325   4.550   9.839  2.6094  1.2676 -0.2306
  103OSM   C12S10460   4.398   4.713   9.723  0.0132  0.5903  0.6778
  103OSM   H12S10461   4.504   4.715   9.758  0.8271 -1.4324 -1.4924
  103OSM   H12T10462   4.382   4.820   9.698 -0.1394  0.4426  0.1297
  103OSM   C13S10463   4.380   4.628   9.595  0.3514 -0.2308 -0.1112
  103OSM   H13S10464   4.381   4.521   9.628  3.1581 -0.4762 -0.9028
  103OSM   H13T10465   4.474   4.651   9.542  0.1794  0.2913 -0.1928
  103OSM   C14S10466   4.252   4.658   9.515  1.1908 -0.5360  0.1007
  103OSM   H14S10467   4.200   4.746   9.558  0.7348 -1.1251  0.7831
  103OSM   H14T10468   4.180   4.573   9.522 -1.0679  1.1501 -2.0257
  103OSM   C15S10469   4.273   4.687   9.369 -0.0143 -0.3371 -0.4693
  103OSM   H15S10470   4.332   4.602   9.327  3.1441  1.6021 -0.0806
  103OSM   H15T10471   4.328   4.782   9.353 -1.4337  0.2699 -1.8223
  103OSM   C16S10472   4.150   4.697   9.289  0.0909  0.2748 -0.1477
  103OSM   H16S10473   4.083   4.771   9.339  0.9655 -0.2516  1.8543
  103OSM   H16T10474   4.097   4.600   9.276  2.0128 -0.7586 -0.3645
  103OSM   C17S10475   4.169   4.754   9.145 -0.2122 -0.2072  0.2575
  103OSM   H17S10476   4.260   4.711   9.098 -0.6084 -1.3340  0.5103
  103OSM   H17T10477   4.177   4.865   9.149 -2.3726 -0.0441  1.1127
  103OSM   C18S10478   4.052   4.717   9.059  0.0626 -0.0363 -0.2896
  103OSM   H18S10479   4.067   4.751   8.954 -0.0755  1.2624  0.1099
  103OSM   H18T10480   3.959   4.765   9.096 -0.4011 -1.2649  0.1577
  103OSM   H18U10481   4.020   4.611   9.074 -1.8807  0.4828 -0.5462
  103OSM    C1F10482   3.728   5.019  10.682 -0.3985  0.0933 -1.0865
  103OSM     OF10483   3.729   5.135  10.729  0.9461 -0.4118 -0.2497
  103OSM    C2F10484   3.618   4.959  10.604 -0.1697  0.2005 -0.1113
  103OSM    H2F10485   3.583   4.859  10.638 -2.2177  0.7130 -0.6462
  103OSM    H2G10486   3.646   4.951  10.497 -1.3416 -3.3146 -0.1962
  103OSM    C3F10487   3.490   5.051  10.618  0.4085 -0.0657  0.7461
  103OSM    H3F10488   3.486   5.085  10.723 -0.0295 -1.8046  1.3213
  103OSM    H3G10489   3.404   4.984  10.595 -0.2425  1.1539 -0.4589
  103OSM    C4F10490   3.485   5.175  10.521  0.2118  0.2465  0.1996
  103OSM    H4F10491   3.543   5.262  10.555  0.7692 -0.8793  2.1853
  103OSM    H4G10492   3.380   5.209  10.539  0.2230 -0.1157  0.9479
  103OSM    C5F10493   3.481   5.142  10.368 -0.7898  0.0038 -0.3214
  103OSM    H5F10494   3.437   5.040  10.363 -0.6346 -0.0185 -1.3490
  103OSM    H5G10495   3.584   5.147  10.327 -0.7596  1.4047 -0.0850
  103OSM    C6F10496   3.401   5.246  10.284 -0.0008 -0.9815 -0.8059
  103OSM    H6F10497   3.418   5.352  10.313  1.2595 -0.8772 -1.8657
  103OSM    H6G10498   3.291   5.234  10.286 -0.2163  0.8907  0.4510
  103OSM    C7F10499   3.440   5.230  10.133 -0.5854  0.2127  0.0155
  103OSM    H7F10500   3.549   5.239  10.117 -0.5526 -0.4607 -0.1672
  103OSM    H7G10501   3.395   5.314  10.076  0.0797 -0.4586 -1.5265
  103OSM    C8F10502   3.399   5.094  10.076 -0.3058  1.0275 -0.2194
  103OSM    H8F10503   3.307   5.095  10.014 -1.1206  1.3118  0.9798
  103OSM    H8G10504   3.368   5.033  10.164 -0.5384  1.2150 -0.1739
  103OSM    C9F10505   3.503   5.020  10.003 -0.1149  0.6373  1.0064
  103OSM    H9F10506   3.576   4.962  10.060 -0.2554 -1.2523 -0.6919
  103OSM   C10F10507   3.532   5.035   9.872 -0.2755 -0.0221 -0.3507
  103OSM   H10F10508   3.608   4.969   9.828 -0.3766 -2.2767  2.7231
  103OSM   C11F10509   3.456   5.120   9.772 -0.8928  0.2840 -0.7030
  103OSM   H11F10510   3.353   5.135   9.810  0.5673  0.9633  3.1150
  103OSM   H11G10511   3.448   5.077   9.670  1.6811 -0.1432 -0.7612
  103OSM   C12F10512   3.520   5.263   9.744 -0.3343 -0.7834 -0.1618
  103OSM   H12F10513   3.622   5.249   9.704  0.5451  3.5177  0.2788
  103OSM   H12G10514   3.533   5.320   9.839  0.9737 -0.7572 -0.3461
  103OSM   C13F10515   3.422   5.334   9.646 -0.0762 -0.0673  0.0552
  103OSM   H13F10516   3.419   5.274   9.552  0.3417  2.5560 -1.6958
  103OSM   H13G10517   3.327   5.340   9.702  1.0699  2.8069  1.7732
  103OSM   C14F10518   3.467   5.478   9.631 -0.1044 -0.5634 -0.1551
  103OSM   H14F10519   3.488   5.528   9.728  0.7841 -1.1891 -0.0190
  103OSM   H14G10520   3.387   5.542   9.587 -1.1199  1.0952  3.8322
  103OSM   C15F10521   3.591   5.502   9.540  0.3212 -0.0371  0.6184
  103OSM   H15F10522   3.671   5.433   9.575  2.2824  2.1165  0.4959
  103OSM   H15G10523   3.610   5.607   9.570  1.0536  0.1213 -0.3865
  103OSM   C16F10524   3.575   5.482   9.390  0.3975  0.2365 -0.1341
  103OSM   H16F10525   3.486   5.533   9.346  0.9657  1.6560  0.3444
  103OSM   H16G10526   3.565   5.372   9.380  1.7990  0.0483  0.5250
  103OSM   C17F10527   3.697   5.525   9.313 -0.2518 -0.1250 -0.2858
  103OSM   H17F10528   3.783   5.465   9.348  0.4802  1.2610  0.3315
  103OSM   H17G10529   3.718   5.626   9.355 -2.0906  0.2598 -0.2359
  103OSM   C18F10530   3.677   5.526   9.162 -0.7695 -0.1708  0.4781
  103OSM   H18F10531   3.589   5.590   9.142 -0.4653 -0.8593 -3.6377
  103OSM   H18G10532   3.638   5.434   9.113 -1.4906  0.7006 -0.6178
  103OSM   H18H10533   3.769   5.553   9.105 -0.6887 -0.2191  0.5860
  104OSM      N10534   1.196   4.776  10.868 -0.5427 -0.1026  0.6755
  104OSM    C1510535   1.105   4.898  10.879  0.1581  0.3380 -0.1641
  104OSM   H15A10536   1.010   4.884  10.831  0.1759  1.1303 -0.4278
  104OSM   H15B10537   1.142   4.990  10.836 -0.6322  0.5963 -0.2943
  104OSM   H15C10538   1.087   4.925  10.982 -1.6906  0.8032 -0.5992
  104OSM    C1410539   1.336   4.799  10.928  0.2696  1.0563  0.6632
  104OSM   H14A10540   1.395   4.709  10.939 -0.5581  0.1774 -1.6641
  104OSM   H14B10541   1.319   4.844  11.024 -1.0783  0.7616  0.5739
  104OSM   H14C10542   1.396   4.859  10.861 -1.3968  0.2828 -1.5955
  104OSM    C1310543   1.137   4.665  10.941  0.2538  0.2809  1.0865
  104OSM   H13A10544   1.031   4.658  10.922  0.5057 -0.7107 -0.0262
  104OSM   H13B10545   1.150   4.676  11.048  0.6248 -1.1551  1.2056
  104OSM   H13C10546   1.176   4.567  10.917  1.3170  1.3739 -1.8852
  104OSM    C1210547   1.218   4.734  10.723  0.0967 -0.8690  0.0080
  104OSM   H12A10548   1.253   4.632  10.734 -1.6441 -1.4707  0.2041
  104OSM   H12B10549   1.287   4.796  10.668 -2.0823  1.6740  0.0687
  104OSM    C1110550   1.090   4.736  10.639  0.4222 -0.2990  0.6717
  104OSM   H11A10551   1.114   4.693  10.540 -1.3407  1.5640 -0.6089
  104OSM   H11B10552   1.067   4.842  10.612 -2.3676 -0.4954  2.0851
  104OSM      P10553   0.958   4.522  10.669  0.2445 -0.1370  0.0173
  104OSM    O1310554   1.098   4.468  10.670  0.5355  0.0171 -0.4549
  104OSM    O1410555   0.854   4.464  10.754 -0.4184 -0.1490  0.2042
  104OSM    O1110556   0.902   4.529  10.523 -0.6111 -0.4765  0.5084
  104OSM    O1210557   0.979   4.679  10.706 -0.5167  0.5483  0.3802
  104OSM    C1S10558   0.816   4.618  10.458 -0.0126  0.6796  0.3194
  104OSM    H1S10559   0.777   4.699  10.523 -2.9340  0.8189 -1.5255
  104OSM    H1T10560   0.727   4.561  10.425  1.4561 -1.7770  0.4522
  104OSM     NF10561   0.786   4.774  10.276  0.4788 -0.3611  0.2222
  104OSM    HNF10562   0.728   4.750  10.198 -0.8733 -2.2118  1.7340
  104OSM    C2S10563   0.878   4.672  10.324  0.2917 -0.0772 -0.0133
  104OSM    H2S10564   0.971   4.714  10.369 -2.0589  1.5538  3.5767
  104OSM    C3S10565   0.906   4.558  10.226 -0.5392 -0.0853  0.2417
  104OSM    H3S10566   0.810   4.502  10.218 -0.0216 -0.5901 -2.9550
  104OSM     O310567   0.988   4.463  10.286 -0.0770 -0.4738  0.2124
  104OSM    HO310568   0.974   4.485  10.378  1.2297  3.0439 -0.3133
  104OSM    C4S10569   0.968   4.600  10.092 -0.4148 -0.1742 -0.3907
  104OSM    H4S10570   1.070   4.639  10.105 -1.2411  1.8472  0.1781
  104OSM    C5S10571   0.932   4.582   9.968 -0.3153  0.1195 -0.9162
  104OSM    H5S10572   0.845   4.517   9.951 -1.3793  1.1287  0.5125
  104OSM    C6S10573   1.028   4.620   9.851  0.3832 -0.6165  0.3074
  104OSM    H6S10574   1.136   4.621   9.879  0.0207 -0.7352  1.7438
  104OSM    H6T10575   1.005   4.722   9.813  0.4505 -0.5704  0.3932
  104OSM    C7S10576   1.004   4.516   9.739  0.0340  0.2500  1.1005
  104OSM    H7S10577   0.901   4.508   9.696  0.1132 -1.1797  1.1469
  104OSM    H7T10578   1.051   4.423   9.777 -1.4193 -0.5713  0.9304
  104OSM    C8S10579   1.090   4.550   9.614  0.2109  0.1800  0.1407
  104OSM    H8S10580   1.193   4.539   9.653 -0.5312  0.3829  2.2640
  104OSM    H8T10581   1.085   4.657   9.584  1.2970 -0.2168 -1.4948
  104OSM    C9S10582   1.067   4.475   9.481  0.6375 -0.0122  0.5345
  104OSM    H9S10583   0.969   4.509   9.442  0.3939 -2.0493 -0.7028
  104OSM    H9T10584   1.061   4.366   9.498 -1.8679 -0.1611 -1.0298
  104OSM   C10S10585   1.191   4.498   9.385  1.1863 -0.0597 -0.4083
  104OSM   H10S10586   1.286   4.470   9.436  0.7766 -0.0341  0.3777
  104OSM   H10T10587   1.192   4.607   9.362 -0.4080 -0.2374 -1.3728
  104OSM   C11S10588   1.187   4.416   9.261 -0.5937  0.0808  0.0617
  104OSM   H11S10589   1.085   4.412   9.217 -0.2486 -0.9202 -0.6620
  104OSM   H11T10590   1.228   4.315   9.280 -1.4445  0.2739  3.2204
  104OSM   C12S10591   1.288   4.477   9.153  0.5955  0.1361 -0.2621
  104OSM   H12S10592   1.388   4.503   9.194  0.5686 -3.2475  2.0805
  104OSM   H12T10593   1.239   4.570   9.115  0.4494 -0.1620 -0.8072
  104OSM   C13S10594   1.311   4.382   9.034 -0.8948 -0.0309  0.0038
  104OSM   H13S10595   1.220   4.364   8.972  0.3156  0.4186 -1.9646
  104OSM   H13T10596   1.360   4.287   9.064 -0.6435 -0.2966 -1.2024
  104OSM   C14S10597   1.417   4.445   8.937 -0.2912 -0.7614  0.2808
  104OSM   H14S10598   1.434   4.367   8.860 -0.5787  0.1614 -0.7361
  104OSM   H14T10599   1.519   4.453   8.980  0.9344  1.1144 -2.7458
  104OSM   C15S10600   1.374   4.575   8.876 -0.3807 -0.0495  0.0758
  104OSM   H15S10601   1.382   4.665   8.940 -1.7482  0.4974 -0.4811
  104OSM   H15T10602   1.266   4.556   8.855  0.1345 -3.5717  0.3140
  104OSM   C16S10603   1.446   4.614   8.746  0.6000  0.0301  0.3054
  104OSM   H16S10604   1.429   4.722   8.726  0.6975  0.5035  2.5835
  104OSM   H16T10605   1.404   4.551   8.665 -2.5236  1.1287  0.9798
  104OSM   C17S10606   1.593   4.590   8.760 -0.4969  0.2623 -0.7659
  104OSM   H17S10607   1.607   4.483   8.785 -0.2285  0.8236  1.5995
  104OSM   H17T10608   1.638   4.644   8.845  2.3370 -0.4965 -1.7427
  104OSM   C18S10609   1.684   4.618   8.629 -0.7177 -0.1647  0.0976
  104OSM   H18S10610   1.735   4.528   8.589 -2.1728 -0.4985 -1.0424
  104OSM   H18T10611   1.763   4.693   8.653  1.3653 -2.8876  2.1408
  104OSM   H18U10612   1.615   4.652   8.550  0.3360 -0.2720 -0.8784
  104OSM    C1F10613   0.780   4.896  10.330 -0.2270 -0.1884 -1.3749
  104OSM     OF10614   0.873   4.938  10.399  0.2770  0.7145  0.4265
  104OSM    C2F10615   0.653   4.977  10.299  0.1419 -0.4810 -0.4173
  104OSM    H2F10616   0.637   5.051  10.380 -1.2336 -1.2144  0.0012
  104OSM    H2G10617   0.568   4.905  10.299  0.5546 -0.9905  0.5915
  104OSM    C3F10618   0.654   5.041  10.157 -0.1920  0.5498  0.5781
  104OSM    H3F10619   0.676   4.972  10.073 -1.3287 -1.4639  1.8797
  104OSM    H3G10620   0.741   5.109  10.165 -0.5178  0.9521  0.7000
  104OSM    C4F10621   0.524   5.123  10.131 -0.6422  0.3129  0.5429
  104OSM    H4F10622   0.497   5.185  10.219 -1.4462 -0.1190  0.6044
  104OSM    H4G10623   0.445   5.048  10.108  0.1994 -1.3740  2.9543
  104OSM    C5F10624   0.532   5.211  10.008  0.0444  0.5281  1.2479
  104OSM    H5F10625   0.629   5.266  10.004 -0.3687  1.2270  0.6745
  104OSM    H5G10626   0.450   5.286   9.998 -0.4158  0.1458  2.0901
  104OSM    C6F10627   0.533   5.137   9.874  0.1664  0.7652 -0.4713
  104OSM    H6F10628   0.456   5.058   9.861 -0.1950  0.9446  0.5582
  104OSM    H6G10629   0.633   5.090   9.860  0.0635  0.4774 -0.2410
  104OSM    C7F10630   0.523   5.239   9.757 -0.5072 -0.5433 -0.0415
  104OSM    H7F10631   0.627   5.276   9.747  0.8027 -4.4626 -1.6379
  104OSM    H7G10632   0.471   5.336   9.772  0.3278  0.0540 -0.9963
  104OSM    C8F10633   0.504   5.179   9.613 -0.0511 -0.2584  0.5922
  104OSM    H8F10634   0.403   5.133   9.620 -0.4510  0.9201  2.9728
  104OSM    H8G10635   0.583   5.105   9.591 -2.7443 -2.7794 -0.9165
  104OSM    C9F10636   0.504   5.289   9.511 -0.3494 -0.5528  0.8527
  104OSM    H9F10637   0.410   5.346   9.520 -0.3573 -0.2380 -0.9308
  104OSM   C10F10638   0.579   5.322   9.398 -0.0584  0.1912 -0.1587
  104OSM   H10F10639   0.548   5.410   9.340 -0.0056  1.0009  1.0148
  104OSM   C11F10640   0.690   5.236   9.340 -0.8582  0.4308  0.9457
  104OSM   H11F10641   0.720   5.179   9.430  0.3704  1.2917  1.1040
  104OSM   H11G10642   0.778   5.299   9.311 -0.9356 -0.3732 -1.0838
  104OSM   C12F10643   0.645   5.135   9.233  0.1252 -1.0514 -0.0484
  104OSM   H12F10644   0.562   5.076   9.279  0.6175 -1.9208 -0.2677
  104OSM   H12G10645   0.723   5.061   9.204  1.5694  1.1489 -1.9254
  104OSM   C13F10646   0.599   5.199   9.107  0.5241 -0.2299  0.0692
  104OSM   H13F10647   0.677   5.259   9.056 -0.0564 -0.2609 -0.8684
  104OSM   H13G10648   0.517   5.270   9.132 -1.1377 -2.4105  1.0346
  104OSM   C14F10649   0.542   5.101   9.005 -0.0830 -0.7191  0.0078
  104OSM   H14F10650   0.475   5.030   9.059 -0.1082 -0.3526  0.4538
  104OSM   H14G10651   0.628   5.041   8.967  1.5680  1.1318  0.7740
  104OSM   C15F10652   0.479   5.171   8.886  0.0838 -0.5647 -0.4235
  104OSM   H15F10653   0.461   5.092   8.810 -0.6908 -1.4781  0.7098
  104OSM   H15G10654   0.556   5.243   8.849  0.8062 -0.6300  0.9153
  104OSM   C16F10655   0.350   5.250   8.915  0.0610  1.2925 -0.2036
  104OSM   H16F10656   0.335   5.273   9.023  0.0629 -0.6979  0.2426
  104OSM   H16G10657   0.271   5.183   8.876  3.6612 -1.9838 -2.2307
  104OSM   C17F10658   0.345   5.384   8.845 -0.3582  0.4691 -0.4891
  104OSM   H17F10659   0.383   5.355   8.745  1.4010 -0.6216  0.4678
  104OSM   H17G10660   0.420   5.458   8.880  1.8373  0.0273 -4.0724
  104OSM   C18F10661   0.206   5.452   8.827  0.1673  0.8141 -0.0420
  104OSM   H18F10662   0.127   5.376   8.809 -0.5313  1.9789 -2.1392
  104OSM   H18G10663   0.200   5.518   8.738 -0.3657 -0.0923 -0.6867
  104OSM   H18H10664   0.175   5.511   8.916  0.5623 -2.0398  2.0638
  105OSM      N10665   1.288   3.655  10.885 -0.3842 -0.0494  0.0750
  105OSM    C1510666   1.282   3.761  10.984 -0.2911  0.0981 -0.0276
  105OSM   H15A10667   1.350   3.735  11.064  0.2068 -1.5939 -0.9713
  105OSM   H15B10668   1.182   3.768  11.023 -0.2810 -1.6894  0.3928
  105OSM   H15C10669   1.312   3.851  10.932  2.8070 -0.7889  0.0957
  105OSM    C1410670   1.425   3.653  10.828 -0.2470  0.1182 -0.1506
  105OSM   H14A10671   1.439   3.743  10.770  0.1290 -0.8899 -1.6632
  105OSM   H14B10672   1.450   3.573  10.760 -0.6742  1.4874 -1.9747
  105OSM   H14C10673   1.497   3.644  10.908  0.5076 -1.1377 -0.9377
  105OSM    C1310674   1.259   3.519  10.951  0.2136 -0.0757 -0.4276
  105OSM   H13A10675   1.161   3.525  10.995  1.0345 -0.1761  1.4532
  105OSM   H13B10676   1.330   3.490  11.028 -2.7131 -1.5300  1.8216
  105OSM   H13C10677   1.252   3.446  10.872 -0.8280 -0.4724  0.0229
  105OSM    C1210678   1.183   3.681  10.775 -0.3732  0.1327 -0.0389
  105OSM   H12A10679   1.090   3.688  10.828 -0.0380 -3.1830  1.1073
  105OSM   H12B10680   1.171   3.588  10.722 -0.9377 -0.4353  1.0671
  105OSM    C1110681   1.198   3.805  10.683  0.1027 -0.0801 -0.0306
  105OSM   H11A10682   1.110   3.818  10.616  0.3200 -0.5270 -0.4046
  105OSM   H11B10683   1.285   3.790  10.615 -0.4387  0.3304 -0.8239
  105OSM      P10684   1.076   4.002  10.817 -0.0663  0.0990  0.0052
  105OSM    O1310685   1.004   3.895  10.888 -0.5038 -0.0186 -0.3097
  105OSM    O1410686   1.116   4.109  10.909  0.0382 -0.2417  0.2471
  105OSM    O1110687   0.996   4.059  10.691 -0.2047  0.2000  0.0494
  105OSM    O1210688   1.212   3.932  10.743 -0.9192  0.3622 -0.5191
  105OSM    C1S10689   1.071   4.129  10.585 -0.2628  0.3881 -0.0302
  105OSM    H1S10690   1.177   4.096  10.578 -0.2025  0.8294 -1.3307
  105OSM    H1T10691   1.080   4.236  10.612  3.0730  0.4704 -1.2819
  105OSM     NF10692   1.079   4.205  10.349  0.7706  0.0718  0.4568
  105OSM    HNF10693   1.038   4.294  10.327  1.3283  0.7462  2.0604
  105OSM    C2S10694   1.001   4.125  10.444 -0.2126 -0.4928  0.2416
  105OSM    H2S10695   1.003   4.024  10.398  0.6585 -0.2154 -0.3297
  105OSM    C3S10696   0.853   4.170  10.455  0.9983 -0.0435 -0.5746
  105OSM    H3S10697   0.848   4.270  10.504 -0.3024 -1.1264  1.6289
  105OSM     O310698   0.765   4.092  10.543 -0.4771 -0.3726  0.3511
  105OSM    HO310699   0.825   4.044  10.601  1.1634  0.3361 -0.6986
  105OSM    C4S10700   0.793   4.176  10.312 -0.1460  0.1737  0.1290
  105OSM    H4S10701   0.803   4.280  10.276  0.3798  0.9278  2.3598
  105OSM    C5S10702   0.741   4.071  10.243 -0.1929  0.0345 -0.0328
  105OSM    H5S10703   0.725   3.975  10.294  0.3872  0.0837  0.2473
  105OSM    C6S10704   0.685   4.081  10.099  0.2852 -0.0423  0.0839
  105OSM    H6S10705   0.575   4.093  10.106  0.3926  1.4862 -0.6948
  105OSM    H6T10706   0.707   3.991  10.037  1.0466 -1.4238  2.2959
  105OSM    C7S10707   0.746   4.195  10.012 -0.6544  0.1010  0.0772
  105OSM    H7S10708   0.856   4.179  10.006 -0.4812  1.4300 -0.4693
  105OSM    H7T10709   0.740   4.296  10.059  1.3036 -0.5277  1.7627
  105OSM    C8S10710   0.684   4.192   9.874  0.3256  0.2709 -0.2139
  105OSM    H8S10711   0.578   4.225   9.884  0.0478 -1.0574  1.4182
  105OSM    H8T10712   0.688   4.084   9.847  5.3132  0.3069 -0.1311
  105OSM    C9S10713   0.762   4.262   9.763 -0.8696  0.3858  0.2625
  105OSM    H9S10714   0.866   4.226   9.768  0.5171  3.4669 -3.6049
  105OSM    H9T10715   0.768   4.372   9.777 -0.7964  0.1473  2.1704
  105OSM   C10S10716   0.691   4.228   9.627  0.0521 -0.4630  0.5157
  105OSM   H10S10717   0.596   4.283   9.614  0.2720 -0.4958 -1.3800
  105OSM   H10T10718   0.673   4.119   9.615 -1.7125  0.0812 -2.4556
  105OSM   C11S10719   0.774   4.281   9.506  0.2994  0.2862 -0.7509
  105OSM   H11S10720   0.879   4.246   9.513  0.3066  0.7517  2.1177
  105OSM   H11T10721   0.773   4.392   9.518  1.1177  0.3354 -1.0905
  105OSM   C12S10722   0.720   4.260   9.367 -0.1275  0.0001 -0.0191
  105OSM   H12S10723   0.626   4.316   9.351 -0.5177 -0.6025  0.1256
  105OSM   H12T10724   0.708   4.150   9.352  0.4400 -0.2785  1.5027
  105OSM   C13S10725   0.820   4.299   9.254 -0.2269  0.0154 -0.0065
  105OSM   H13S10726   0.924   4.264   9.268 -0.1828 -0.1861 -0.8055
  105OSM   H13T10727   0.835   4.409   9.257  1.4477 -0.2482  2.8632
  105OSM   C14S10728   0.769   4.273   9.109  0.5010 -0.3919 -0.2844
  105OSM   H14S10729   0.680   4.338   9.097  1.5261  1.1848  0.4297
  105OSM   H14T10730   0.742   4.166   9.102 -0.3084 -0.2008 -0.1304
  105OSM   C15S10731   0.866   4.323   8.997  0.5145 -0.1652 -0.3782
  105OSM   H15S10732   0.953   4.256   9.005  0.5044 -0.1633 -0.2424
  105OSM   H15T10733   0.914   4.422   9.013  0.1195  0.0185 -0.3095
  105OSM   C16S10734   0.822   4.308   8.851 -0.0275 -0.2037  0.2807
  105OSM   H16S10735   0.720   4.348   8.836  0.2621  0.1492 -0.7540
  105OSM   H16T10736   0.823   4.200   8.828  1.5427 -0.3294  0.8911
  105OSM   C17S10737   0.907   4.373   8.743  0.0733 -0.4346 -0.3338
  105OSM   H17S10738   1.007   4.323   8.746 -0.5435 -1.6257  1.0832
  105OSM   H17T10739   0.926   4.479   8.772  1.6579 -1.5217  2.9753
  105OSM   C18S10740   0.849   4.364   8.603  0.1657 -0.2489  0.3240
  105OSM   H18S10741   0.747   4.408   8.594  1.5537  2.5405 -2.7975
  105OSM   H18T10742   0.852   4.258   8.569  1.9259  0.2055 -0.9916
  105OSM   H18U10743   0.908   4.418   8.526 -1.6361 -0.6344 -1.3849
  105OSM    C1F10744   1.196   4.172  10.299  0.0767  0.3596  0.5035
  105OSM     OF10745   1.243   4.061  10.326  0.1135 -0.2004  0.5362
  105OSM    C2F10746   1.269   4.269  10.220 -0.1503 -0.5848 -0.1597
  105OSM    H2F10747   1.372   4.257  10.259 -0.0540  0.0145 -0.2134
  105OSM    H2G10748   1.235   4.373  10.239  0.4625 -0.1719 -1.2616
  105OSM    C3F10749   1.269   4.233  10.074 -0.0027 -0.2474 -0.6916
  105OSM    H3F10750   1.163   4.230  10.044 -1.1681  0.9685  3.0398
  105OSM    H3G10751   1.292   4.125  10.072 -2.3245 -0.8119  0.9924
  105OSM    C4F10752   1.367   4.329   9.998 -0.1565 -0.4477 -0.7583
  105OSM    H4F10753   1.466   4.333  10.047  0.1162 -0.2364 -1.3153
  105OSM    H4G10754   1.324   4.431  10.001 -0.4257 -0.5628 -0.7055
  105OSM    C5F10755   1.373   4.276   9.855 -0.2825  0.5528 -1.1911
  105OSM    H5F10756   1.274   4.248   9.812  0.3859 -3.5230 -0.3033
  105OSM    H5G10757   1.423   4.177   9.865 -0.7784  0.5244  1.5072
  105OSM    C6F10758   1.449   4.369   9.757 -0.0884 -0.6541 -0.3227
  105OSM    H6F10759   1.554   4.377   9.792 -0.1313 -1.3296 -0.0329
  105OSM    H6G10760   1.393   4.463   9.779 -0.7958 -1.0739 -0.3036
  105OSM    C7F10761   1.416   4.332   9.618 -0.9875 -0.0445 -0.4782
  105OSM    H7F10762   1.458   4.412   9.553  0.6766  1.6299  2.5205
  105OSM    H7G10763   1.307   4.329   9.598 -1.4014 -2.5534  1.8446
  105OSM    C8F10764   1.471   4.196   9.574 -0.5832 -0.3162 -0.1535
  105OSM    H8F10765   1.414   4.169   9.483  0.2930 -2.3338 -0.1360
  105OSM    H8G10766   1.460   4.116   9.651  0.3352  0.5807  0.9263
  105OSM    C9F10767   1.619   4.212   9.544 -0.2472  0.2821 -0.6309
  105OSM    H9F10768   1.677   4.189   9.635  0.3433 -1.1559 -1.3491
  105OSM   C10F10769   1.691   4.234   9.431 -0.0821  0.9367  0.3540
  105OSM   H10F10770   1.800   4.241   9.443 -0.0173  0.9088 -0.1701
  105OSM   C11F10771   1.641   4.240   9.288 -1.1610 -0.2977 -0.2124
  105OSM   H11F10772   1.671   4.340   9.250 -2.0296 -0.2483 -0.7759
  105OSM   H11G10773   1.531   4.234   9.301 -0.9933 -1.0407  0.9302
  105OSM   C12F10774   1.708   4.123   9.209  0.4422 -0.0821  0.7095
  105OSM   H12F10775   1.710   4.029   9.268  0.3226  0.0183  0.8735
  105OSM   H12G10776   1.813   4.159   9.202  1.2521 -2.5480 -0.3069
  105OSM   C13F10777   1.650   4.105   9.060  0.1054 -0.5752 -0.6124
  105OSM   H13F10778   1.542   4.085   9.070  0.0210  1.3511  3.0254
  105OSM   H13G10779   1.693   4.007   9.029  1.7194 -0.4793  1.2307
  105OSM   C14F10780   1.694   4.206   8.951 -0.0108 -0.1579  0.3104
  105OSM   H14F10781   1.681   4.313   8.977  1.3264  0.3220 -0.9150
  105OSM   H14G10782   1.621   4.192   8.868  0.6707  1.1007 -0.5111
  105OSM   C15F10783   1.839   4.180   8.912 -0.0689  0.1733  0.4597
  105OSM   H15F10784   1.845   4.070   8.894  0.6660  0.2585  0.1582
  105OSM   H15G10785   1.905   4.207   8.997  1.0529 -0.5353 -0.1625
  105OSM   C16F10786   1.881   4.255   8.783 -0.1601 -0.1708 -0.0558
  105OSM   H16F10787   1.838   4.357   8.794  1.3837  0.3044  1.7981
  105OSM   H16G10788   1.843   4.226   8.683 -0.1624  0.0946 -0.1320
  105OSM   C17F10789   2.028   4.277   8.764  0.3316 -1.1147  0.4911
  105OSM   H17F10790   2.089   4.187   8.739  3.9977  1.3934 -0.0974
  105OSM   H17G10791   2.074   4.318   8.857 -0.4025  0.0567  0.3477
  105OSM   C18F10792   2.056   4.380   8.661 -0.0838  0.2277  0.9180
  105OSM   H18F10793   1.982   4.463   8.671  1.1234  1.3837  0.2761
  105OSM   H18G10794   2.045   4.326   8.565 -1.2463 -1.0061  1.7167
  105OSM   H18H10795   2.161   4.415   8.659  0.0548 -0.2413 -0.9148
  106OSM      N10796   1.644   2.684  11.036  0.3621  0.7485  0.1495
  106OSM    C1510797   1.552   2.733  11.149 -0.0843  0.6323 -0.3135
  106OSM   H15A10798   1.586   2.827  11.190 -0.5371  2.4125 -3.8213
  106OSM   H15B10799   1.547   2.658  11.227 -0.6364  3.5417  2.5239
  106OSM   H15C10800   1.451   2.741  11.113 -0.2849  1.2811  0.3900
  106OSM    C1410801   1.663   2.804  10.954 -0.1624  1.0848 -0.1730
  106OSM   H14A10802   1.569   2.846  10.920  0.9528  2.5078 -1.5378
  106OSM   H14B10803   1.732   2.784  10.873 -0.3269  1.1573 -0.3319
  106OSM   H14C10804   1.717   2.877  11.013  0.8227  0.2174  0.0061
  106OSM    C1310805   1.776   2.639  11.088 -0.2702 -0.2445  0.5065
  106OSM   H13A10806   1.837   2.634  11.000 -1.1465 -0.4920 -0.0994
  106OSM   H13B10807   1.781   2.537  11.123  1.0131 -0.2448  0.3188
  106OSM   H13C10808   1.817   2.712  11.157 -0.1370 -0.3628  0.5513
  106OSM    C1210809   1.575   2.576  10.964  0.0130 -0.2324 -0.0822
  106OSM   H12A10810   1.487   2.607  10.910  1.0781  2.4629 -0.3212
  106OSM   H12B10811   1.550   2.498  11.034 -1.7985  0.0945 -0.3345
  106OSM    C1110812   1.668   2.516  10.858 -0.3366  0.6677 -0.9859
  106OSM   H11A10813   1.610   2.428  10.824  1.6008 -1.9807  2.2681
  106OSM   H11B10814   1.765   2.479  10.899 -0.6141 -0.9568 -1.7696
  106OSM      P10815   1.613   2.606  10.615 -0.2216  0.3534  0.1073
  106OSM    O1310816   1.466   2.600  10.644  0.0124  0.8298 -0.3881
  106OSM    O1410817   1.657   2.712  10.522  0.1005 -0.3498  0.4245
  106OSM    O1110818   1.661   2.466  10.553 -0.2686 -0.3919 -0.2321
  106OSM    O1210819   1.701   2.609  10.749 -0.2263 -0.7385  0.4719
  106OSM    C1S10820   1.615   2.436  10.421 -0.5293 -0.0977  0.1362
  106OSM    H1S10821   1.661   2.501  10.344 -1.9977 -1.0163 -1.5474
  106OSM    H1T10822   1.509   2.464  10.408 -0.8585  0.1858  3.1335
  106OSM     NF10823   1.592   2.248  10.252  0.3767 -0.5793 -0.5940
  106OSM    HNF10824   1.500   2.219  10.230  0.0202  0.0660  0.0040
  106OSM    C2S10825   1.630   2.282  10.389 -0.7712 -0.6135  0.3423
  106OSM    H2S10826   1.739   2.261  10.391  0.0057  2.7027 -1.9477
  106OSM    C3S10827   1.562   2.188  10.489  0.4861 -0.5944 -0.0072
  106OSM    H3S10828   1.454   2.181  10.464  0.5791  1.1571 -0.9746
  106OSM     O310829   1.569   2.241  10.624 -0.0538  0.5463 -0.2195
  106OSM    HO310830   1.581   2.336  10.619  0.5862  0.4831  0.0553
  106OSM    C4S10831   1.613   2.047  10.472 -0.3007 -0.0659  0.2762
  106OSM    H4S10832   1.544   1.982  10.416 -2.7310 -1.2620  4.4452
  106OSM    C5S10833   1.725   1.992  10.524  0.1116  0.2572  0.3625
  106OSM    H5S10834   1.785   2.057  10.589  0.5797  0.5079 -0.3244
  106OSM    C6S10835   1.761   1.847  10.505  0.0888  0.3741  0.1879
  106OSM    H6S10836   1.681   1.794  10.450  1.0123 -0.5861 -0.2479
  106OSM    H6T10837   1.777   1.794  10.601  1.4140 -0.9058 -0.7212
  106OSM    C7S10838   1.883   1.841  10.418  0.1221 -0.4848  0.0459
  106OSM    H7S10839   1.970   1.891  10.466 -1.0887  1.1630  0.5472
  106OSM    H7T10840   1.869   1.891  10.320  1.4877  1.3273  0.7552
  106OSM    C8S10841   1.933   1.703  10.375 -0.2602 -0.2958 -0.4096
  106OSM    H8S10842   1.962   1.630  10.453 -0.7527 -1.6687 -1.4790
  106OSM    H8T10843   2.031   1.706  10.323 -0.0017 -0.8032  0.0389
  106OSM    C9S10844   1.830   1.643  10.281 -0.0380  0.4590 -0.6496
  106OSM    H9S10845   1.805   1.729  10.216 -0.9162  2.6331  2.4344
  106OSM    H9T10846   1.734   1.614  10.329 -1.1074  0.5827 -2.6649
  106OSM   C10S10847   1.881   1.540  10.182 -0.5003  0.6212  0.1680
  106OSM   H10S10848   1.934   1.452  10.227 -1.0446 -0.7418 -1.7723
  106OSM   H10T10849   1.951   1.592  10.114 -0.7232 -0.2793 -0.7715
  106OSM   C11S10850   1.774   1.489  10.089  0.0377  0.2913 -0.1946
  106OSM   H11S10851   1.735   1.570  10.024 -0.6019 -1.2936 -1.8362
  106OSM   H11T10852   1.693   1.440  10.148 -1.6854  0.2246 -2.5587
  106OSM   C12S10853   1.832   1.391   9.980  0.2307  0.2578  0.6241
  106OSM   H12S10854   1.867   1.295  10.023 -1.9494 -2.3329 -3.0144
  106OSM   H12T10855   1.917   1.434   9.922  0.2843 -2.3486 -1.3326
  106OSM   C13S10856   1.736   1.357   9.873  0.2612 -0.6464  0.0187
  106OSM   H13S10857   1.675   1.449   9.856  2.1033  0.5916 -0.0288
  106OSM   H13T10858   1.665   1.286   9.920 -1.8762  1.8130  0.6439
  106OSM   C14S10859   1.808   1.294   9.755 -0.4593 -0.3772  0.3305
  106OSM   H14S10860   1.895   1.231   9.784 -0.8382 -1.4960 -0.9057
  106OSM   H14T10861   1.851   1.381   9.701 -1.6052  1.5909  2.4729
  106OSM   C15S10862   1.719   1.227   9.649  0.3973  0.1815 -0.0162
  106OSM   H15S10863   1.785   1.219   9.560 -0.8972 -0.4421 -0.9361
  106OSM   H15T10864   1.627   1.283   9.624  1.2604  0.4877 -2.6558
  106OSM   C16S10865   1.667   1.089   9.704 -0.0155  0.5910 -0.7134
  106OSM   H16S10866   1.666   1.096   9.815 -2.1352  0.4815 -0.7122
  106OSM   H16T10867   1.737   1.004   9.684  0.9189  0.4155  2.9069
  106OSM   C17S10868   1.532   1.046   9.649  0.1188  0.3611  0.8018
  106OSM   H17S10869   1.458   1.129   9.653 -0.6369 -0.2636 -0.0365
  106OSM   H17T10870   1.483   0.974   9.718 -4.3855  2.6563  0.2219
  106OSM   C18S10871   1.546   0.991   9.504 -0.3946  1.1223 -0.9920
  106OSM   H18S10872   1.445   0.951   9.479  0.0987 -0.9669  0.2158
  106OSM   H18T10873   1.603   0.896   9.516 -0.1613  1.4593  0.6854
  106OSM   H18U10874   1.591   1.066   9.435  2.7923  3.3483  3.3266
  106OSM    C1F10875   1.652   2.293  10.147 -0.3203 -0.1175  0.5391
  106OSM     OF10876   1.768   2.328  10.150 -0.2854  0.2390 -0.2185
  106OSM    C2F10877   1.569   2.304  10.027  0.2693 -0.8650 -0.0284
  106OSM    H2F10878   1.484   2.369  10.056  0.3761  0.2642 -2.1468
  106OSM    H2G10879   1.541   2.198  10.005 -1.1834 -0.9341  1.9935
  106OSM    C3F10880   1.640   2.384   9.913  0.1550  1.0407 -0.7756
  106OSM    H3F10881   1.726   2.319   9.885  0.9999  0.0848  3.6291
  106OSM    H3G10882   1.675   2.484   9.948  0.4735  1.2331 -1.6339
  106OSM    C4F10883   1.560   2.408   9.782  0.1312  0.6123 -0.9810
  106OSM    H4F10884   1.482   2.482   9.810 -1.6891 -1.2207 -1.1274
  106OSM    H4G10885   1.512   2.312   9.753  0.6263 -0.0383  0.3330
  106OSM    C5F10886   1.640   2.472   9.668  0.0061 -0.3409 -1.1743
  106OSM    H5F10887   1.725   2.415   9.624  0.1194  0.5798 -2.1684
  106OSM    H5G10888   1.684   2.567   9.704 -3.1576  1.0546 -0.8432
  106OSM    C6F10889   1.544   2.499   9.554 -0.6833 -0.3195 -0.0054
  106OSM    H6F10890   1.485   2.409   9.524 -0.3857  0.2675 -2.4897
  106OSM    H6G10891   1.603   2.541   9.470  0.4301 -1.0628  0.3910
  106OSM    C7F10892   1.445   2.618   9.583 -0.3587  0.1389 -0.2110
  106OSM    H7F10893   1.496   2.683   9.657  1.1102 -1.6955  0.4139
  106OSM    H7G10894   1.352   2.575   9.626 -0.2929 -0.9005 -1.1065
  106OSM    C8F10895   1.398   2.697   9.455  0.0852  0.3428 -0.7731
  106OSM    H8F10896   1.309   2.756   9.487  0.3336  0.0300  0.5149
  106OSM    H8G10897   1.360   2.624   9.381 -0.7394  0.0070 -0.0281
  106OSM    C9F10898   1.508   2.783   9.394  0.0750 -0.7219  0.6485
  106OSM    H9F10899   1.542   2.866   9.457  0.6906  0.4451 -1.1968
  106OSM   C10F10900   1.545   2.770   9.264  0.7859 -1.4838 -0.2351
  106OSM   H10F10901   1.622   2.840   9.228  1.0760  0.4421  3.8567
  106OSM   C11F10902   1.507   2.685   9.145 -0.3216  0.1687 -0.0060
  106OSM   H11F10903   1.439   2.743   9.079  0.3807 -0.3535 -1.2083
  106OSM   H11G10904   1.447   2.593   9.163 -1.2335  1.1651  2.3282
  106OSM   C12F10905   1.627   2.635   9.062 -0.0579 -0.3002  0.3873
  106OSM   H12F10906   1.691   2.722   9.034  0.5677 -1.3570 -1.5514
  106OSM   H12G10907   1.600   2.604   8.959  0.7988 -0.1001  0.0970
  106OSM   C13F10908   1.703   2.523   9.136  0.6210 -0.3857  0.5166
  106OSM   H13F10909   1.771   2.562   9.215  0.8730 -2.3477  1.3014
  106OSM   H13G10910   1.765   2.471   9.059  0.0746 -0.4596  0.1206
  106OSM   C14F10911   1.615   2.417   9.188  0.2918  0.6109  0.3612
  106OSM   H14F10912   1.541   2.376   9.117 -1.1398  0.9628  1.6204
  106OSM   H14G10913   1.557   2.454   9.275  0.0961 -2.3226  1.5607
  106OSM   C15F10914   1.694   2.303   9.249  0.2757  0.6998  0.3065
  106OSM   H15F10915   1.748   2.341   9.338 -1.3884  1.6682  0.9332
  106OSM   H15G10916   1.772   2.274   9.175 -1.1356  0.4328 -1.1225
  106OSM   C16F10917   1.608   2.183   9.280 -0.2716  0.2779 -0.4388
  106OSM   H16F10918   1.562   2.147   9.186  3.6429 -2.0798 -1.5525
  106OSM   H16G10919   1.519   2.211   9.341 -0.0618 -0.2551  0.1265
  106OSM   C17F10920   1.688   2.075   9.347  0.3212 -0.1472  0.1171
  106OSM   H17F10921   1.765   2.024   9.285  0.1083 -0.3472  0.0200
  106OSM   H17G10922   1.618   1.994   9.375  1.0686 -1.1731 -0.9174
  106OSM   C18F10923   1.753   2.126   9.481 -0.4351  0.0860 -0.0220
  106OSM   H18F10924   1.799   2.044   9.540 -1.2150  0.1926  0.7416
  106OSM   H18G10925   1.669   2.169   9.540 -2.0218 -2.5025 -0.2923
  106OSM   H18H10926   1.828   2.206   9.469 -1.8289  1.4382  0.1960
  107OSM      N10927   2.181   0.872  11.277 -0.4098 -0.0172  0.7974
  107OSM    C1510928   2.035   0.929  11.268  0.5664  0.0896 -0.7179
  107OSM   H15A10929   2.025   1.024  11.219  0.8282 -0.3538 -1.6454
  107OSM   H15B10930   1.993   0.925  11.368 -1.5979 -0.7300 -1.6283
  107OSM   H15C10931   1.991   0.858  11.199  0.5800  1.2967 -1.9733
  107OSM    C1410932   2.258   0.934  11.389 -0.1295  0.2816  0.2308
  107OSM   H14A10933   2.349   0.877  11.397 -0.9407 -0.8545  1.7707
  107OSM   H14B10934   2.213   0.933  11.487 -2.6199  2.0699 -0.8452
  107OSM   H14C10935   2.277   1.039  11.372 -2.1718  0.6047 -0.2665
  107OSM    C1310936   2.166   0.732  11.316  0.6365  0.3590  0.5905
  107OSM   H13A10937   2.256   0.688  11.355 -0.2338 -1.4762  0.5956
  107OSM   H13B10938   2.156   0.680  11.221  0.8011  0.2168  0.6507
  107OSM   H13C10939   2.081   0.713  11.379 -1.4682  1.1161 -1.9127
  107OSM    C1210940   2.246   0.888  11.139  0.6771 -0.1215 -0.5680
  107OSM   H12A10941   2.346   0.848  11.136  1.0349  0.7876 -0.9615
  107OSM   H12B10942   2.249   0.995  11.122 -2.5411  0.2051  0.6220
  107OSM    C1110943   2.174   0.814  11.015 -0.5779 -0.5114  0.3659
  107OSM   H11A10944   2.224   0.839  10.919 -1.5561  0.1456  0.0181
  107OSM   H11B10945   2.074   0.860  11.000 -0.1418 -0.1857 -1.5638
  107OSM      P10946   2.288   0.582  10.987 -0.3553 -0.0850  0.1950
  107OSM    O1310947   2.407   0.665  10.969 -0.1224 -0.4198  0.8229
  107OSM    O1410948   2.304   0.476  11.090 -0.6357  0.1646 -0.3792
  107OSM    O1110949   2.242   0.527  10.846  0.2238  0.3657  0.1080
  107OSM    O1210950   2.172   0.677  11.037 -0.1199 -0.0174  0.1419
  107OSM    C1S10951   2.115   0.519  10.791  0.2833  0.2920  1.2942
  107OSM    H1S10952   2.055   0.609  10.816  1.3675  0.4935  3.2475
  107OSM    H1T10953   2.063   0.439  10.848  1.1333  0.4980  2.3734
  107OSM     NF10954   1.971   0.476  10.593  0.1141 -0.0781 -0.6844
  107OSM    HNF10955   1.937   0.386  10.569 -2.8636  0.4797  1.2182
  107OSM    C2S10956   2.111   0.476  10.648 -0.6637 -0.2988  0.1508
  107OSM    H2S10957   2.177   0.541  10.588 -0.5325 -0.6049 -0.0369
  107OSM    C3S10958   2.186   0.332  10.632 -0.0883  0.3444  0.0184
  107OSM    H3S10959   2.126   0.259  10.690  0.7774  0.1496  0.6760
  107OSM     O310960   2.321   0.332  10.679 -0.1187  0.1206  0.0929
  107OSM    HO310961   2.327   0.400  10.746 -0.7688  0.0467  0.2315
  107OSM    C4S10962   2.193   0.288  10.483  0.1051  0.2032 -1.0651
  107OSM    H4S10963   2.116   0.213  10.460 -0.4661  0.4054  0.1243
  107OSM    C5S10964   2.250   0.343  10.379 -0.3032 -0.2853  0.1786
  107OSM    H5S10965   2.310   0.433  10.399 -2.1018  1.1898 -0.8840
  107OSM    C6S10966   2.224   0.298  10.239 -0.0104  0.5646 -0.6887
  107OSM    H6S10967   2.199   0.387  10.177  1.2314  0.9860 -0.5852
  107OSM    H6T10968   2.135   0.231  10.235 -0.2547  0.9600 -2.7331
  107OSM    C7S10969   2.348   0.233  10.169  0.1653 -0.4903 -0.5322
  107OSM    H7S10970   2.362   0.144  10.235 -0.3888 -0.8487 -0.8867
  107OSM    H7T10971   2.440   0.293  10.181  0.3037 -0.8978  0.4644
  107OSM    C8S10972   2.329   0.175  10.025  0.1642  0.1313 -0.5802
  107OSM    H8S10973   2.315   0.257   9.951  0.8688  1.6611  0.9524
  107OSM    H8T10974   2.234   0.121  10.045  1.0830 -1.0076  0.8199
  107OSM    C9S10975   2.449   0.089   9.977 -0.4700 -0.4981  0.2174
  107OSM    H9S10976   2.442   0.010  10.055 -2.1773 -0.4487  0.1413
  107OSM    H9T10977   2.545   0.145   9.987  0.3667 -1.4733 -2.1085
  107OSM   C10S10978   2.433   0.057   9.831 -0.8920 -0.2066 -0.5016
  107OSM   H10S10979   2.411   0.156   9.784 -2.5991 -0.4383 -0.2263
  107OSM   H10T10980   2.342  -0.003   9.812 -3.1004  2.6569  0.6028
  107OSM   C11S10981   2.550  -0.011   9.759  0.1768  0.1849 -0.5844
  107OSM   H11S10982   2.582  -0.101   9.815 -0.8125  0.3960  0.3371
  107OSM   H11T10983   2.629   0.067   9.751  1.9307 -1.6166 -1.1118
  107OSM   C12S10984   2.508  -0.055   9.621 -0.3391  0.4741  0.9040
  107OSM   H12S10985   2.483   0.036   9.564 -3.2602 -0.3059  0.8618
  107OSM   H12T10986   2.413  -0.112   9.630 -0.6121  0.6487 -0.7119
  107OSM   C13S10987   2.610  -0.135   9.539  0.3792  0.0251  0.4770
  107OSM   H13S10988   2.622  -0.233   9.592  0.6045 -0.2890 -0.1503
  107OSM   H13T10989   2.709  -0.085   9.544 -0.1024  0.9475  0.8212
  107OSM   C14S10990   2.568  -0.157   9.390 -0.4910  0.3368 -0.3847
  107OSM   H14S10991   2.545  -0.057   9.348  0.6120  0.4850 -0.6282
  107OSM   H14T10992   2.471  -0.212   9.385 -0.5673  0.1144  2.3161
  107OSM   C15S10993   2.664  -0.247   9.312  0.1637 -0.7474  0.3918
  107OSM   H15S10994   2.680  -0.329   9.385  1.6275 -0.5200  0.3398
  107OSM   H15T10995   2.766  -0.206   9.297  0.2244 -0.8789  0.4383
  107OSM   C16S10996   2.608  -0.307   9.182  0.3425 -0.2871 -0.7183
  107OSM   H16S10997   2.618  -0.229   9.104  1.6926  0.6287  0.3438
  107OSM   H16T10998   2.499  -0.329   9.181  0.5871 -1.5341 -2.0709
  107OSM   C17S10999   2.676  -0.440   9.137 -0.2466  0.8896  0.2693
  107OSM   H17S11000   2.646  -0.520   9.208 -0.5750  1.2472  0.5321
  107OSM   H17T11001   2.780  -0.424   9.171 -0.6213  2.2601  0.7877
  107OSM   C18S11002   2.660  -0.486   8.994 -0.2029 -0.0310 -0.5882
  107OSM   H18S11003   2.703  -0.400   8.939 -1.3424  1.0771  0.2244
  107OSM   H18T11004   2.551  -0.489   8.972 -0.6875  3.5297  0.8531
  107OSM   H18U11005   2.703  -0.587   8.979 -0.6110 -0.5113  1.3546
  107OSM    C1F11006   1.906   0.588  10.563  0.4343  0.5201  0.4406
  107OSM     OF11007   1.968   0.693  10.542  0.6845  1.0129  0.2928
  107OSM    C2F11008   1.761   0.577  10.543 -0.2084  0.3463 -0.7338
  107OSM    H2F11009   1.705   0.673  10.535 -0.3711  0.3567  0.4591
  107OSM    H2G11010   1.725   0.526  10.634  1.5575  1.9077  0.9019
  107OSM    C3F11011   1.730   0.475  10.422 -0.1175  0.1350  0.3586
  107OSM    H3F11012   1.619   0.471  10.408 -0.1986  1.7365  0.4477
  107OSM    H3G11013   1.784   0.379  10.435  0.8281  0.7070  0.7089
  107OSM    C4F11014   1.788   0.528  10.284  0.2626 -0.6983 -0.4521
  107OSM    H4F11015   1.895   0.554  10.302  0.7190 -2.0389 -1.1992
  107OSM    H4G11016   1.715   0.602  10.245  1.1228 -0.6278 -1.9459
  107OSM    C5F11017   1.790   0.418  10.175 -0.4848 -0.8082  0.2233
  107OSM    H5F11018   1.702   0.418  10.106 -1.6380 -0.1877  1.6742
  107OSM    H5G11019   1.794   0.317  10.219 -1.3412 -0.3357  1.3979
  107OSM    C6F11020   1.918   0.436  10.084  0.4151 -0.0553  0.6484
  107OSM    H6F11021   2.004   0.438  10.153  1.7735 -0.2331 -1.0095
  107OSM    H6G11022   1.921   0.533  10.029  1.1813 -0.2777  0.2921
  107OSM    C7F11023   1.935   0.326   9.981 -0.2735 -0.2453 -0.2020
  107OSM    H7F11024   1.835   0.320   9.931 -0.5865 -1.1513  0.5114
  107OSM    H7G11025   1.945   0.228  10.033 -1.8681  0.8741  2.3242
  107OSM    C8F11026   2.040   0.359   9.868 -0.3681 -0.0213 -0.3303
  107OSM    H8F11027   2.132   0.395   9.917 -0.5938 -1.6265  1.3405
  107OSM    H8G11028   1.996   0.433   9.798 -2.3131 -0.2377  0.6437
  107OSM    C9F11029   2.086   0.244   9.779 -0.4289 -0.0362 -0.0781
  107OSM    H9F11030   2.109   0.158   9.843 -0.0816 -0.9679 -1.4413
  107OSM   C10F11031   2.121   0.248   9.649  0.5384  0.0045  0.6394
  107OSM   H10F11032   2.161   0.157   9.603  2.7727  0.9865  0.6183
  107OSM   C11F11033   2.114   0.363   9.552 -0.8215  0.0889  0.6173
  107OSM   H11F11034   2.196   0.438   9.560 -1.2905  1.0371 -2.6659
  107OSM   H11G11035   2.019   0.419   9.568 -0.4244  0.5067  1.5191
  107OSM   C12F11036   2.109   0.300   9.412 -0.2775  0.3626 -0.1698
  107OSM   H12F11037   2.032   0.220   9.416  1.2401 -1.0660  0.7030
  107OSM   H12G11038   2.205   0.247   9.395 -0.6712 -0.6153  0.5887
  107OSM   C13F11039   2.068   0.399   9.302  0.5019 -0.5807  0.5825
  107OSM   H13F11040   2.133   0.488   9.290 -0.7236  0.3636  0.8198
  107OSM   H13G11041   1.962   0.431   9.309  0.6804  0.1316  0.0417
  107OSM   C14F11042   2.078   0.319   9.170 -1.3344 -0.4157 -1.2517
  107OSM   H14F11043   1.997   0.243   9.160 -0.4156 -1.8219  1.5175
  107OSM   H14G11044   2.180   0.274   9.164 -2.3995 -2.9525 -0.8427
  107OSM   C15F11045   2.069   0.427   9.062 -0.1687 -0.2656 -0.2396
  107OSM   H15F11046   2.154   0.497   9.072 -0.6939  0.5671 -1.5251
  107OSM   H15G11047   1.975   0.485   9.073 -0.9705 -1.2677 -1.4983
  107OSM   C16F11048   2.056   0.352   8.925  0.3567  0.8472  0.3824
  107OSM   H16F11049   2.036   0.429   8.848 -0.2146 -1.4663 -1.8393
  107OSM   H16G11050   1.974   0.278   8.933  3.1304 -2.2851  0.8206
  107OSM   C17F11051   2.192   0.294   8.880 -0.6835 -0.3270 -0.1051
  107OSM   H17F11052   2.242   0.240   8.964  3.1759  2.3115 -0.5684
  107OSM   H17G11053   2.259   0.377   8.849 -1.1656  0.5603  1.1822
  107OSM   C18F11054   2.180   0.186   8.772  0.1247 -0.3400  0.5352
  107OSM   H18F11055   2.274   0.164   8.716 -0.2452 -0.9447  0.1442
  107OSM   H18G11056   2.112   0.232   8.697 -0.5345  1.8818  2.4486
  107OSM   H18H11057   2.146   0.085   8.803 -1.1373 -0.8501 -2.2996
  108OSM      N11058   0.120   4.152  10.558  0.0048 -0.3359  0.2041
  108OSM    C1511059   0.074   4.228  10.433  0.1204 -0.3395 -0.0760
  108OSM   H15A11060   0.156   4.237  10.364  0.1522  0.4382  0.0580
  108OSM   H15B11061   0.045   4.327  10.464 -1.0167 -1.4471  2.5639
  108OSM   H15C11062  -0.009   4.171  10.393 -2.1229 -0.0108  3.7819
  108OSM    C1411063   0.007   4.125  10.650 -0.0184  0.0381 -0.7032
  108OSM   H14A11064  -0.031   4.222  10.676 -0.3207  0.3406 -2.1871
  108OSM   H14B11065   0.035   4.068  10.737 -2.1823  0.4492  0.2808
  108OSM   H14C11066  -0.069   4.069  10.598 -0.2022  1.0134 -1.4999
  108OSM    C1311067   0.173   4.017  10.519  1.1802  0.3340 -0.3053
  108OSM   H13A11068   0.205   3.962  10.607 -0.7005  1.2560  1.0022
  108OSM   H13B11069   0.257   4.024  10.453 -0.4328  0.3895 -2.4012
  108OSM   H13C11070   0.096   3.958  10.471  2.8548 -3.5871  1.6231
  108OSM    C1211071   0.231   4.238  10.626 -0.0965  0.7512  1.0156
  108OSM   H12A11072   0.316   4.230  10.560 -0.9555 -0.8424  0.0684
  108OSM   H12B11073   0.260   4.191  10.719 -2.1807 -0.4855  1.0889
  108OSM    C1111074   0.218   4.389  10.650  0.0938  0.1741  0.0850
  108OSM   H11A11075   0.210   4.441  10.552  2.1819  1.6963  0.6876
  108OSM   H11B11076   0.318   4.425  10.684  1.3007 -0.4525 -2.6756
  108OSM      P11077  -0.009   4.504  10.719  0.1543  0.4617 -0.2007
  108OSM    O1311078  -0.115   4.476  10.820 -0.1879  0.1169 -0.3491
  108OSM    O1411079   0.041   4.640  10.714  0.8403 -0.0702 -0.0728
  108OSM    O1111080  -0.056   4.461  10.575  0.2471  0.2110 -0.0618
  108OSM    O1211081   0.117   4.412  10.744  0.3711 -0.7885 -0.2894
  108OSM    C1S11082  -0.117   4.560  10.494  0.3261 -0.4455  0.0051
  108OSM    H1S11083  -0.038   4.635  10.474 -0.5751  0.1701 -1.3141
  108OSM    H1T11084  -0.206   4.610  10.539  1.0528 -1.4980  2.7421
  108OSM     NF11085  -0.157   4.603  10.257  0.1895  1.1464 -0.4961
  108OSM    HNF11086  -0.247   4.643  10.246 -2.8266 -4.3010  2.7984
  108OSM    C2S11087  -0.148   4.499  10.355 -0.3833  0.4551 -0.0740
  108OSM    H2S11088  -0.054   4.441  10.336  0.2692  0.8575  1.8638
  108OSM    C3S11089  -0.265   4.399  10.371 -0.5586 -0.1375  0.6784
  108OSM    H3S11090  -0.352   4.451  10.418 -0.4509  0.4549  0.2204
  108OSM     O311091  -0.235   4.292  10.459 -0.4206 -0.2428  0.6518
  108OSM    HO311092  -0.150   4.320  10.495  0.5868  0.7855 -2.3700
  108OSM    C4S11093  -0.296   4.344  10.247  0.1699  0.5567  0.2613
  108OSM    H4S11094  -0.231   4.259  10.220  1.8753  1.4280  1.5774
  108OSM    C5S11095  -0.399   4.381  10.169  0.8047  0.5777  0.2799
  108OSM    H5S11096  -0.452   4.474  10.195 -0.8310 -0.8105  2.1222
  108OSM    C6S11097  -0.439   4.320  10.034  0.7362 -0.3191  0.0711
  108OSM    H6S11098  -0.548   4.331  10.018  0.5859 -0.5050  0.9503
  108OSM    H6T11099  -0.415   4.211  10.032 -1.4670 -0.8096 -1.3114
  108OSM    C7S11100  -0.377   4.393   9.914 -1.0822 -0.0374  0.5168
  108OSM    H7S11101  -0.269   4.368   9.903 -1.0703  0.3445 -0.2928
  108OSM    H7T11102  -0.381   4.502   9.934  0.1458 -0.4319  3.0445
  108OSM    C8S11103  -0.453   4.363   9.780 -0.3904 -0.1475 -0.6620
  108OSM    H8S11104  -0.442   4.442   9.703  0.2213  0.1437 -0.2850
  108OSM    H8T11105  -0.560   4.362   9.810 -0.4379 -1.3107 -0.8508
  108OSM    C9S11106  -0.437   4.221   9.723 -0.3976 -0.1662  0.0272
  108OSM    H9S11107  -0.415   4.139   9.795 -2.1173  1.5380  2.5665
  108OSM    H9T11108  -0.357   4.215   9.646 -0.6134 -2.1460 -0.0837
  108OSM   C10S11109  -0.565   4.161   9.660  0.5222  0.8258  0.9850
  108OSM   H10S11110  -0.641   4.170   9.741  0.9840  0.6425  1.4443
  108OSM   H10T11111  -0.560   4.053   9.638  2.4143  1.0079  0.4570
  108OSM   C11S11112  -0.646   4.240   9.560 -0.1470  0.0249  0.7564
  108OSM   H11S11113  -0.672   4.337   9.608 -2.9391 -0.2839 -0.0330
  108OSM   H11T11114  -0.740   4.182   9.549  1.3879 -2.7266  1.6125
  108OSM   C12S11115  -0.584   4.260   9.423 -0.2061 -0.5616 -0.0584
  108OSM   H12S11116  -0.547   4.159   9.395  2.2867  0.6500 -1.3102
  108OSM   H12T11117  -0.497   4.328   9.435  0.6962 -1.3638 -1.8228
  108OSM   C13S11118  -0.682   4.325   9.319 -0.5079 -0.0982 -0.0622
  108OSM   H13S11119  -0.721   4.415   9.371  1.5251  1.8853 -1.9087
  108OSM   H13T11120  -0.770   4.258   9.303 -0.9665  0.5975 -0.4640
  108OSM   C14S11121  -0.623   4.361   9.179  0.3947 -0.1537 -0.1626
  108OSM   H14S11122  -0.528   4.412   9.203  0.4541 -1.2786  2.1416
  108OSM   H14T11123  -0.682   4.430   9.115 -0.6903  0.3829  1.3793
  108OSM   C15S11124  -0.585   4.239   9.094 -0.2151 -0.5057 -0.2089
  108OSM   H15S11125  -0.663   4.160   9.089  0.6729 -1.2964 -2.4030
  108OSM   H15T11126  -0.496   4.182   9.127  0.6288  0.0873 -1.4172
  108OSM   C16S11127  -0.542   4.286   8.955 -0.0401 -0.0121 -0.1414
  108OSM   H16S11128  -0.447   4.343   8.945 -1.1834  1.6012 -2.1923
  108OSM   H16T11129  -0.609   4.372   8.935  0.0514 -0.0858 -0.7588
  108OSM   C17S11130  -0.542   4.184   8.842  0.9639  0.3336 -0.2820
  108OSM   H17S11131  -0.638   4.128   8.841 -0.5714  2.8213 -4.4938
  108OSM   H17T11132  -0.462   4.115   8.878 -1.1524 -2.2899 -0.4290
  108OSM   C18S11133  -0.509   4.232   8.700  0.5079 -0.4278  0.5855
  108OSM   H18S11134  -0.508   4.148   8.627  0.3812 -0.7803  0.9850
  108OSM   H18T11135  -0.417   4.293   8.702 -1.3331  2.4443  0.1887
  108OSM   H18U11136  -0.595   4.291   8.662  0.9312 -0.5498 -0.5818
  108OSM    C1F11137  -0.054   4.665  10.205 -0.2094  0.3311 -0.0884
  108OSM     OF11138   0.061   4.649  10.245 -0.0869  0.0307 -0.2145
  108OSM    C2F11139  -0.091   4.777  10.113  0.9163  0.2252  0.7971
  108OSM    H2F11140  -0.052   4.870  10.159 -0.1794  0.5039  1.1778
  108OSM    H2G11141  -0.201   4.787  10.106  1.0543  2.5040  1.6557
  108OSM    C3F11142  -0.031   4.763   9.977 -0.0127 -0.6519  0.2070
  108OSM    H3F11143   0.077   4.744   9.990  0.0473 -0.9099 -0.6418
  108OSM    H3G11144  -0.039   4.862   9.929  3.3239 -0.0076  0.8560
  108OSM    C4F11145  -0.108   4.663   9.887 -0.4210 -0.6614  0.9921
  108OSM    H4F11146  -0.219   4.671   9.890 -0.2784  1.6273  1.1049
  108OSM    H4G11147  -0.078   4.567   9.935  3.0796 -1.8200 -3.1790
  108OSM    C5F11148  -0.056   4.673   9.742 -1.0800  0.1731  0.1066
  108OSM    H5F11149   0.055   4.677   9.745 -1.0993 -0.0176  1.9213
  108OSM    H5G11150  -0.075   4.775   9.701 -2.9428 -0.9823 -2.0177
  108OSM    C6F11151  -0.121   4.567   9.639  0.0846 -0.5054 -0.3542
  108OSM    H6F11152  -0.222   4.609   9.617  0.6255  0.7473 -0.4842
  108OSM    H6G11153  -0.138   4.470   9.691 -1.8155  0.0955  0.2014
  108OSM    C7F11154  -0.039   4.560   9.504 -0.4856 -0.3465  0.0182
  108OSM    H7F11155   0.068   4.570   9.534  0.2914  0.2729 -2.7947
  108OSM    H7G11156  -0.066   4.654   9.451 -0.3050 -0.7668 -0.8340
  108OSM    C8F11157  -0.068   4.437   9.414 -0.2568 -0.2032 -0.6550
  108OSM    H8F11158  -0.069   4.344   9.475  1.1169 -1.0742 -1.9285
  108OSM    H8G11159   0.013   4.445   9.338  0.1270 -0.0074 -0.2331
  108OSM    C9F11160  -0.202   4.438   9.343  0.3654 -0.0590  1.0011
  108OSM    H9F11161  -0.289   4.465   9.404 -0.1133 -1.2323  0.8523
  108OSM   C10F11162  -0.218   4.405   9.216 -0.3869  0.2427  0.3082
  108OSM   H10F11163  -0.320   4.409   9.174 -0.6274 -1.9792  0.6242
  108OSM   C11F11164  -0.108   4.378   9.113 -0.1306 -0.1138  0.6023
  108OSM   H11F11165  -0.105   4.278   9.064 -1.7535  1.3992 -2.6870
  108OSM   H11G11166  -0.008   4.368   9.160  0.0515  1.3012  0.5161
  108OSM   C12F11167  -0.075   4.493   9.022 -0.3672 -0.6993  0.4411
  108OSM   H12F11168   0.026   4.468   8.983  0.4143 -0.1495  2.0675
  108OSM   H12G11169  -0.094   4.587   9.079  1.2907 -0.0402 -0.0769
  108OSM   C13F11170  -0.166   4.504   8.896  1.1545  0.1154 -0.3500
  108OSM   H13F11171  -0.149   4.600   8.843 -1.5756  0.6141 -0.3831
  108OSM   H13G11172  -0.274   4.494   8.919  1.0527  0.7220 -0.5669
  108OSM   C14F11173  -0.122   4.400   8.794  0.5599 -0.4134  0.8975
  108OSM   H14F11174  -0.205   4.396   8.720  1.3428 -4.0975  0.1202
  108OSM   H14G11175  -0.118   4.298   8.838 -1.5103 -0.4166  1.1532
  108OSM   C15F11176   0.007   4.417   8.720  0.9118 -0.6597 -0.4784
  108OSM   H15F11177   0.095   4.427   8.787 -0.1904  1.0050  0.7748
  108OSM   H15G11178  -0.009   4.510   8.661 -1.7454 -1.6904 -1.4522
  108OSM   C16F11179   0.044   4.302   8.624  0.6132 -0.0872  0.8811
  108OSM   H16F11180  -0.041   4.291   8.554 -0.2489 -0.1028  1.9179
  108OSM   H16G11181   0.065   4.212   8.684  3.2311  0.1761  0.4426
  108OSM   C17F11182   0.173   4.328   8.543  0.9013  0.4481  0.3269
  108OSM   H17F11183   0.166   4.420   8.481  1.5830 -1.4597 -2.6841
  108OSM   H17G11184   0.168   4.242   8.473  0.3317  0.3768  0.4520
  108OSM   C18F11185   0.313   4.332   8.620 -0.4128  0.1387 -0.0997
  108OSM   H18F11186   0.319   4.424   8.682 -1.0846  0.2293 -0.1668
  108OSM   H18G11187   0.399   4.326   8.551 -0.2704  0.4574  0.0518
  108OSM   H18H11188   0.323   4.251   8.695 -0.2431  0.7070  0.4940
  109OSM      N11189   6.663   4.879  10.923 -0.2417  0.0900  0.4078
  109OSM    C1511190   6.810   4.887  10.966  0.2486  0.0592  0.0016
  109OSM   H15A11191   6.854   4.978  10.928 -0.5590  1.4779  2.3388
  109OSM   H15B11192   6.857   4.805  10.914 -2.3643 -0.5047 -1.5674
  109OSM   H15C11193   6.828   4.880  11.072  0.3338 -0.7853 -0.0621
  109OSM    C1411194   6.608   4.741  10.952  0.3529  0.6761  0.2942
  109OSM   H14A11195   6.671   4.669  10.902 -0.9387  0.1607 -0.6062
  109OSM   H14B11196   6.504   4.719  10.932  0.8311 -2.3286  0.9109
  109OSM   H14C11197   6.608   4.711  11.055  0.2436 -1.7519 -0.3872
  109OSM    C1311198   6.582   4.969  11.011  0.5143 -0.3394 -0.0020
  109OSM   H13A11199   6.596   4.940  11.114 -0.4181 -0.9969 -0.0551
  109OSM   H13B11200   6.477   4.973  10.987  0.0033  2.1392  2.4575
  109OSM   H13C11201   6.624   5.068  11.015 -0.4565  0.0500  0.5107
  109OSM    C1211202   6.647   4.917  10.772 -0.3924  0.1323  0.1671
  109OSM   H12A11203   6.553   4.869  10.748 -1.0932 -0.5559  3.9428
  109OSM   H12B11204   6.726   4.862  10.722  0.4901  2.1747 -0.7320
  109OSM    C1111205   6.657   5.069  10.734 -0.6179 -0.0816  0.5624
  109OSM   H11A11206   6.560   5.112  10.768 -2.4847 -0.8484 -3.5823
  109OSM   H11B11207   6.666   5.083  10.625 -1.4041  1.3783  0.6638
  109OSM      P11208   6.786   5.257  10.870  0.2211  0.3818  0.0418
  109OSM    O1311209   6.652   5.318  10.894  0.2185  0.0917  0.3488
  109OSM    O1411210   6.872   5.232  10.986 -0.2619  0.4338  0.0302
  109OSM    O1111211   6.865   5.353  10.778  0.3026  0.1944  0.0582
  109OSM    O1211212   6.776   5.124  10.789 -0.0856 -0.0271 -0.0633
  109OSM    C1S11213   6.905   5.336  10.640  0.4311  0.4375  0.5332
  109OSM    H1S11214   6.904   5.231  10.601  1.8812  1.4910 -2.5060
  109OSM    H1T11215   7.008   5.370  10.617  0.8122  1.4571  3.6067
  109OSM     NF11216   6.869   5.380  10.399 -0.3457 -0.3008  0.1881
  109OSM    HNF11217   6.927   5.451  10.361 -1.4508  0.8279  0.5776
  109OSM    C2S11218   6.805   5.413  10.540  0.3446  0.2274  0.2869
  109OSM    H2S11219   6.706   5.361  10.539  1.0981 -1.2133 -1.4096
  109OSM    C3S11220   6.799   5.559  10.573  0.1685 -0.5202  0.1050
  109OSM    H3S11221   6.900   5.605  10.565 -0.9474  1.8485 -1.0621
  109OSM     O311222   6.754   5.590  10.709 -0.3016  0.2293  0.2231
  109OSM    HO311223   6.750   5.505  10.753 -2.6501  0.5680  0.7402
  109OSM    C4S11224   6.711   5.626  10.470  0.0773  0.0282 -0.1255
  109OSM    H4S11225   6.607   5.593  10.484  1.2483 -3.0462  1.9386
  109OSM    C5S11226   6.747   5.718  10.379  0.0839 -0.2676  0.2949
  109OSM    H5S11227   6.855   5.739  10.382 -0.2001  1.3869 -0.3788
  109OSM    C6S11228   6.663   5.779  10.267 -0.1671 -0.3425 -0.1463
  109OSM    H6S11229   6.640   5.887  10.277 -0.2149 -0.3716  0.0598
  109OSM    H6T11230   6.562   5.732  10.266  0.4803 -1.7566 -2.3839
  109OSM    C7S11231   6.728   5.757  10.130  0.0739  0.0714 -0.3377
  109OSM    H7S11232   6.725   5.649  10.107 -2.1820 -0.2231  1.2334
  109OSM    H7T11233   6.837   5.781  10.131 -0.2902  1.8156 -0.7797
  109OSM    C8S11234   6.666   5.847  10.014 -0.0823  0.1729  0.2942
  109OSM    H8S11235   6.681   5.954  10.040  0.9747  0.0150  0.3533
  109OSM    H8T11236   6.558   5.823  10.007 -0.4190  1.1959  1.6889
  109OSM    C9S11237   6.731   5.818   9.882 -0.7350 -0.2182 -0.0001
  109OSM    H9S11238   6.707   5.713   9.857 -0.5215 -0.0549 -0.9109
  109OSM    H9T11239   6.842   5.827   9.891 -0.9135  1.9516  0.2662
  109OSM   C10S11240   6.677   5.902   9.770  0.3886 -0.0538  0.6126
  109OSM   H10S11241   6.641   5.999   9.809 -0.3886  0.5650 -1.5964
  109OSM   H10T11242   6.589   5.854   9.721  0.9370 -2.0610  1.5112
  109OSM   C11S11243   6.772   5.947   9.660  0.8744  0.4552  0.6488
  109OSM   H11S11244   6.816   5.856   9.612  0.2132  0.7267 -0.4979
  109OSM   H11T11245   6.852   6.007   9.708  2.4650 -2.0623  1.2222
  109OSM   C12S11246   6.699   6.024   9.547  0.2477  0.0990 -0.4265
  109OSM   H12S11247   6.659   6.115   9.597  2.2915  0.0472  1.4070
  109OSM   H12T11248   6.612   5.961   9.519  2.6779 -3.5568 -0.0946
  109OSM   C13S11249   6.791   6.051   9.436  0.6155  0.1011 -0.6172
  109OSM   H13S11250   6.848   5.963   9.399  1.5838  1.6302 -2.8320
  109OSM   H13T11251   6.865   6.128   9.464  3.0663 -2.9831  1.8551
  109OSM   C14S11252   6.711   6.122   9.317 -0.2859 -0.3874  0.5972
  109OSM   H14S11253   6.652   6.211   9.348 -1.3262 -0.3227 -1.4989
  109OSM   H14T11254   6.635   6.048   9.283  0.8746 -2.0248  1.5044
  109OSM   C15S11255   6.798   6.151   9.195  0.4574 -0.0528  0.4652
  109OSM   H15S11256   6.826   6.062   9.136 -0.7087  0.5393 -1.0382
  109OSM   H15T11257   6.887   6.213   9.217  1.4887 -1.3895  0.0583
  109OSM   C16S11258   6.717   6.221   9.079 -0.0065 -0.1957  0.5118
  109OSM   H16S11259   6.686   6.321   9.118 -1.5449 -0.5267  0.1699
  109OSM   H16T11260   6.630   6.163   9.043  0.2310  0.0208 -0.4282
  109OSM   C17S11261   6.807   6.242   8.956 -0.4051 -0.6560  0.1403
  109OSM   H17S11262   6.840   6.141   8.926 -2.5426 -2.3342  3.2159
  109OSM   H17T11263   6.895   6.298   8.996  1.1686 -2.1542 -1.1081
  109OSM   C18S11264   6.725   6.312   8.843  0.0324  0.2619 -0.3199
  109OSM   H18S11265   6.690   6.407   8.889 -3.9522 -0.4881 -1.5707
  109OSM   H18T11266   6.634   6.256   8.810 -0.0686 -0.1330  0.6212
  109OSM   H18U11267   6.793   6.324   8.757 -1.6315  1.1404 -1.5526
  109OSM    C1F11268   6.873   5.252  10.358 -0.7257  0.6051 -0.2819
  109OSM     OF11269   6.788   5.172  10.401  0.0600 -0.8233  0.3208
  109OSM    C2F11270   6.956   5.203  10.250 -0.5907  0.4063  1.1660
  109OSM    H2F11271   6.995   5.107  10.288  1.5658 -1.8174 -5.8357
  109OSM    H2G11272   7.037   5.275  10.225 -0.5253 -0.4788 -1.2781
  109OSM    C3F11273   6.870   5.182  10.121 -0.2193 -0.2555  0.3242
  109OSM    H3F11274   6.828   5.279  10.087 -0.0500 -0.3009 -0.0148
  109OSM    H3G11275   6.779   5.120  10.140 -0.7493 -0.1981 -1.9154
  109OSM    C4F11276   6.945   5.119   9.997  0.2064  0.4965 -0.6003
  109OSM    H4F11277   6.952   5.010  10.020  1.7614  0.4602 -1.1532
  109OSM    H4G11278   7.051   5.149   9.985  0.5121  1.2348  3.4287
  109OSM    C5F11279   6.866   5.156   9.873  0.6610  0.0022  0.3976
  109OSM    H5F11280   6.875   5.264   9.852  0.0654  0.2788  1.5173
  109OSM    H5G11281   6.757   5.138   9.890  0.4656  2.2522  1.7749
  109OSM    C6F11282   6.927   5.091   9.743  0.4986  0.5856 -0.5289
  109OSM    H6F11283   6.993   5.009   9.777 -0.1018 -0.3704 -1.6547
  109OSM    H6G11284   6.998   5.167   9.705  1.2200 -1.0227 -2.4858
  109OSM    C7F11285   6.823   5.059   9.632 -0.0088 -1.2070 -0.1500
  109OSM    H7F11286   6.775   5.157   9.611  0.5034 -1.3921 -2.2967
  109OSM    H7G11287   6.747   4.989   9.671 -0.8016 -0.9965 -1.3068
  109OSM    C8F11288   6.889   4.998   9.507  0.9328  0.2261 -0.1102
  109OSM    H8F11289   6.799   4.967   9.451  1.3387 -1.8585  0.3724
  109OSM    H8G11290   6.943   4.904   9.531  0.6275  0.5634  1.9764
  109OSM    C9F11291   6.968   5.096   9.425  0.2738  0.3805  0.3781
  109OSM    H9F11292   7.077   5.089   9.443  0.4297  2.3186  0.2849
  109OSM   C10F11293   6.916   5.188   9.339 -0.4564  0.0332 -0.8759
  109OSM   H10F11294   6.994   5.240   9.281  0.1769  0.5100  0.3849
  109OSM   C11F11295   6.772   5.208   9.318 -0.2787 -0.3916  0.1446
  109OSM   H11F11296   6.743   5.299   9.374 -1.4501 -0.9852  0.5268
  109OSM   H11G11297   6.707   5.126   9.356 -1.7599  0.9360  0.5521
  109OSM   C12F11298   6.736   5.231   9.169  0.1078  0.2406 -0.1436
  109OSM   H12F11299   6.812   5.286   9.109  0.6325 -0.3705 -0.0507
  109OSM   H12G11300   6.637   5.281   9.174 -0.3391 -0.7926  2.0032
  109OSM   C13F11301   6.707   5.100   9.088  0.7728  0.5508  0.4298
  109OSM   H13F11302   6.627   5.046   9.142  0.4395 -1.6128 -2.1331
  109OSM   H13G11303   6.794   5.034   9.104  0.1666 -0.6888 -1.2090
  109OSM   C14F11304   6.681   5.118   8.935 -0.5789 -0.8001  0.2917
  109OSM   H14F11305   6.673   5.018   8.887 -2.3239 -0.3769 -0.3214
  109OSM   H14G11306   6.777   5.164   8.902 -1.0876  1.6248  2.0550
  109OSM   C15F11307   6.566   5.216   8.895 -0.0375  0.0069  0.2419
  109OSM   H15F11308   6.581   5.312   8.947 -5.0844  0.3442  1.2824
  109OSM   H15G11309   6.467   5.175   8.925 -0.5528 -0.1122 -1.5750
  109OSM   C16F11310   6.564   5.241   8.743  0.2686 -0.0855  0.0039
  109OSM   H16F11311   6.527   5.154   8.685  0.5899 -0.8946  0.9874
  109OSM   H16G11312   6.670   5.253   8.713  0.2008 -0.8620 -0.5642
  109OSM   C17F11313   6.486   5.362   8.707  0.7377  0.0273  0.7844
  109OSM   H17F11314   6.463   5.374   8.599  1.5977  3.7898  0.9400
  109OSM   H17G11315   6.531   5.459   8.737  0.0714  0.3627  0.7130
  109OSM   C18F11316   6.342   5.376   8.766 -0.8329 -0.1537 -0.0506
  109OSM   H18F11317   6.339   5.365   8.876  0.7074  0.0381  0.0216
  109OSM   H18G11318   6.283   5.294   8.720  0.1946  0.1762 -2.0279
  109OSM   H18H11319   6.307   5.474   8.728 -0.2928  0.1024  0.1076
  110OSM      N11320   2.163   4.646  10.940  0.4280  0.7451  0.3173
  110OSM    C1511321   2.028   4.700  10.988 -0.3649  0.4112 -0.3198
  110OSM   H15A11322   2.030   4.805  11.016  0.8201  1.2380 -3.2711
  110OSM   H15B11323   2.000   4.640  11.073  2.0233  0.1253  0.3145
  110OSM   H15C11324   1.951   4.687  10.913  0.2304 -1.6450 -0.5941
  110OSM    C1411325   2.212   4.750  10.849 -0.7153  0.0417  0.0958
  110OSM   H14A11326   2.149   4.765  10.762 -1.5566 -2.3075  0.2698
  110OSM   H14B11327   2.312   4.721  10.820 -1.6120 -2.0980 -1.0159
  110OSM   H14C11328   2.221   4.849  10.891  1.7852 -0.6047  1.1378
  110OSM    C1311329   2.258   4.614  11.060  0.3629 -0.4744 -0.3213
  110OSM   H13A11330   2.208   4.566  11.142 -0.3796  2.2179  0.8297
  110OSM   H13B11331   2.310   4.700  11.099  0.8680 -0.1063 -1.7774
  110OSM   H13C11332   2.327   4.542  11.019  0.4055  0.0946 -1.2692
  110OSM    C1211333   2.134   4.513  10.879 -0.2225 -0.4869 -0.3394
  110OSM   H12A11334   2.091   4.441  10.947  0.6717 -1.0231 -0.3361
  110OSM   H12B11335   2.230   4.474  10.847 -0.5429 -0.7949 -0.9264
  110OSM    C1111336   2.043   4.519  10.753  0.0700  0.0017  0.4760
  110OSM   H11A11337   2.070   4.436  10.684  0.4557  0.4460  0.0964
  110OSM   H11B11338   2.063   4.614  10.700  0.2953  0.4001  1.2609
  110OSM      P11339   1.823   4.403  10.839 -0.2065 -0.1636 -0.1640
  110OSM    O1311340   1.895   4.326  10.946 -0.0903  0.5058  0.4114
  110OSM    O1411341   1.684   4.442  10.874  0.3119 -0.1639 -0.2046
  110OSM    O1111342   1.822   4.316  10.707 -0.0390 -0.0984  0.0213
  110OSM    O1211343   1.903   4.530  10.791 -0.3147 -0.1157  0.0694
  110OSM    C1S11344   1.739   4.362  10.592 -0.3457 -0.2168  0.6499
  110OSM    H1S11345   1.674   4.450  10.609  0.7660  0.9850 -1.1726
  110OSM    H1T11346   1.667   4.285  10.556  0.3074 -0.8653  0.7202
  110OSM     NF11347   1.735   4.444  10.358 -0.7223 -0.6281 -0.2238
  110OSM    HNF11348   1.711   4.378  10.287  0.8120 -1.4643  0.0046
  110OSM    C2S11349   1.826   4.396  10.467  0.1180 -0.1133 -0.3254
  110OSM    H2S11350   1.891   4.481  10.497 -1.1308  0.3591  1.0356
  110OSM    C3S11351   1.924   4.287  10.415 -0.7709 -0.1199  0.0816
  110OSM    H3S11352   1.860   4.200  10.387  0.4505 -1.3346  0.9568
  110OSM     O311353   1.993   4.222  10.525  0.0806  0.0397 -0.0959
  110OSM    HO311354   1.931   4.246  10.594 -1.0882 -2.3698 -0.2180
  110OSM    C4S11355   2.021   4.344  10.314 -0.5901 -0.1935 -0.2714
  110OSM    H4S11356   1.999   4.319  10.210  0.4322  0.3937 -0.6270
  110OSM    C5S11357   2.127   4.419  10.331 -0.0962 -0.0994  0.4671
  110OSM    H5S11358   2.156   4.445  10.434 -1.3878  3.2725  0.0233
  110OSM    C6S11359   2.212   4.479  10.219 -0.1486  0.5677  0.0542
  110OSM    H6S11360   2.314   4.435  10.219  1.0639  3.2783 -0.9023
  110OSM    H6T11361   2.233   4.587  10.231  3.9107 -0.1296 -0.2542
  110OSM    C7S11362   2.145   4.471  10.076  0.0995 -0.1860  0.2617
  110OSM    H7S11363   2.047   4.521  10.074 -0.3804 -1.1919 -2.4561
  110OSM    H7T11364   2.120   4.363  10.063  1.3242 -0.1775 -2.4184
  110OSM    C8S11365   2.235   4.510   9.955 -0.0295  0.4476 -0.3752
  110OSM    H8S11366   2.318   4.436   9.955 -1.2635 -0.9519 -0.5782
  110OSM    H8T11367   2.280   4.608   9.980 -3.7228  1.8042  1.2925
  110OSM    C9S11368   2.164   4.499   9.824  0.0752 -1.3479 -0.1165
  110OSM    H9S11369   2.058   4.532   9.835  0.6019 -0.1107  1.2769
  110OSM    H9T11370   2.168   4.395   9.783 -1.6704 -1.1109 -0.9351
  110OSM   C10S11371   2.235   4.586   9.718 -0.2539 -0.8031  0.1042
  110OSM   H10S11372   2.343   4.560   9.715  0.0576  0.4813 -0.1250
  110OSM   H10T11373   2.227   4.692   9.751  0.5452 -0.5050 -0.6304
  110OSM   C11S11374   2.179   4.564   9.576 -0.3355  0.0212 -0.5472
  110OSM   H11S11375   2.224   4.621   9.491 -1.6439 -0.2892 -1.4668
  110OSM   H11T11376   2.071   4.592   9.582 -0.7452 -1.2909 -1.6599
  110OSM   C12S11377   2.178   4.429   9.519 -0.6377  0.4857  0.0095
  110OSM   H12S11378   2.104   4.364   9.571  1.0548  0.0082  1.8997
  110OSM   H12T11379   2.280   4.384   9.521  0.4781  2.9032 -0.9381
  110OSM   C13S11380   2.133   4.435   9.373  0.1510  0.0836  0.1888
  110OSM   H13S11381   2.129   4.334   9.327  0.5813 -0.9874  2.4048
  110OSM   H13T11382   2.213   4.494   9.324  1.1335 -0.2428  1.3642
  110OSM   C14S11383   1.996   4.497   9.352 -0.0742 -0.1273  0.2015
  110OSM   H14S11384   2.004   4.607   9.366 -2.8635  0.0505  0.8541
  110OSM   H14T11385   1.923   4.462   9.429  0.1159  1.8559  1.3196
  110OSM   C15S11386   1.947   4.475   9.207 -0.3621 -0.3542  0.6082
  110OSM   H15S11387   1.841   4.509   9.201 -0.6850 -1.1391  1.6652
  110OSM   H15T11388   1.949   4.367   9.181  0.5480 -0.1743 -0.1105
  110OSM   C16S11389   2.034   4.560   9.109  0.4777 -0.1751  1.4876
  110OSM   H16S11390   2.131   4.508   9.097 -0.4187 -1.4332 -0.4821
  110OSM   H16T11391   2.058   4.657   9.157 -0.9400  0.4532  0.9339
  110OSM   C17S11392   1.961   4.580   8.974 -0.4727  0.1170  0.7539
  110OSM   H17S11393   1.857   4.607   9.003 -1.0782 -1.7179  0.3616
  110OSM   H17T11394   1.946   4.479   8.929  1.3416 -0.0711  0.5580
  110OSM   C18S11395   2.018   4.683   8.873  0.6196  0.3119  0.7404
  110OSM   H18S11396   2.116   4.654   8.829 -1.5352 -2.5377 -2.4046
  110OSM   H18T11397   2.043   4.775   8.931  0.3210 -0.2869  1.8387
  110OSM   H18U11398   1.944   4.704   8.793  0.0776 -2.8869  0.3480
  110OSM    C1F11399   1.662   4.553  10.376  0.4250 -0.0536 -0.2010
  110OSM     OF11400   1.687   4.644  10.458  0.1350  0.2087  0.2364
  110OSM    C2F11401   1.538   4.574  10.297 -0.6024 -0.7003 -0.6059
  110OSM    H2F11402   1.466   4.497  10.332 -0.9871  0.0895  0.3993
  110OSM    H2G11403   1.557   4.560  10.189  0.0064 -1.4560 -0.4040
  110OSM    C3F11404   1.470   4.713  10.317 -0.1748 -0.7186  0.0017
  110OSM    H3F11405   1.542   4.790  10.284 -1.6912 -0.0800 -1.9358
  110OSM    H3G11406   1.458   4.725  10.427 -0.5324 -0.1967 -0.0905
  110OSM    C4F11407   1.336   4.744  10.249  0.2445  0.0071  0.0058
  110OSM    H4F11408   1.268   4.658  10.267  0.5252 -0.3336 -0.5583
  110OSM    H4G11409   1.357   4.755  10.140 -0.3592  0.9209 -0.0233
  110OSM    C5F11410   1.288   4.872  10.315  0.3519  0.0688 -0.4398
  110OSM    H5F11411   1.371   4.944  10.331 -1.4007  2.3357 -1.2754
  110OSM    H5G11412   1.240   4.845  10.411  0.1624 -0.9444 -0.8098
  110OSM    C6F11413   1.173   4.942  10.234  0.4645 -0.9535 -0.4737
  110OSM    H6F11414   1.075   4.901  10.265 -0.5294  2.1147  0.6246
  110OSM    H6G11415   1.190   4.903  10.132 -2.6714 -0.4730 -1.2275
  110OSM    C7F11416   1.186   5.093  10.245 -0.3747  0.1608 -0.6162
  110OSM    H7F11417   1.293   5.122  10.234 -0.1654 -0.1744  0.4397
  110OSM    H7G11418   1.149   5.121  10.346 -0.4496 -1.1801 -0.2610
  110OSM    C8F11419   1.090   5.170  10.146 -0.0746  0.4898 -0.7010
  110OSM    H8F11420   1.079   5.262  10.207  2.5778  0.3422  0.0570
  110OSM    H8G11421   0.993   5.118  10.131  0.0971  0.4549 -1.7117
  110OSM    C9F11422   1.154   5.208  10.013 -0.0265  0.1704 -0.4559
  110OSM    H9F11423   1.244   5.270  10.022 -0.0646  0.1518  0.0805
  110OSM   C10F11424   1.097   5.189   9.894 -0.4178 -0.3157 -0.1887
  110OSM   H10F11425   1.145   5.233   9.805  0.1412 -0.0646  0.2350
  110OSM   C11F11426   0.964   5.127   9.873 -0.6863  0.0919 -0.1240
  110OSM   H11F11427   0.895   5.195   9.926  0.4668  0.2636  1.1821
  110OSM   H11G11428   0.971   5.029   9.925  0.2374 -0.0762 -0.5499
  110OSM   C12F11429   0.917   5.121   9.726 -0.7854  0.5968 -0.4469
  110OSM   H12F11430   0.938   5.222   9.688 -1.8290  0.7045 -0.7660
  110OSM   H12G11431   0.807   5.106   9.721 -0.6590 -0.3516 -0.5966
  110OSM   C13F11432   0.979   5.006   9.642  0.3850 -0.2262 -0.8610
  110OSM   H13F11433   0.938   4.903   9.651 -0.6184  0.1242 -1.3569
  110OSM   H13G11434   1.086   4.993   9.669 -0.0612 -1.3190  0.4332
  110OSM   C14F11435   0.964   5.028   9.493 -0.1144 -0.0784 -0.8377
  110OSM   H14F11436   1.000   5.128   9.460 -1.5430  0.7653  0.1030
  110OSM   H14G11437   0.855   5.023   9.472 -0.0448  1.1124 -1.5236
  110OSM   C15F11438   1.042   4.921   9.414  0.5916 -0.6350 -0.6733
  110OSM   H15F11439   1.003   4.819   9.436 -0.0066 -0.4627 -0.9029
  110OSM   H15G11440   1.151   4.917   9.435  0.3823 -0.3646  0.4957
  110OSM   C16F11441   1.013   4.931   9.261  0.0527 -0.5789  0.1560
  110OSM   H16F11442   1.055   5.025   9.219 -1.7027  0.2176  0.1083
  110OSM   H16G11443   0.902   4.934   9.249  0.0139 -2.7957 -0.3529
  110OSM   C17F11444   1.077   4.815   9.186 -0.0999  0.0700  0.4770
  110OSM   H17F11445   1.040   4.723   9.234 -2.7578  1.3814  1.0449
  110OSM   H17G11446   1.185   4.826   9.209 -0.2378  0.4976  0.9201
  110OSM   C18F11447   1.071   4.824   9.036 -0.1615 -0.8865  0.1479
  110OSM   H18F11448   0.962   4.833   9.019 -0.5077  0.6375  2.8494
  110OSM   H18G11449   1.119   4.737   8.986  1.7441  0.6057 -0.6926
  110OSM   H18H11450   1.119   4.917   8.998 -2.2359 -0.7557 -2.2667
  111OSM      N11451   1.754   1.712  10.943  0.0710 -0.5944 -0.8594
  111OSM    C1511452   1.632   1.684  10.864  0.6963  0.2611  0.2820
  111OSM   H15A11453   1.545   1.708  10.923  2.5610 -0.8119  3.6507
  111OSM   H15B11454   1.635   1.581  10.830  1.3822 -0.4422  2.3799
  111OSM   H15C11455   1.617   1.743  10.775 -1.5202  0.2448  0.6177
  111OSM    C1411456   1.732   1.844  11.014 -0.3058 -0.4176 -0.8422
  111OSM   H14A11457   1.804   1.869  11.090  1.6031  1.9755 -3.3094
  111OSM   H14B11458   1.642   1.842  11.073  0.2548 -2.0361 -0.0072
  111OSM   H14C11459   1.727   1.921  10.939 -2.1242  0.6329  0.3298
  111OSM    C1311460   1.770   1.607  11.048  1.2181  0.7223 -0.5660
  111OSM   H13A11461   1.862   1.624  11.102  0.9210 -0.4633  0.3351
  111OSM   H13B11462   1.776   1.508  11.004  1.4921  0.9276 -0.9903
  111OSM   H13C11463   1.690   1.597  11.121  1.8329  0.0505  0.0233
  111OSM    C1211464   1.881   1.715  10.865  0.2791 -0.1084  0.1586
  111OSM   H12A11465   1.958   1.759  10.927  0.0026  1.4616 -0.6049
  111OSM   H12B11466   1.873   1.792  10.790  2.7077  0.2746  0.2267
  111OSM    C1111467   1.925   1.572  10.802  0.1603  0.2184 -0.1964
  111OSM   H11A11468   1.989   1.590  10.713  0.2139 -1.8374 -0.5801
  111OSM   H11B11469   1.835   1.520  10.764  0.9619 -1.0063 -0.4527
  111OSM      P11470   2.146   1.498  10.930 -0.4851 -0.2589  0.2550
  111OSM    O1311471   2.147   1.615  11.023  0.1403  0.0158  0.3457
  111OSM    O1411472   2.196   1.365  10.970 -0.4135  0.3005 -0.1244
  111OSM    O1111473   2.215   1.532  10.797  0.2108 -0.0003 -0.0124
  111OSM    O1211474   1.999   1.480  10.885 -0.2789  0.1405  0.1575
  111OSM    C1S11475   2.240   1.435  10.701 -0.2776 -0.2565  0.6592
  111OSM    H1S11476   2.175   1.344  10.707  1.0817 -1.2676  0.2781
  111OSM    H1T11477   2.343   1.393  10.708 -0.8994 -1.6930  1.4451
  111OSM     NF11478   2.215   1.411  10.447 -0.8156 -0.3800 -0.1479
  111OSM    HNF11479   2.305   1.384  10.414  0.9153  1.0409  3.1656
  111OSM    C2S11480   2.229   1.501  10.556  0.2380 -0.0730  0.1422
  111OSM    H2S11481   2.132   1.554  10.562 -0.2114 -0.7934 -0.6404
  111OSM    C3S11482   2.342   1.609  10.538 -0.2304 -0.3638  0.5222
  111OSM    H3S11483   2.441   1.560  10.548  0.0742  0.1745  0.1470
  111OSM     O311484   2.342   1.708  10.645  0.8760  0.0677  0.4395
  111OSM    HO311485   2.279   1.684  10.713  2.1450  0.4496  1.7678
  111OSM    C4S11486   2.326   1.688  10.410  0.0841  0.1937  0.1949
  111OSM    H4S11487   2.240   1.756  10.404 -2.2705 -2.7693 -0.5211
  111OSM    C5S11488   2.412   1.668  10.310 -0.1004  0.5016  0.6248
  111OSM    H5S11489   2.493   1.594  10.321 -0.4071  0.3372  1.8656
  111OSM    C6S11490   2.401   1.738  10.177  0.0172  0.0905 -0.1805
  111OSM    H6S11491   2.502   1.752  10.132  0.7860  1.9837  2.0496
  111OSM    H6T11492   2.355   1.838  10.191  0.1335 -0.1737  2.3558
  111OSM    C7S11493   2.318   1.660  10.064 -0.8718  0.4589 -0.3789
  111OSM    H7S11494   2.232   1.619  10.120 -0.2805 -3.0082 -1.8724
  111OSM    H7T11495   2.377   1.570  10.038  0.8183  1.0971  1.0651
  111OSM    C8S11496   2.291   1.751   9.949 -0.0635  0.4562  0.6096
  111OSM    H8S11497   2.375   1.817   9.919 -0.2266  0.2724 -0.2853
  111OSM    H8T11498   2.206   1.819   9.967 -0.3336  0.3559 -0.2686
  111OSM    C9S11499   2.252   1.673   9.824  0.0986  0.0885 -0.4896
  111OSM    H9S11500   2.146   1.650   9.847  0.5110 -0.4411  0.9023
  111OSM    H9T11501   2.311   1.579   9.819 -3.4046 -2.3352  1.2547
  111OSM   C10S11502   2.249   1.760   9.693 -0.6178  0.3345 -0.9177
  111OSM   H10S11503   2.354   1.797   9.692 -1.3794  3.0067  2.8726
  111OSM   H10T11504   2.176   1.840   9.717  0.0173  0.3621  1.0908
  111OSM   C11S11505   2.207   1.684   9.568 -0.5685 -0.3245 -0.1295
  111OSM   H11S11506   2.109   1.634   9.583 -1.0814  0.6202 -0.2865
  111OSM   H11T11507   2.285   1.605   9.557  1.3645  1.2432  1.7742
  111OSM   C12S11508   2.189   1.767   9.445  0.6431 -0.2162  1.0208
  111OSM   H12S11509   2.290   1.798   9.411  0.5153 -0.7210  0.1876
  111OSM   H12T11510   2.128   1.856   9.472  1.2901  1.2295 -2.0884
  111OSM   C13S11511   2.115   1.700   9.325  0.1899 -0.4275 -0.6598
  111OSM   H13S11512   2.128   1.590   9.325  2.7204 -0.1636 -1.0027
  111OSM   H13T11513   2.154   1.728   9.225  0.0802  0.2218 -0.5238
  111OSM   C14S11514   1.965   1.740   9.344  0.3533  0.0299  0.2745
  111OSM   H14S11515   1.941   1.848   9.347  2.5041  0.6425 -2.4044
  111OSM   H14T11516   1.932   1.695   9.440 -0.3358 -2.0577 -0.9150
  111OSM   C15S11517   1.888   1.665   9.229 -0.2527  0.3078 -0.0621
  111OSM   H15S11518   1.787   1.697   9.263  0.0558  3.2973 -1.8209
  111OSM   H15T11519   1.893   1.554   9.223  0.8156  0.4171 -1.4564
  111OSM   C16S11520   1.919   1.715   9.089 -0.2663  0.0933 -0.4033
  111OSM   H16S11521   2.022   1.690   9.054  0.3627  1.2490  0.5732
  111OSM   H16T11522   1.902   1.824   9.086 -0.6063  0.0273 -1.0733
  111OSM   C17S11523   1.820   1.662   8.983 -0.1065 -0.9242  0.3223
  111OSM   H17S11524   1.718   1.696   9.008 -0.0853  0.3754 -1.2435
  111OSM   H17T11525   1.821   1.552   8.972  0.3370 -0.7642 -1.3653
  111OSM   C18S11526   1.854   1.708   8.841  0.3433  0.8658 -0.8333
  111OSM   H18S11527   1.963   1.720   8.822  0.7656  0.2649  1.0851
  111OSM   H18T11528   1.803   1.802   8.812  0.2314  0.8731 -0.6194
  111OSM   H18U11529   1.824   1.627   8.772  0.9311 -1.5417  1.6495
  111OSM    C1F11530   2.107   1.340  10.431 -0.6390  0.4944  0.3640
  111OSM     OF11531   2.003   1.372  10.481  0.8625  0.0958  0.5251
  111OSM    C2F11532   2.128   1.215  10.359 -0.2943  0.5092  0.3932
  111OSM    H2F11533   2.080   1.126  10.405  1.6754 -0.7609  0.0401
  111OSM    H2G11534   2.236   1.192  10.374 -0.8455 -0.5448  3.1078
  111OSM    C3F11535   2.088   1.227  10.208 -0.7783  0.1280  1.0758
  111OSM    H3F11536   2.124   1.324  10.167 -1.3551  0.4294  1.2630
  111OSM    H3G11537   1.977   1.235  10.200 -0.7760 -0.3230  0.5733
  111OSM    C4F11538   2.129   1.094  10.139 -0.6754  0.4357  0.3064
  111OSM    H4F11539   2.073   1.007  10.179  0.8014 -1.1106 -0.9318
  111OSM    H4G11540   2.239   1.083  10.147 -0.0319  2.5332 -4.1892
  111OSM    C5F11541   2.099   1.089   9.987  0.1032 -0.3763 -0.1253
  111OSM    H5F11542   2.001   1.138   9.965  0.6520  0.6810 -0.2351
  111OSM    H5G11543   2.086   0.982   9.960 -1.5197  0.2123 -1.8852
  111OSM    C6F11544   2.203   1.172   9.907  0.3864  0.5900 -0.2034
  111OSM    H6F11545   2.308   1.170   9.944  0.1086  0.6092  0.5970
  111OSM    H6G11546   2.171   1.277   9.924 -0.0081  0.1814  1.8257
  111OSM    C7F11547   2.202   1.127   9.764 -0.0163 -0.1699  0.2992
  111OSM    H7F11548   2.107   1.153   9.713  1.7180 -0.1932 -3.1420
  111OSM    H7G11549   2.201   1.017   9.755  1.0162 -0.2741  1.3666
  111OSM    C8F11550   2.312   1.195   9.676  0.0870  0.0732  0.6723
  111OSM    H8F11551   2.396   1.185   9.749  2.5885 -0.9944 -2.2536
  111OSM    H8G11552   2.306   1.305   9.667 -0.8788 -0.0317 -0.0418
  111OSM    C9F11553   2.336   1.120   9.549  1.0621  0.5662 -0.4593
  111OSM    H9F11554   2.413   1.042   9.549 -1.0325 -1.5378  0.3747
  111OSM   C10F11555   2.289   1.146   9.428  0.4819  0.4690  0.0651
  111OSM   H10F11556   2.307   1.083   9.340 -0.1105 -0.8278  0.8418
  111OSM   C11F11557   2.190   1.254   9.407 -0.0710 -0.3324 -0.9930
  111OSM   H11F11558   2.227   1.354   9.438 -0.3224 -0.4797 -0.2044
  111OSM   H11G11559   2.107   1.226   9.475  1.9424  0.0321  1.6731
  111OSM   C12F11560   2.133   1.251   9.266 -0.2691  0.1347  0.1516
  111OSM   H12F11561   2.053   1.326   9.248  0.0705  0.8660  1.6138
  111OSM   H12G11562   2.101   1.148   9.236  0.2612 -0.5010  1.7195
  111OSM   C13F11563   2.234   1.300   9.167 -0.2635  0.5216  0.1035
  111OSM   H13F11564   2.314   1.224   9.182 -0.4338  0.0406 -1.2841
  111OSM   H13G11565   2.281   1.400   9.175  2.5109 -0.8110  1.6424
  111OSM   C14F11566   2.185   1.289   9.021 -0.3219  0.0286 -0.5497
  111OSM   H14F11567   2.126   1.197   9.004  1.0070 -0.9112 -0.0964
  111OSM   H14G11568   2.274   1.264   8.959 -0.7364  0.7192 -1.4362
  111OSM   C15F11569   2.127   1.426   8.977  0.0207 -0.2670 -0.1950
  111OSM   H15F11570   2.205   1.499   9.006 -0.8565  0.4299  0.4422
  111OSM   H15G11571   2.024   1.435   9.018 -0.5574  0.2774 -1.7278
  111OSM   C16F11572   2.113   1.446   8.827 -0.4223  0.9889  0.1087
  111OSM   H16F11573   2.069   1.544   8.800  0.2707  1.5095  0.8505
  111OSM   H16G11574   2.053   1.365   8.779  0.6473 -0.0490  0.4816
  111OSM   C17F11575   2.246   1.442   8.750 -0.7283  0.3768 -0.3648
  111OSM   H17F11576   2.290   1.341   8.764 -0.9721  0.0155 -2.1044
  111OSM   H17G11577   2.313   1.521   8.792 -1.7911  0.7099  0.7273
  111OSM   C18F11578   2.224   1.482   8.604 -0.1721 -0.6914 -0.1817
  111OSM   H18F11579   2.138   1.423   8.565 -1.8892  1.1413  0.7413
  111OSM   H18G11580   2.307   1.470   8.531 -0.0021  0.8264 -0.2530
  111OSM   H18H11581   2.197   1.588   8.587  2.1168 -0.7282 -4.7906
  112OSM      N11582   2.919   5.953  10.942 -0.2828  0.0146  0.0568
  112OSM    C1511583   2.993   5.848  10.869  0.0342 -1.4660 -0.0505
  112OSM   H15A11584   2.939   5.826  10.778 -2.9924 -0.9388  1.5524
  112OSM   H15B11585   3.002   5.767  10.940  0.2544 -0.4571  1.0850
  112OSM   H15C11586   3.092   5.876  10.835 -0.3868  0.0066 -0.0959
  112OSM    C1411587   3.002   6.009  11.057  0.3249  0.3339  0.6042
  112OSM   H14A11588   3.102   6.021  11.018 -0.0296 -0.5598 -0.6066
  112OSM   H14B11589   3.017   5.926  11.125  1.1121 -1.7362 -2.0163
  112OSM   H14C11590   2.960   6.083  11.124 -1.2421 -1.2650  1.4419
  112OSM    C1311591   2.888   6.066  10.843  0.5841  0.7117 -0.6751
  112OSM   H13A11592   2.982   6.112  10.818  1.5098 -1.3153 -1.0484
  112OSM   H13B11593   2.828   6.134  10.902  0.8680  0.4927 -0.1253
  112OSM   H13C11594   2.837   6.027  10.756 -1.5296  0.5343  0.5778
  112OSM    C1211595   2.790   5.885  10.992 -0.4237  0.1328 -0.6151
  112OSM   H12A11596   2.743   5.827  10.914  2.6749  0.4723 -2.8241
  112OSM   H12B11597   2.724   5.963  11.027  0.0731 -0.7335  2.3903
  112OSM    C1111598   2.795   5.772  11.106 -0.2304 -0.3053  0.6592
  112OSM   H11A11599   2.690   5.756  11.138 -1.3962  1.0420 -2.2791
  112OSM   H11B11600   2.845   5.825  11.190  1.4245  0.9408 -1.0876
  112OSM      P11601   2.781   5.522  11.008  0.2017  0.1811  0.0550
  112OSM    O1311602   2.880   5.420  10.959 -0.1484 -0.5072  0.2124
  112OSM    O1411603   2.699   5.477  11.123 -0.2342 -0.6352 -0.2807
  112OSM    O1111604   2.679   5.535  10.886  0.1390  0.7380  0.3069
  112OSM    O1211605   2.852   5.660  11.043 -0.6693 -0.7794  0.0945
  112OSM    C1S11606   2.713   5.599  10.768  0.1147 -0.0649  0.5166
  112OSM    H1S11607   2.818   5.636  10.766  0.2763 -0.5991 -1.8026
  112OSM    H1T11608   2.653   5.692  10.759  2.1593  1.2629  0.2814
  112OSM     NF11609   2.740   5.599  10.523  0.2656  0.3158  0.3067
  112OSM    HNF11610   2.666   5.624  10.460  1.8809  3.9470 -0.2533
  112OSM    C2S11611   2.696   5.515  10.639  0.5911  0.4448  0.1952
  112OSM    H2S11612   2.764   5.427  10.644 -0.1609 -0.0462  2.1915
  112OSM    C3S11613   2.548   5.462  10.621  0.9755  0.6808 -1.7000
  112OSM    H3S11614   2.480   5.549  10.633 -1.8716 -1.4024 -1.9692
  112OSM     O311615   2.506   5.375  10.727 -0.0909  0.3180  0.5849
  112OSM    HO311616   2.548   5.409  10.807  1.5001  0.4370 -0.2830
  112OSM    C4S11617   2.537   5.385  10.497  0.0310 -0.1927  0.2086
  112OSM    H4S11618   2.598   5.293  10.503 -0.4449 -0.4172  2.1279
  112OSM    C5S11619   2.445   5.404  10.404  0.4059  0.3778  0.8520
  112OSM    H5S11620   2.377   5.488  10.420  1.6884  1.4116  0.9503
  112OSM    C6S11621   2.419   5.323  10.275  0.8261 -0.9535 -0.0762
  112OSM    H6S11622   2.419   5.395  10.190 -0.6367  0.3713  1.0261
  112OSM    H6T11623   2.317   5.280  10.281  0.2362  0.6431  1.6848
  112OSM    C7S11624   2.526   5.226  10.235  0.7363 -0.0128  0.0580
  112OSM    H7S11625   2.539   5.146  10.310 -0.5299 -0.8669 -0.6299
  112OSM    H7T11626   2.620   5.285  10.229  0.7991 -0.0251  0.8539
  112OSM    C8S11627   2.495   5.159  10.103 -0.3939 -0.7187  0.1199
  112OSM    H8S11628   2.392   5.117  10.103 -0.2812 -0.9971 -0.8714
  112OSM    H8T11629   2.566   5.079  10.075 -1.4502 -2.0141  1.0810
  112OSM    C9S11630   2.505   5.252   9.980  0.4656  0.0967  0.6244
  112OSM    H9S11631   2.595   5.316   9.979  0.4737  0.1030 -1.1601
  112OSM    H9T11632   2.411   5.312   9.977 -0.5869 -1.5122  0.9885
  112OSM   C10S11633   2.505   5.177   9.844  0.2038  0.3337 -0.4932
  112OSM   H10S11634   2.412   5.116   9.836  0.0091  0.5935 -0.2541
  112OSM   H10T11635   2.588   5.103   9.844 -0.1823 -0.0973 -0.8109
  112OSM   C11S11636   2.524   5.269   9.726 -0.2837 -0.7206  0.5203
  112OSM   H11S11637   2.573   5.365   9.753 -0.1902 -0.7462  0.4405
  112OSM   H11T11638   2.426   5.295   9.681  0.3196 -0.0094 -0.3901
  112OSM   C12S11639   2.607   5.198   9.618 -0.2188  0.3571 -0.6958
  112OSM   H12S11640   2.701   5.154   9.655 -1.0612  0.5442  1.7502
  112OSM   H12T11641   2.631   5.277   9.543 -1.3028  1.5305  0.1699
  112OSM   C13S11642   2.540   5.089   9.533  0.4968 -0.0471  0.1024
  112OSM   H13S11643   2.437   5.124   9.509  1.4762  1.2505 -2.4166
  112OSM   H13T11644   2.534   5.000   9.600 -1.6974 -0.1018 -0.1146
  112OSM   C14S11645   2.616   5.060   9.400  0.2136  0.3170  0.2324
  112OSM   H14S11646   2.640   4.952   9.392  0.1704  0.2225  1.3310
  112OSM   H14T11647   2.710   5.119   9.397  0.2855  0.1390 -2.0170
  112OSM   C15S11648   2.533   5.108   9.285 -0.0579 -0.0806  0.0949
  112OSM   H15S11649   2.593   5.099   9.192 -0.5455  1.5439 -0.4023
  112OSM   H15T11650   2.517   5.217   9.300 -2.4600 -0.1714 -1.4688
  112OSM   C16S11651   2.398   5.032   9.268 -0.3259 -0.6800  0.2161
  112OSM   H16S11652   2.331   5.084   9.197  1.0796 -0.0252 -0.6459
  112OSM   H16T11653   2.342   5.033   9.364 -1.9303  0.6537 -0.7258
  112OSM   C17S11654   2.412   4.893   9.236  0.0518  0.6274 -0.2598
  112OSM   H17S11655   2.486   4.841   9.301  0.0115  3.0168  1.7349
  112OSM   H17T11656   2.450   4.899   9.132 -1.7418  1.0694 -0.9154
  112OSM   C18S11657   2.280   4.810   9.226  0.6048  0.5211  0.4756
  112OSM   H18S11658   2.250   4.766   9.324  1.2914  3.9362  2.2978
  112OSM   H18T11659   2.271   4.739   9.141 -2.7124  0.6903  0.6141
  112OSM   H18U11660   2.193   4.876   9.207 -1.2008 -1.6458  1.0094
  112OSM    C1F11661   2.868   5.618  10.517  0.9480  0.6564 -0.4599
  112OSM     OF11662   2.943   5.542  10.575 -0.1504  0.4029 -0.5164
  112OSM    C2F11663   2.919   5.737  10.441  0.9414 -0.2776  0.3991
  112OSM    H2F11664   2.969   5.805  10.513  1.9751  1.5687 -2.0078
  112OSM    H2G11665   2.837   5.797  10.397 -1.4398 -1.6665  2.7493
  112OSM    C3F11666   3.038   5.699  10.347  0.9617  0.3766 -0.1906
  112OSM    H3F11667   3.106   5.630  10.401 -0.6836  0.1809  1.6817
  112OSM    H3G11668   3.106   5.786  10.335  0.8551  0.7439  1.6509
  112OSM    C4F11669   2.986   5.637  10.216  0.3636 -0.4326 -0.4190
  112OSM    H4F11670   2.914   5.706  10.166 -0.0061  0.5602  1.4621
  112OSM    H4G11671   2.934   5.544  10.246  0.5280  0.2230  2.0034
  112OSM    C5F11672   3.099   5.594  10.114  0.3708 -0.3421 -0.5696
  112OSM    H5F11673   3.163   5.515  10.160 -0.9221 -1.6960 -1.0570
  112OSM    H5G11674   3.164   5.682  10.093  2.1677 -1.6121 -0.4470
  112OSM    C6F11675   3.054   5.543   9.975  0.2932 -0.7149 -0.4480
  112OSM    H6F11676   3.040   5.433   9.972 -2.3198 -0.4003 -1.3274
  112OSM    H6G11677   3.139   5.563   9.906 -0.4775  0.9999 -0.9168
  112OSM    C7F11678   2.919   5.613   9.926 -0.2513  0.4139  0.2935
  112OSM    H7F11679   2.919   5.721   9.951 -0.3379  0.6201 -0.5871
  112OSM    H7G11680   2.836   5.557   9.973  0.7428 -0.6719  0.7754
  112OSM    C8F11681   2.909   5.606   9.767  0.0775  0.8971  0.1330
  112OSM    H8F11682   2.992   5.674   9.735 -0.5642  1.3790 -0.5225
  112OSM    H8G11683   2.814   5.650   9.730  0.2612  0.3905 -0.9321
  112OSM    C9F11684   2.918   5.465   9.719  0.6369 -0.1780 -0.0111
  112OSM    H9F11685   2.909   5.391   9.799  1.9440  1.5705  1.7865
  112OSM   C10F11686   2.943   5.433   9.592  0.3274  0.0524 -0.1679
  112OSM   H10F11687   2.944   5.325   9.572  1.7406  0.1657 -0.7664
  112OSM   C11F11688   2.954   5.530   9.478 -0.8812  0.3574  0.5472
  112OSM   H11F11689   3.063   5.535   9.455 -0.5823 -0.5734  1.6970
  112OSM   H11G11690   2.924   5.634   9.500 -0.7512  0.5806 -0.3202
  112OSM   C12F11691   2.872   5.490   9.359 -0.2397 -1.0010 -1.0317
  112OSM   H12F11692   2.871   5.575   9.288 -0.6237 -1.2273 -1.3068
  112OSM   H12G11693   2.764   5.485   9.386 -0.4661  2.8518 -0.9963
  112OSM   C13F11694   2.920   5.354   9.295  0.2870  0.2716  0.1882
  112OSM   H13F11695   2.913   5.273   9.370 -0.2687 -0.8022 -0.9943
  112OSM   H13G11696   3.029   5.359   9.276  0.1776 -1.9170 -1.2082
  112OSM   C14F11697   2.842   5.319   9.168  0.1792  0.2554 -0.3680
  112OSM   H14F11698   2.859   5.406   9.101  0.1436  0.2398 -0.3963
  112OSM   H14G11699   2.732   5.308   9.173  0.2689 -0.5728 -0.0949
  112OSM   C15F11700   2.899   5.193   9.103 -1.1125  0.7120 -0.0569
  112OSM   H15F11701   2.878   5.107   9.171  2.6444 -0.2540  0.0078
  112OSM   H15G11702   3.005   5.192   9.069 -1.4268  1.9344 -1.0890
  112OSM   C16F11703   2.819   5.153   8.972  0.5011  0.4573  0.4471
  112OSM   H16F11704   2.728   5.095   8.997  1.2472 -0.0489  2.0819
  112OSM   H16G11705   2.879   5.086   8.907  0.9767  0.3050  1.0370
  112OSM   C17F11706   2.777   5.276   8.882 -0.2456 -0.3759  0.0911
  112OSM   H17F11707   2.861   5.346   8.860 -2.0072  1.0498 -2.3552
  112OSM   H17G11708   2.709   5.346   8.936 -2.4036 -1.2591 -1.4353
  112OSM   C18F11709   2.709   5.236   8.757  0.5139 -0.6115 -0.3771
  112OSM   H18F11710   2.694   5.324   8.691 -0.7693 -0.5221  0.0099
  112OSM   H18G11711   2.612   5.195   8.793 -1.2497  3.4666 -0.2593
  112OSM   H18H11712   2.774   5.165   8.701  1.3026  0.0375 -0.2804
  113OSM      N11713   6.618   1.507  10.830  0.5125  0.4990  0.3158
  113OSM    C1511714   6.495   1.455  10.755 -0.1670  0.1295 -0.1177
  113OSM   H15A11715   6.499   1.354  10.717 -2.6094  0.5248 -1.5183
  113OSM   H15B11716   6.484   1.517  10.667 -1.7845 -0.5029 -0.3735
  113OSM   H15C11717   6.407   1.453  10.818  0.4146 -0.4321  0.6779
  113OSM    C1411718   6.636   1.417  10.944  0.7437  0.2192 -0.4807
  113OSM   H14A11719   6.564   1.451  11.017  0.0142  1.5035 -1.7743
  113OSM   H14B11720   6.734   1.424  10.990  1.5090  0.6108 -2.1465
  113OSM   H14C11721   6.596   1.324  10.907 -1.3120  0.5866  0.6961
  113OSM    C1311722   6.740   1.493  10.738 -0.8039  0.7421  1.0502
  113OSM   H13A11723   6.720   1.532  10.639  0.7951  0.0671  0.4513
  113OSM   H13B11724   6.769   1.389  10.736 -2.0590  0.4023 -0.1521
  113OSM   H13C11725   6.830   1.544  10.770  0.6365 -1.1952  0.1876
  113OSM    C1211726   6.608   1.651  10.875 -0.7816 -0.4775 -0.1119
  113OSM   H12A11727   6.700   1.683  10.922 -1.5682 -0.6046  1.5508
  113OSM   H12B11728   6.533   1.657  10.952 -0.9108 -0.4627 -0.2397
  113OSM    C1111729   6.572   1.752  10.761 -0.1665  0.4512 -0.9228
  113OSM   H11A11730   6.464   1.748  10.737  0.1262  0.2510 -2.2396
  113OSM   H11B11731   6.614   1.725  10.662  2.0723  0.7080 -0.0859
  113OSM      P11732   6.535   1.966  10.909  0.0675 -0.2334  0.3760
  113OSM    O1311733   6.436   1.882  10.975  0.3518 -0.6843 -0.0308
  113OSM    O1411734   6.639   2.036  10.985 -0.0032  0.0783 -0.3140
  113OSM    O1111735   6.452   2.075  10.828 -0.2575 -0.0763 -0.4014
  113OSM    O1211736   6.609   1.887  10.796 -0.4563 -0.3017 -0.5538
  113OSM    C1S11737   6.513   2.163  10.734  0.5503 -0.1906  0.1049
  113OSM    H1S11738   6.521   2.103  10.641 -1.8547 -0.2372 -0.0912
  113OSM    H1T11739   6.612   2.204  10.763  1.3066 -0.5559 -1.8951
  113OSM     NF11740   6.491   2.354  10.587 -0.1401 -0.0537  0.1402
  113OSM    HNF11741   6.572   2.411  10.603  1.2021 -1.3834 -1.6782
  113OSM    C2S11742   6.427   2.285  10.693  0.4873 -0.1803  0.1877
  113OSM    H2S11743   6.329   2.239  10.668 -0.1494  0.3313  1.6982
  113OSM    C3S11744   6.407   2.373  10.818  0.1537 -0.5714 -0.3709
  113OSM    H3S11745   6.509   2.402  10.848  0.2978 -1.5309  0.0532
  113OSM     O311746   6.349   2.313  10.931 -0.4558  0.6027 -0.0242
  113OSM    HO311747   6.373   2.221  10.915 -0.0797  1.0478 -2.1897
  113OSM    C4S11748   6.317   2.495  10.786 -0.7158  0.2527 -0.5153
  113OSM    H4S11749   6.207   2.482  10.788 -1.0189  2.5112 -0.6182
  113OSM    C5S11750   6.366   2.614  10.752  0.2777  0.1065  0.1491
  113OSM    H5S11751   6.474   2.636  10.758  0.0222  0.8553  2.6148
  113OSM    C6S11752   6.281   2.738  10.727 -0.4874  0.4953 -0.0353
  113OSM    H6S11753   6.318   2.816  10.796 -0.3988 -0.7552  1.3527
  113OSM    H6T11754   6.176   2.712  10.749 -0.4129  0.1064 -0.1356
  113OSM    C7S11755   6.283   2.783  10.582 -0.2738  0.0454  0.2536
  113OSM    H7S11756   6.224   2.875  10.561 -0.6061  0.1506  1.6645
  113OSM    H7T11757   6.229   2.707  10.522 -0.7486  0.8391 -0.3441
  113OSM    C8S11758   6.426   2.789  10.516 -0.2482  1.0730 -0.6883
  113OSM    H8S11759   6.465   2.685  10.518  1.6014  1.7432 -0.0291
  113OSM    H8T11760   6.499   2.839  10.584 -0.4572  1.0048 -0.4176
  113OSM    C9S11761   6.411   2.853  10.373 -0.0447  0.4429 -0.5241
  113OSM    H9S11762   6.342   2.940  10.384 -0.1241  0.2710  0.4219
  113OSM    H9T11763   6.372   2.778  10.302  1.5475 -1.8576  0.9451
  113OSM   C10S11764   6.552   2.895  10.317 -0.0401 -0.9689  0.0892
  113OSM   H10S11765   6.618   2.806  10.314  1.8059  0.4152 -2.1858
  113OSM   H10T11766   6.600   2.966  10.387  2.3351 -0.8364 -1.5978
  113OSM   C11S11767   6.542   2.963  10.175  0.6996 -0.0016 -0.3809
  113OSM   H11S11768   6.639   3.014  10.162  0.4413  1.2022  2.0518
  113OSM   H11T11769   6.466   3.043  10.187  1.4204  0.5892  0.3113
  113OSM   C12S11770   6.494   2.869  10.067  0.3315 -0.1887  0.0230
  113OSM   H12S11771   6.402   2.811  10.092 -0.6870  1.7435  0.8750
  113OSM   H12T11772   6.578   2.798  10.051  0.2787 -0.2750  0.1249
  113OSM   C13S11773   6.462   2.933   9.932 -0.2166 -0.2451  0.1030
  113OSM   H13S11774   6.395   3.021   9.948  0.2192  0.1850 -0.4202
  113OSM   H13T11775   6.410   2.861   9.866 -0.4903  0.2229 -0.2012
  113OSM   C14S11776   6.582   2.992   9.863  0.2438 -0.1242  1.2712
  113OSM   H14S11777   6.663   2.916   9.866 -0.6971 -1.1474  0.8500
  113OSM   H14T11778   6.623   3.068   9.933 -0.5173  1.6367 -0.1636
  113OSM   C15S11779   6.555   3.038   9.723 -0.0705 -0.0654 -0.2293
  113OSM   H15S11780   6.635   3.105   9.685  1.0804 -2.2996 -1.8973
  113OSM   H15T11781   6.477   3.116   9.733 -0.1340 -0.1080 -0.3844
  113OSM   C16S11782   6.527   2.931   9.622 -0.8556  0.7490 -0.1795
  113OSM   H16S11783   6.439   2.874   9.659  0.1450 -0.0860  0.9469
  113OSM   H16T11784   6.614   2.861   9.623 -0.9202  0.6757  0.4856
  113OSM   C17S11785   6.524   2.970   9.471 -0.1865  0.2330 -0.3553
  113OSM   H17S11786   6.615   3.031   9.455 -0.5737  1.0432  0.4686
  113OSM   H17T11787   6.428   3.026   9.463 -1.9663 -2.3685  2.0790
  113OSM   C18S11788   6.493   2.857   9.372  0.1687 -0.1532  0.0054
  113OSM   H18S11789   6.537   2.873   9.272  0.9039  1.6971  0.6098
  113OSM   H18T11790   6.384   2.860   9.349  0.6236  0.1626 -2.1930
  113OSM   H18U11791   6.511   2.756   9.416  1.3324 -0.7230 -1.7380
  113OSM    C1F11792   6.472   2.313  10.460 -0.5163  0.1494  0.5367
  113OSM     OF11793   6.406   2.211  10.433  0.0560  0.0142 -0.5108
  113OSM    C2F11794   6.533   2.398  10.352  0.2286  0.5041 -0.4008
  113OSM    H2F11795   6.618   2.464  10.380  0.6271  0.1698 -0.8021
  113OSM    H2G11796   6.449   2.456  10.309  0.8775  0.1878 -2.1638
  113OSM    C3F11797   6.569   2.320  10.220 -0.0758  0.7364 -0.4396
  113OSM    H3F11798   6.487   2.251  10.187  0.8066 -0.6155  0.1338
  113OSM    H3G11799   6.660   2.259  10.242  0.4899  1.8917  0.4441
  113OSM    C4F11800   6.618   2.402  10.102 -0.0469 -0.7467  0.3567
  113OSM    H4F11801   6.671   2.333  10.033  2.2737  0.3212  0.9968
  113OSM    H4G11802   6.698   2.473  10.132  0.9128 -1.3887 -0.6490
  113OSM    C5F11803   6.509   2.479  10.035  0.0660  0.5454  0.3460
  113OSM    H5F11804   6.469   2.551  10.110 -0.7109 -0.5163  0.9697
  113OSM    H5G11805   6.420   2.415  10.015 -1.4557  2.6363  0.2456
  113OSM    C6F11806   6.541   2.559   9.905 -0.2899 -0.4105  0.2143
  113OSM    H6F11807   6.642   2.604   9.915 -0.0677 -0.7696 -0.3832
  113OSM    H6G11808   6.472   2.645   9.892 -0.9783 -0.8644  0.8372
  113OSM    C7F11809   6.546   2.475   9.779  0.0101  0.6783  0.2052
  113OSM    H7F11810   6.448   2.423   9.773 -0.8841  2.2157  1.1538
  113OSM    H7G11811   6.618   2.391   9.789  0.3454  0.5583 -2.7734
  113OSM    C8F11812   6.561   2.546   9.638 -0.1617  0.7917  0.4363
  113OSM    H8F11813   6.483   2.625   9.632 -0.9806 -0.1378 -1.6757
  113OSM    H8G11814   6.543   2.469   9.561 -1.5126  0.5548  0.9762
  113OSM    C9F11815   6.691   2.617   9.613 -0.0944  0.3300  0.3531
  113OSM    H9F11816   6.720   2.696   9.684 -1.3131  0.4115  0.7661
  113OSM   C10F11817   6.773   2.592   9.507 -0.3097  0.5386  0.0634
  113OSM   H10F11818   6.868   2.647   9.506  0.6411 -1.0441 -2.2887
  113OSM   C11F11819   6.760   2.496   9.394  0.4410 -0.0109  0.2721
  113OSM   H11F11820   6.661   2.444   9.389 -0.1599  1.2784 -2.6908
  113OSM   H11G11821   6.834   2.413   9.400  0.1622 -0.1588  1.7663
  113OSM   C12F11822   6.770   2.582   9.257  0.7863  0.1813 -0.2764
  113OSM   H12F11823   6.841   2.663   9.284 -0.5083  1.4508 -0.6196
  113OSM   H12G11824   6.665   2.617   9.246  0.8312  0.5141  0.3356
  113OSM   C13F11825   6.812   2.507   9.130 -0.1033  0.5700 -0.7714
  113OSM   H13F11826   6.734   2.434   9.100 -0.1333  0.2920 -0.0063
  113OSM   H13G11827   6.907   2.452   9.138 -0.7424 -0.5800 -1.0251
  113OSM   C14F11828   6.821   2.598   9.007 -0.7132 -0.0594 -0.4997
  113OSM   H14F11829   6.919   2.652   9.012 -0.7372 -0.2174  2.3983
  113OSM   H14G11830   6.736   2.669   9.001 -0.1646  0.7072  0.6669
  113OSM   C15F11831   6.812   2.510   8.884 -0.2236  0.1274 -1.1872
  113OSM   H15F11832   6.712   2.463   8.882  1.7776 -4.3095 -2.1419
  113OSM   H15G11833   6.890   2.432   8.900 -0.8829 -0.6342 -1.6662
  113OSM   C16F11834   6.834   2.594   8.747 -0.2017  0.3543  0.0549
  113OSM   H16F11835   6.748   2.664   8.739 -1.7986 -1.3940  1.3394
  113OSM   H16G11836   6.823   2.521   8.664 -1.4148  0.4814  0.0904
  113OSM   C17F11837   6.970   2.657   8.730 -0.0681  0.3788  0.6964
  113OSM   H17F11838   7.048   2.577   8.736  0.7497  1.0286 -1.0809
  113OSM   H17G11839   7.005   2.714   8.818  0.7224 -1.4434  1.6077
  113OSM   C18F11840   6.972   2.732   8.598  0.1110  0.3224  0.8325
  113OSM   H18F11841   7.075   2.768   8.577  1.5827 -2.9600  2.1983
  113OSM   H18G11842   6.909   2.823   8.613 -1.6529 -0.6547 -0.4521
  113OSM   H18H11843   6.937   2.674   8.510  1.2716 -1.3478  1.4607
  114OSM      N11844   0.975   5.597  11.018  0.4117 -0.0455 -0.0141
  114OSM    C1511845   0.910   5.522  10.911  0.2432  0.2963 -0.1101
  114OSM   H15A11846   0.979   5.476  10.842 -4.0464 -2.7291 -2.6078
  114OSM   H15B11847   0.846   5.579  10.845 -0.3131  0.8378  0.8777
  114OSM   H15C11848   0.854   5.438  10.948 -0.9755  0.6402 -1.1344
  114OSM    C1411849   0.861   5.663  11.096  0.8050 -0.0448 -0.2756
  114OSM   H14A11850   0.910   5.724  11.170  0.4390  0.8835 -0.7840
  114OSM   H14B11851   0.801   5.583  11.136  2.5069 -0.2906  1.8736
  114OSM   H14C11852   0.804   5.727  11.030  2.8085  2.8791  0.7488
  114OSM    C1311853   1.035   5.509  11.120 -0.7317  0.1914 -0.0882
  114OSM   H13A11854   0.987   5.412  11.121 -2.4118  1.0147 -0.0492
  114OSM   H13B11855   1.045   5.560  11.215 -0.6777  0.8742 -0.4623
  114OSM   H13C11856   1.135   5.481  11.089 -1.4678 -0.6975 -1.7014
  114OSM    C1211857   1.071   5.703  10.972  0.0374  0.3271  0.3716
  114OSM   H12A11858   1.117   5.753  11.056  1.5145 -3.0809  1.6840
  114OSM   H12B11859   1.021   5.776  10.910  1.9583  0.8808 -0.5729
  114OSM    C1111860   1.188   5.660  10.880  0.0696  0.6117 -0.3293
  114OSM   H11A11861   1.242   5.745  10.833 -2.4687  2.0211 -0.7801
  114OSM   H11B11862   1.152   5.600  10.795  0.7481 -0.3513  0.0597
  114OSM      P11863   1.415   5.633  11.014  0.2440 -0.0133 -0.1489
  114OSM    O1311864   1.366   5.745  11.098  0.0377  0.4038  0.4492
  114OSM    O1411865   1.486   5.524  11.082 -0.5500  0.1246 -0.4801
  114OSM    O1111866   1.486   5.683  10.870 -0.4098  0.1739 -0.6983
  114OSM    O1211867   1.286   5.577  10.949  0.3203 -0.3966 -0.0869
  114OSM    C1S11868   1.481   5.579  10.768 -0.2284  0.4044  0.1909
  114OSM    H1S11869   1.380   5.561  10.725  0.4130 -1.1316 -0.7226
  114OSM    H1T11870   1.514   5.483  10.812 -1.0532 -0.9492 -2.0663
  114OSM     NF11871   1.599   5.486  10.569  0.1850  0.0333  0.1110
  114OSM    HNF11872   1.679   5.427  10.575  0.2610  0.0429 -0.7399
  114OSM    C2S11873   1.588   5.603  10.647  1.1990 -0.1026  1.0007
  114OSM    H2S11874   1.560   5.691  10.585  0.2855 -1.5418 -0.6500
  114OSM    C3S11875   1.726   5.650  10.700  0.1847  0.3799 -0.6521
  114OSM    H3S11876   1.782   5.577  10.763 -1.9952  0.1247  1.0309
  114OSM     O311877   1.715   5.752  10.795 -0.9038  0.0610  0.0308
  114OSM    HO311878   1.622   5.755  10.820 -1.0103 -0.6052 -0.2831
  114OSM    C4S11879   1.821   5.683  10.586  0.4585 -0.5381  0.3071
  114OSM    H4S11880   1.894   5.602  10.572  1.2685  0.1895  0.3089
  114OSM    C5S11881   1.822   5.789  10.510 -0.3635  0.2327 -0.1232
  114OSM    H5S11882   1.748   5.870  10.522  1.7332  2.1915 -0.1027
  114OSM    C6S11883   1.927   5.807  10.405  0.2304 -0.1547 -0.6128
  114OSM    H6S11884   1.995   5.890  10.436  0.5505  0.5628 -3.1557
  114OSM    H6T11885   1.875   5.853  10.318 -2.7946  0.0941  1.2433
  114OSM    C7S11886   1.993   5.681  10.347  0.4284 -0.0984  0.4683
  114OSM    H7S11887   2.047   5.622  10.425 -0.9411  0.0616  1.5698
  114OSM    H7T11888   2.070   5.711  10.274 -1.3838  0.5507 -1.2018
  114OSM    C8S11889   1.891   5.591  10.272  0.0076  0.7611  0.7403
  114OSM    H8S11890   1.843   5.654  10.195  0.8125 -0.4407 -0.7757
  114OSM    H8T11891   1.816   5.560  10.348  0.5406 -0.6773  0.7151
  114OSM    C9S11892   1.951   5.470  10.212 -0.1052 -0.3081  1.0530
  114OSM    H9S11893   1.869   5.398  10.189  0.6250 -0.4417 -1.2006
  114OSM    H9T11894   2.025   5.420  10.277  2.1927 -2.2948 -2.9321
  114OSM   C10S11895   2.010   5.479  10.069  1.0521  0.2281 -0.1075
  114OSM   H10S11896   2.073   5.569  10.052 -0.5532  1.3928  0.0116
  114OSM   H10T11897   1.916   5.494  10.013  0.7918  1.6961  0.7111
  114OSM   C11S11898   2.078   5.350  10.029  0.2761  0.4984  0.4934
  114OSM   H11S11899   2.014   5.269  10.070  0.1718 -0.0585 -0.7545
  114OSM   H11T11900   2.174   5.320  10.077  0.5925  2.0643  0.8496
  114OSM   C12S11901   2.079   5.334   9.877 -0.2560  0.1576 -0.2103
  114OSM   H12S11902   2.165   5.396   9.842 -1.3410  2.8257  1.7475
  114OSM   H12T11903   1.976   5.362   9.845 -0.1989  0.0029 -0.5336
  114OSM   C13S11904   2.091   5.191   9.821  0.4057  0.4885  0.0995
  114OSM   H13S11905   2.023   5.127   9.882  0.4960  0.9629  0.7152
  114OSM   H13T11906   2.196   5.177   9.854  0.4252  0.8533  0.2001
  114OSM   C14S11907   2.042   5.177   9.673 -0.3996 -0.2604 -0.0261
  114OSM   H14S11908   1.939   5.213   9.651 -0.2396 -1.3499 -2.7507
  114OSM   H14T11909   2.055   5.069   9.650 -1.1947 -0.4833  0.5525
  114OSM   C15S11910   2.131   5.256   9.576 -0.2766 -0.0190  0.1268
  114OSM   H15S11911   2.233   5.213   9.565 -0.1155  0.4592 -0.2719
  114OSM   H15T11912   2.139   5.365   9.595 -0.2767  0.0013  0.0101
  114OSM   C16S11913   2.058   5.247   9.436 -0.0743 -0.0795  0.3557
  114OSM   H16S11914   2.114   5.306   9.360 -1.9820  0.7834 -0.4076
  114OSM   H16T11915   1.955   5.288   9.443  0.7124  2.0966 -0.4369
  114OSM   C17S11916   2.039   5.102   9.375 -0.3242  0.2079  0.2273
  114OSM   H17S11917   2.107   5.025   9.416  0.8652  1.3249  0.3699
  114OSM   H17T11918   2.054   5.102   9.264 -0.5310 -0.4536  0.1977
  114OSM   C18S11919   1.897   5.050   9.402  0.2292 -0.4035  0.3970
  114OSM   H18S11920   1.834   5.050   9.310  2.6940 -1.6230 -1.3435
  114OSM   H18T11921   1.858   5.118   9.481  0.7113 -0.6419  0.8396
  114OSM   H18U11922   1.910   4.946   9.441  0.6680 -0.3823  0.3064
  114OSM    C1F11923   1.497   5.441  10.503  0.2888 -0.2727 -0.0831
  114OSM     OF11924   1.397   5.510  10.496  0.0788  0.1167 -0.1708
  114OSM    C2F11925   1.497   5.302  10.435 -0.1296 -0.6943 -0.8622
  114OSM    H2F11926   1.389   5.277  10.442  0.3942 -3.2321 -1.4870
  114OSM    H2G11927   1.546   5.224  10.498 -0.8531  0.9184  1.8058
  114OSM    C3F11928   1.536   5.295  10.284  0.0986 -0.3572  0.5627
  114OSM    H3F11929   1.520   5.191  10.248 -1.5802  1.1543 -3.2570
  114OSM    H3G11930   1.644   5.319  10.273  0.0166 -0.1570  0.2168
  114OSM    C4F11931   1.465   5.394  10.193  0.7448  0.1660  0.4836
  114OSM    H4F11932   1.504   5.493  10.223  0.5647  0.2632  0.4007
  114OSM    H4G11933   1.360   5.397  10.228  0.7367 -0.0670  0.4793
  114OSM    C5F11934   1.487   5.376  10.041  0.4874 -0.1637 -0.2480
  114OSM    H5F11935   1.404   5.431   9.992  2.1077  0.2128 -2.6376
  114OSM    H5G11936   1.465   5.270  10.018  0.3713 -0.1706 -0.1147
  114OSM    C6F11937   1.619   5.424   9.982 -0.8732 -0.3459  0.4489
  114OSM    H6F11938   1.708   5.362  10.004 -0.7566 -0.9085 -1.5464
  114OSM    H6G11939   1.639   5.518  10.037 -3.1493  0.1569  0.4735
  114OSM    C7F11940   1.621   5.462   9.837 -0.1099  0.3966 -0.3834
  114OSM    H7F11941   1.713   5.523   9.822  0.6839 -0.5440  0.5566
  114OSM    H7G11942   1.532   5.526   9.819  0.0214  0.5595 -0.4581
  114OSM    C8F11943   1.612   5.351   9.733 -0.6225  0.5086 -0.0992
  114OSM    H8F11944   1.520   5.293   9.754 -0.3103 -1.1792 -3.1016
  114OSM    H8G11945   1.698   5.280   9.729  2.0192  3.5360  0.4239
  114OSM    C9F11946   1.589   5.419   9.599  0.4075  0.6447 -0.0532
  114OSM    H9F11947   1.677   5.465   9.553  0.3773 -0.7239 -1.5491
  114OSM   C10F11948   1.482   5.435   9.524 -0.7584 -0.4648 -0.5947
  114OSM   H10F11949   1.495   5.483   9.426 -1.1239  0.2207 -0.3110
  114OSM   C11F11950   1.346   5.389   9.560 -0.4692 -0.0524  0.5139
  114OSM   H11F11951   1.285   5.481   9.571  0.0148  0.3463 -0.1277
  114OSM   H11G11952   1.356   5.328   9.652 -2.5521 -1.5561 -0.2319
  114OSM   C12F11953   1.291   5.298   9.457  0.4675 -0.8069  0.5155
  114OSM   H12F11954   1.194   5.260   9.496 -0.4922  1.5290  0.4489
  114OSM   H12G11955   1.359   5.211   9.440 -0.7657 -1.6636 -0.1471
  114OSM   C13F11956   1.267   5.362   9.320  0.4212 -0.3410  0.8591
  114OSM   H13F11957   1.358   5.380   9.258 -1.1988 -0.4400 -1.6408
  114OSM   H13G11958   1.211   5.454   9.344  0.1465 -0.9286  2.4838
  114OSM   C14F11959   1.185   5.264   9.238  0.9103 -0.1248  0.4509
  114OSM   H14F11960   1.088   5.242   9.287  0.5024 -2.2935 -1.2581
  114OSM   H14G11961   1.238   5.168   9.220  1.8326  0.3986  0.3705
  114OSM   C15F11962   1.148   5.329   9.109 -0.3669 -0.0056  0.6712
  114OSM   H15F11963   1.243   5.363   9.063 -1.8712  0.9228 -1.8242
  114OSM   H15G11964   1.095   5.424   9.128 -1.1551 -0.2565 -0.2245
  114OSM   C16F11965   1.066   5.245   9.015 -0.6300  0.4013  0.1628
  114OSM   H16F11966   0.959   5.266   9.036 -0.3109  2.4390 -0.2051
  114OSM   H16G11967   1.091   5.139   9.036 -0.6261  0.5530  0.9414
  114OSM   C17F11968   1.087   5.268   8.867  0.3999 -0.2932  0.1022
  114OSM   H17F11969   1.195   5.254   8.849  0.3731  0.1136 -0.3791
  114OSM   H17G11970   1.069   5.376   8.851  0.2799  0.1845  3.1615
  114OSM   C18F11971   0.996   5.183   8.782  0.0465  0.1678  0.2076
  114OSM   H18F11972   0.894   5.225   8.791  0.7130  1.6725  0.9222
  114OSM   H18G11973   1.003   5.073   8.799  1.1016 -0.0322 -1.3850
  114OSM   H18H11974   1.027   5.191   8.676  2.4061  0.8112  0.8977
  115OSM      N11975   6.252   4.416  10.818 -0.3022  0.0451 -0.3550
  115OSM    C1511976   6.250   4.488  10.695  0.1697  0.2496  0.0581
  115OSM   H15A11977   6.290   4.588  10.702 -0.0333  0.2728  0.9563
  115OSM   H15B11978   6.152   4.496  10.650  0.4363  2.2439 -0.2308
  115OSM   H15C11979   6.304   4.435  10.619 -0.8529 -0.4249 -0.2200
  115OSM    C1411980   6.182   4.285  10.794  0.0148 -0.3463 -0.0727
  115OSM   H14A11981   6.212   4.223  10.711  0.3925 -1.2189  0.6937
  115OSM   H14B11982   6.079   4.300  10.766 -0.4547 -0.4549  1.5393
  115OSM   H14C11983   6.188   4.223  10.883  0.3319  1.6214  1.3081
  115OSM    C1311984   6.394   4.380  10.858  0.6294 -0.2695 -0.8597
  115OSM   H13A11985   6.450   4.319  10.789  0.1324  0.3498 -1.8178
  115OSM   H13B11986   6.398   4.327  10.952  0.2106  0.9162 -0.1453
  115OSM   H13C11987   6.468   4.458  10.870 -1.0376  1.2025  0.2772
  115OSM    C1211988   6.184   4.490  10.933  0.0861 -0.0118 -0.1249
  115OSM   H12A11989   6.149   4.417  11.004  0.0295 -1.1222 -1.2927
  115OSM   H12B11990   6.101   4.534  10.879 -1.2064 -1.5319  0.5897
  115OSM    C1111991   6.258   4.597  11.004  0.1042 -0.0567  0.1327
  115OSM   H11A11992   6.340   4.551  11.065  0.8670  2.0750  0.7725
  115OSM   H11B11993   6.202   4.633  11.093  1.1660  0.7659  0.4916
  115OSM      P11994   6.210   4.821  10.900  0.1462  0.1345 -0.7182
  115OSM    O1311995   6.184   4.895  11.024 -0.4132  0.1660  0.1037
  115OSM    O1411996   6.259   4.897  10.785  0.1839  0.1566 -0.0143
  115OSM    O1111997   6.067   4.749  10.856  0.0813 -0.2843  0.0940
  115OSM    O1211998   6.305   4.706  10.931 -0.1304  0.6908  0.4870
  115OSM    C1S11999   5.973   4.828  10.779  0.4960  0.3844  0.1554
  115OSM    H1S12000   6.019   4.860  10.682 -0.7313 -0.9372 -0.8751
  115OSM    H1T12001   5.937   4.919  10.831  1.4062  0.8033  0.0712
  115OSM     NF12002   5.761   4.821  10.643  0.1584  0.3108  0.7314
  115OSM    HNF12003   5.671   4.842  10.682 -0.3024  0.4804 -0.3774
  115OSM    C2S12004   5.850   4.748  10.728  0.2875 -0.0307 -0.0796
  115OSM    H2S12005   5.878   4.663  10.662 -1.3408 -1.2962  0.8020
  115OSM    C3S12006   5.778   4.682  10.852  1.2069  0.8247  0.6238
  115OSM    H3S12007   5.732   4.770  10.902 -3.1664  0.8457 -3.1069
  115OSM     O312008   5.858   4.618  10.949 -0.2145 -0.0854 -0.6786
  115OSM    HO312009   5.941   4.661  10.928  0.2191 -0.9483 -0.7441
  115OSM    C4S12010   5.668   4.592  10.798 -0.0764 -0.7045 -0.1358
  115OSM    H4S12011   5.582   4.653  10.768 -0.6093 -0.9898  0.7995
  115OSM    C5S12012   5.665   4.454  10.794  0.0011 -0.2364  0.3853
  115OSM    H5S12013   5.750   4.394  10.828 -0.5086 -1.4486 -0.4676
  115OSM    C6S12014   5.555   4.371  10.731  0.5445 -0.6661  0.0923
  115OSM    H6S12015   5.572   4.374  10.622  1.6195  2.1147  0.2893
  115OSM    H6T12016   5.458   4.424  10.743  0.9978 -0.2247  2.0590
  115OSM    C7S12017   5.540   4.234  10.782 -0.4476  0.4745 -0.0595
  115OSM    H7S12018   5.548   4.218  10.892  1.6344  0.1910 -0.2310
  115OSM    H7T12019   5.630   4.177  10.749  0.2609  1.1339  0.7016
  115OSM    C8S12020   5.416   4.155  10.721  0.2771 -0.3907 -0.8889
  115OSM    H8S12021   5.320   4.204  10.748 -0.1052 -1.6224  0.0456
  115OSM    H8T12022   5.414   4.060  10.778 -0.0817  0.4557  0.5476
  115OSM    C9S12023   5.425   4.119  10.574 -0.5586 -0.1152  0.3440
  115OSM    H9S12024   5.509   4.047  10.562 -0.6464 -0.0378 -0.7409
  115OSM    H9T12025   5.467   4.206  10.520 -2.1994 -0.2480 -1.1841
  115OSM   C10S12026   5.290   4.084  10.512 -0.2683 -0.3335 -0.7219
  115OSM   H10S12027   5.238   4.183  10.514  2.3427  1.0885 -0.0575
  115OSM   H10T12028   5.236   4.006  10.568 -0.3617  1.0190  1.1237
  115OSM   C11S12029   5.302   4.035  10.373  0.0652  0.0772  0.0452
  115OSM   H11S12030   5.345   4.114  10.307 -1.5939  0.9120 -0.0587
  115OSM   H11T12031   5.200   4.015  10.333 -0.2689  1.8276  0.0081
  115OSM   C12S12032   5.399   3.912  10.356  0.8782  0.0559 -1.2632
  115OSM   H12S12033   5.365   3.839  10.432 -1.4148  0.6977 -1.6315
  115OSM   H12T12034   5.502   3.937  10.391  0.3056  1.4179 -0.5203
  115OSM   C13S12035   5.399   3.842  10.217  0.0980 -0.6717 -0.5088
  115OSM   H13S12036   5.294   3.813  10.196  0.2491 -1.4217 -0.2423
  115OSM   H13T12037   5.464   3.752  10.222  0.9251 -0.1531 -1.7812
  115OSM   C14S12038   5.452   3.942  10.112  0.0720  0.2200  0.2698
  115OSM   H14S12039   5.552   3.983  10.137  0.5770 -0.8461  0.0320
  115OSM   H14T12040   5.388   4.034  10.109  1.5188  1.2377  0.0719
  115OSM   C15S12041   5.442   3.886   9.969  0.1994  0.0867 -0.3493
  115OSM   H15S12042   5.340   3.844   9.957 -0.2771  1.2972 -0.6534
  115OSM   H15T12043   5.516   3.805   9.952 -0.0989 -0.0336 -1.1171
  115OSM   C16S12044   5.482   3.992   9.863  0.6716 -0.1762 -0.4045
  115OSM   H16S12045   5.576   4.043   9.896  1.2485 -0.9415 -0.8437
  115OSM   H16T12046   5.405   4.072   9.857 -0.5133 -1.2031  0.7857
  115OSM   C17S12047   5.512   3.924   9.729 -0.1899 -0.1574  0.5101
  115OSM   H17S12048   5.410   3.891   9.699 -0.0664  1.2640 -1.6127
  115OSM   H17T12049   5.573   3.835   9.752  0.3727 -0.2963 -1.4025
  115OSM   C18S12050   5.571   4.008   9.627 -0.6693 -0.2641  0.1626
  115OSM   H18S12051   5.520   4.105   9.609 -1.4199 -0.5018  0.9862
  115OSM   H18T12052   5.567   3.962   9.527  1.1595  0.6261 -0.3537
  115OSM   H18U12053   5.676   4.028   9.659 -0.3367  0.2170 -1.2129
  115OSM    C1F12054   5.798   4.865  10.527 -0.2270  0.5625  0.0960
  115OSM     OF12055   5.895   4.814  10.467  0.4129 -0.0274  0.4436
  115OSM    C2F12056   5.724   4.984  10.480  0.1949 -0.6986  0.2630
  115OSM    H2F12057   5.755   5.073  10.539 -2.9810  1.4090 -1.0971
  115OSM    H2G12058   5.617   4.977  10.510  0.3817 -0.2518  1.0499
  115OSM    C3F12059   5.724   5.002  10.326 -0.0267 -0.9177  0.4157
  115OSM    H3F12060   5.659   4.925  10.281 -2.5924  0.5280  1.5619
  115OSM    H3G12061   5.827   5.000  10.283  0.4447 -1.3295  1.5218
  115OSM    C4F12062   5.666   5.133  10.279 -0.6299  0.4173 -0.7713
  115OSM    H4F12063   5.727   5.217  10.317 -2.5161  0.6367  1.9275
  115OSM    H4G12064   5.563   5.136  10.321  0.6595  1.1243  2.5180
  115OSM    C5F12065   5.639   5.142  10.132  0.3813  0.6103 -0.0712
  115OSM    H5F12066   5.734   5.137  10.073 -1.1609  3.4627 -2.9902
  115OSM    H5G12067   5.598   5.245  10.119  2.6848  1.6301  0.5280
  115OSM    C6F12068   5.525   5.056  10.075 -0.5831 -0.0849  0.2628
  115OSM    H6F12069   5.447   5.065  10.153 -0.1492  2.1996  0.4733
  115OSM    H6G12070   5.558   4.950  10.063  0.4627  0.4790 -2.0469
  115OSM    C7F12071   5.473   5.112   9.944  0.7509 -0.5738  0.2167
  115OSM    H7F12072   5.421   5.206   9.974  0.8093 -0.6343  0.5098
  115OSM    H7G12073   5.403   5.035   9.905  0.5373  0.3315 -1.2254
  115OSM    C8F12074   5.581   5.141   9.839  0.8450  0.5460  0.3400
  115OSM    H8F12075   5.629   5.043   9.816  0.1176  0.4694 -0.9600
  115OSM    H8G12076   5.666   5.203   9.874  0.7792  0.5623  0.4716
  115OSM    C9F12077   5.521   5.200   9.715  0.4309  0.1743  0.7785
  115OSM    H9F12078   5.511   5.310   9.715 -2.6702 -0.0612  2.2103
  115OSM   C10F12079   5.485   5.128   9.605 -0.0870  0.2977 -0.3263
  115OSM   H10F12080   5.444   5.184   9.520 -0.5938  0.1959 -0.1475
  115OSM   C11F12081   5.493   4.978   9.583 -0.1557  0.0675 -0.3261
  115OSM   H11F12082   5.519   4.923   9.677  1.8221  1.3915 -0.0614
  115OSM   H11G12083   5.571   4.957   9.506  1.7615  1.7925  1.0738
  115OSM   C12F12084   5.368   4.896   9.539 -0.3698 -0.1029  0.0510
  115OSM   H12F12085   5.275   4.922   9.595  0.3100 -2.1843  2.2049
  115OSM   H12G12086   5.396   4.792   9.564  0.8695 -0.7835 -3.8756
  115OSM   C13F12087   5.333   4.911   9.392 -0.6137  0.0715  0.1854
  115OSM   H13F12088   5.422   4.879   9.333  0.2109 -0.1454  1.5389
  115OSM   H13G12089   5.320   5.020   9.371 -0.9811 -0.0250 -0.0790
  115OSM   C14F12090   5.219   4.819   9.345 -0.4726 -0.1997  0.0304
  115OSM   H14F12091   5.133   4.818   9.414  0.7872 -0.2664  1.6305
  115OSM   H14G12092   5.261   4.717   9.362 -1.6661 -0.4629  1.4135
  115OSM   C15F12093   5.180   4.839   9.197  0.2778 -0.0601  0.8979
  115OSM   H15F12094   5.166   4.947   9.173  2.7200  0.0658 -0.1901
  115OSM   H15G12095   5.085   4.787   9.175  0.5635  0.5512 -1.9809
  115OSM   C16F12096   5.289   4.785   9.098  0.7021  0.1917  0.2498
  115OSM   H16F12097   5.270   4.680   9.069  2.5583  0.1040 -0.6730
  115OSM   H16G12098   5.392   4.787   9.139  0.0451  0.1163  1.9574
  115OSM   C17F12099   5.301   4.863   8.966 -0.2141  0.4369 -0.5895
  115OSM   H17F12100   5.198   4.858   8.923 -0.0147  1.0597 -1.1409
  115OSM   H17G12101   5.369   4.813   8.894  1.1197  1.3921 -0.0070
  115OSM   C18F12102   5.356   5.003   8.973  0.0361  0.5249  0.2894
  115OSM   H18F12103   5.466   5.014   8.965  0.1271 -0.5459  0.0908
  115OSM   H18G12104   5.301   5.047   9.059 -0.2779  0.4826  0.1096
  115OSM   H18H12105   5.324   5.062   8.884 -1.6162 -0.5719  0.1487
  116OSM      N12106   1.293   0.580  11.013  0.3770 -0.2467 -0.2592
  116OSM    C1512107   1.366   0.481  10.924  0.4903 -0.2689 -0.8917
  116OSM   H15A12108   1.289   0.436  10.863 -0.4636 -0.7013  0.6091
  116OSM   H15B12109   1.418   0.405  10.981 -0.7334  0.7053  1.5830
  116OSM   H15C12110   1.434   0.541  10.865  0.9288  0.4258  0.2957
  116OSM    C1412111   1.194   0.500  11.094 -0.2952  0.1855  0.3911
  116OSM   H14A12112   1.124   0.458  11.023  0.6094  1.4695 -1.3187
  116OSM   H14B12113   1.148   0.563  11.168 -1.5023 -0.8080  0.5016
  116OSM   H14C12114   1.239   0.421  11.151 -0.2890  0.5042  0.8315
  116OSM    C1312115   1.402   0.631  11.108 -0.0875  0.7312  0.0485
  116OSM   H13A12116   1.445   0.543  11.154 -0.6742 -0.0978 -0.9695
  116OSM   H13B12117   1.365   0.691  11.190 -3.3417 -0.4993 -0.4672
  116OSM   H13C12118   1.475   0.691  11.054 -0.4006  1.5873  0.5731
  116OSM    C1212119   1.230   0.695  10.941 -0.8531 -1.2133 -0.3519
  116OSM   H12A12120   1.207   0.759  11.025  0.8557 -0.5380 -0.3832
  116OSM   H12B12121   1.137   0.663  10.896 -3.2710  1.3850  2.5886
  116OSM    C1112122   1.305   0.781  10.833  0.5289  0.3196 -0.1708
  116OSM   H11A12123   1.239   0.861  10.792  1.5788  1.4909  0.3808
  116OSM   H11B12124   1.318   0.714  10.746 -2.1316 -1.9367  1.0896
  116OSM      P12125   1.410   0.962  10.977  0.1122  0.1679  0.0076
  116OSM    O1312126   1.301   0.939  11.079 -0.7178  0.3673 -0.1171
  116OSM    O1412127   1.550   0.993  11.030 -0.5313  1.2253 -0.0228
  116OSM    O1112128   1.370   1.059  10.860 -0.2178 -0.2635 -0.6880
  116OSM    O1212129   1.426   0.829  10.891  0.5024  0.4142  0.1907
  116OSM    C1S12130   1.454   1.071  10.742  0.0690  0.0302  0.6363
  116OSM    H1S12131   1.446   0.973  10.690  1.6702 -0.9423  2.1342
  116OSM    H1T12132   1.565   1.074  10.751  0.5472 -1.7460 -3.4286
  116OSM     NF12133   1.483   1.197  10.528  0.0311 -0.2071 -0.0324
  116OSM    HNF12134   1.543   1.276  10.517 -0.6146  0.2943  0.0216
  116OSM    C2S12135   1.412   1.198  10.652 -0.3743 -0.5373  0.1380
  116OSM    H2S12136   1.303   1.195  10.632 -0.0722  1.7611 -2.1718
  116OSM    C3S12137   1.442   1.330  10.732 -0.0192  0.1090 -0.7803
  116OSM    H3S12138   1.552   1.345  10.748 -0.2199  0.2018  0.6543
  116OSM     O312139   1.386   1.335  10.864 -0.2723 -0.7301  0.2512
  116OSM    HO312140   1.357   1.247  10.890  0.4841 -1.5690 -1.5933
  116OSM    C4S12141   1.385   1.443  10.651 -0.0721  0.5926 -0.1315
  116OSM    H4S12142   1.278   1.456  10.671  0.4458 -0.6101  3.9844
  116OSM    C5S12143   1.451   1.531  10.576 -0.1684  0.2029  0.7560
  116OSM    H5S12144   1.561   1.538  10.579 -0.1761  3.9020 -2.7173
  116OSM    C6S12145   1.397   1.639  10.493 -0.4439 -0.2572  0.0086
  116OSM    H6S12146   1.465   1.724  10.512  0.2456 -1.0466  1.1157
  116OSM    H6T12147   1.296   1.677  10.521  0.2199  0.3877  1.5550
  116OSM    C7S12148   1.411   1.605  10.345 -0.4527 -0.3485  0.1158
  116OSM    H7S12149   1.333   1.532  10.315 -1.3447  0.5474  0.2331
  116OSM    H7T12150   1.512   1.562  10.330  0.3037  0.9699  1.3681
  116OSM    C8S12151   1.400   1.729  10.252 -0.0761  0.0396 -0.3572
  116OSM    H8S12152   1.481   1.798  10.282  1.5984 -1.9351 -0.2255
  116OSM    H8T12153   1.298   1.771  10.266  0.7611  1.6125  1.1756
  116OSM    C9S12154   1.426   1.691  10.104  0.5023 -0.5257  0.0494
  116OSM    H9S12155   1.499   1.609  10.092 -2.1256 -2.9921  0.2841
  116OSM    H9T12156   1.455   1.788  10.059  1.4432 -0.3614  0.9946
  116OSM   C10S12157   1.291   1.658  10.043  0.9817 -0.0837  0.3460
  116OSM   H10S12158   1.232   1.751  10.057 -0.4481 -0.1510 -4.4063
  116OSM   H10T12159   1.246   1.572  10.097  1.3070 -1.8463 -2.0903
  116OSM   C11S12160   1.307   1.629   9.894  0.8238  0.4222 -0.3634
  116OSM   H11S12161   1.369   1.538   9.884  0.4154 -0.1468  1.9245
  116OSM   H11T12162   1.352   1.724   9.857 -1.5171  2.2467  1.3189
  116OSM   C12S12163   1.163   1.614   9.836  0.5943 -0.6920 -0.2265
  116OSM   H12S12164   1.127   1.718   9.850  0.3152 -0.5422 -1.9529
  116OSM   H12T12165   1.101   1.539   9.889 -0.8558  0.5110 -0.1886
  116OSM   C13S12166   1.177   1.574   9.685  0.2066 -0.2997 -0.3365
  116OSM   H13S12167   1.208   1.469   9.670  0.7358  0.0337 -1.6963
  116OSM   H13T12168   1.266   1.634   9.655 -0.3022  1.2602  1.1839
  116OSM   C14S12169   1.049   1.602   9.608 -0.7506  0.4864 -0.6517
  116OSM   H14S12170   1.074   1.606   9.500  0.8364  0.1795 -0.3185
  116OSM   H14T12171   1.000   1.697   9.637  1.1329  2.0958 -2.5641
  116OSM   C15S12172   0.940   1.496   9.639 -0.4471  0.6178 -0.3031
  116OSM   H15S12173   0.950   1.477   9.748  1.8144 -0.6508 -0.6824
  116OSM   H15T12174   0.953   1.391   9.604 -1.1517  0.7598 -1.0064
  116OSM   C16S12175   0.794   1.536   9.603 -0.3325  0.0574 -0.6358
  116OSM   H16S12176   0.787   1.492   9.501  2.9745  0.4012 -1.0504
  116OSM   H16T12177   0.786   1.646   9.599 -0.6635  0.0308 -0.7129
  116OSM   C17S12178   0.677   1.485   9.691 -0.0664 -0.3861 -0.2214
  116OSM   H17S12179   0.669   1.546   9.784 -1.2880  1.3062 -1.4072
  116OSM   H17T12180   0.676   1.378   9.719  0.6445 -0.7876 -1.7015
  116OSM   C18S12181   0.548   1.531   9.612  0.1575  0.2266  0.2954
  116OSM   H18S12182   0.533   1.641   9.619 -2.2998 -0.1663  2.2211
  116OSM   H18T12183   0.455   1.492   9.660 -0.7847  2.9464  0.7819
  116OSM   H18U12184   0.554   1.499   9.506 -4.2465 -0.3515  0.1142
  116OSM    C1F12185   1.478   1.090  10.450  0.3210 -0.1554  0.3241
  116OSM     OF12186   1.390   1.005  10.456  0.3358  0.3021 -0.1907
  116OSM    C2F12187   1.579   1.090  10.343 -0.7113  0.4270 -0.5594
  116OSM    H2F12188   1.680   1.101  10.389 -0.8122  1.0269 -0.4803
  116OSM    H2G12189   1.565   1.185  10.287 -1.7264  0.5907 -0.0220
  116OSM    C3F12190   1.577   0.972  10.244 -0.4670  0.0269 -0.1407
  116OSM    H3F12191   1.492   0.981  10.172 -0.4226 -1.6788 -0.4393
  116OSM    H3G12192   1.556   0.877  10.298 -0.3075 -0.8381 -1.5611
  116OSM    C4F12193   1.699   0.951  10.154 -0.2292  0.6093 -0.7592
  116OSM    H4F12194   1.783   0.911  10.215 -3.6034 -0.6737  3.3182
  116OSM    H4G12195   1.719   1.049  10.105  4.4206  0.3304  0.3059
  116OSM    C5F12196   1.682   0.846  10.042  0.1128 -0.3810 -0.2295
  116OSM    H5F12197   1.591   0.877   9.985 -0.8022 -1.2340  0.7287
  116OSM    H5G12198   1.655   0.749  10.090  1.8320 -1.0574 -0.6081
  116OSM    C6F12199   1.801   0.817   9.950  0.2101 -0.7566  0.1653
  116OSM    H6F12200   1.879   0.765  10.010  0.2403  0.7515  1.4416
  116OSM    H6G12201   1.846   0.916   9.928  0.7495 -0.8582  0.7817
  116OSM    C7F12202   1.765   0.745   9.819 -0.3484 -0.1245  0.4671
  116OSM    H7F12203   1.715   0.818   9.752 -0.7033 -1.0447 -0.2860
  116OSM    H7G12204   1.706   0.655   9.845  0.0093 -0.2666  0.7951
  116OSM    C8F12205   1.891   0.692   9.754 -0.3571 -0.5048  0.4218
  116OSM    H8F12206   1.866   0.621   9.672  0.3714 -0.7471  0.4051
  116OSM    H8G12207   1.948   0.636   9.831 -2.0065 -0.7830  1.4702
  116OSM    C9F12208   1.981   0.806   9.701 -0.5024 -0.5567  0.3742
  116OSM    H9F12209   1.999   0.885   9.775 -0.9297 -0.0697 -0.0439
  116OSM   C10F12210   2.026   0.821   9.576  0.4685 -0.1067  0.2323
  116OSM   H10F12211   2.094   0.903   9.550  0.6885 -0.2827  0.2495
  116OSM   C11F12212   2.003   0.734   9.455 -0.0125  0.4056  0.4445
  116OSM   H11F12213   1.984   0.629   9.489  0.7171  0.8783  2.4147
  116OSM   H11G12214   2.094   0.728   9.392 -0.7223 -1.8996 -0.4284
  116OSM   C12F12215   1.884   0.785   9.383  0.5465 -0.5955  1.1916
  116OSM   H12F12216   1.800   0.815   9.449 -0.8149 -1.1253 -0.2696
  116OSM   H12G12217   1.839   0.699   9.329  0.9493 -0.0427 -0.0380
  116OSM   C13F12218   1.903   0.886   9.274 -0.1752 -0.7143 -0.0631
  116OSM   H13F12219   1.977   0.851   9.199  0.1356  0.1299 -0.1602
  116OSM   H13G12220   1.951   0.968   9.332 -0.0148 -0.1526 -0.9858
  116OSM   C14F12221   1.784   0.935   9.193 -0.9661 -0.2189  0.7360
  116OSM   H14F12222   1.695   0.939   9.259 -2.4045 -1.9091 -1.0486
  116OSM   H14G12223   1.756   0.865   9.112  2.9762  0.3862 -1.2552
  116OSM   C15F12224   1.818   1.070   9.135 -0.1601 -0.2644 -0.6748
  116OSM   H15F12225   1.917   1.062   9.085 -0.2580  0.0766 -0.9288
  116OSM   H15G12226   1.826   1.143   9.219 -0.7145 -1.8043  0.7411
  116OSM   C16F12227   1.700   1.119   9.043 -0.5356  0.0361 -0.3526
  116OSM   H16F12228   1.607   1.075   9.084 -0.1564 -0.7592 -0.3433
  116OSM   H16G12229   1.699   1.078   8.939  1.2772  0.4171 -0.5393
  116OSM   C17F12230   1.694   1.267   9.031 -0.1253 -0.2626  0.0139
  116OSM   H17F12231   1.797   1.304   9.014 -0.6785  1.2259 -0.1765
  116OSM   H17G12232   1.662   1.304   9.132 -0.7581 -1.0823  0.1149
  116OSM   C18F12233   1.590   1.317   8.935 -0.4540  0.2369 -0.4364
  116OSM   H18F12234   1.595   1.428   8.939  3.5424  0.1394 -0.3710
  116OSM   H18G12235   1.487   1.281   8.954 -0.2848  1.0638  2.1517
  116OSM   H18H12236   1.623   1.301   8.830  0.1204 -0.9240 -0.0888
  117OSM      N12237   5.959   2.188  11.167  0.1097  0.1198  0.4964
  117OSM    C1512238   5.851   2.264  11.242  0.3346  0.5832  0.5762
  117OSM   H15A12239   5.764   2.202  11.259  0.2880  0.9934  1.8549
  117OSM   H15B12240   5.825   2.356  11.191 -1.6518  2.1357  4.2046
  117OSM   H15C12241   5.891   2.291  11.338  0.7377  1.0468  0.2791
  117OSM    C1412242   6.074   2.285  11.145 -0.8329 -0.2289  0.9170
  117OSM   H14A12243   6.050   2.353  11.065  1.9330  0.5154  0.6502
  117OSM   H14B12244   6.169   2.236  11.129 -1.5125 -1.1228 -0.4322
  117OSM   H14C12245   6.087   2.346  11.234 -0.7835 -0.4556  1.0655
  117OSM    C1312246   5.995   2.074  11.244 -0.1614  0.6467 -0.2952
  117OSM   H13A12247   6.080   2.020  11.203  0.6527  0.9171  0.9863
  117OSM   H13B12248   5.912   2.008  11.258  0.8104 -0.8287 -1.3293
  117OSM   H13C12249   6.040   2.107  11.336  1.1878 -0.1680 -0.6368
  117OSM    C1212250   5.915   2.147  11.034  0.2764 -0.3484 -0.5064
  117OSM   H12A12251   5.860   2.231  10.995 -0.8261 -0.9868 -0.3420
  117OSM   H12B12252   5.842   2.067  11.039  0.8310 -0.8486 -0.3708
  117OSM    C1112253   6.018   2.100  10.924  0.2664  0.0392 -0.0459
  117OSM   H11A12254   6.095   2.177  10.904  1.8122 -1.2751  0.6558
  117OSM   H11B12255   5.962   2.097  10.829  0.7187 -1.5765 -0.2729
  117OSM      P12256   6.013   1.840  10.908  0.5201 -0.3613 -0.1367
  117OSM    O1312257   6.072   1.730  10.988 -0.0612  0.1937  0.2922
  117OSM    O1412258   5.863   1.850  10.909 -0.1982 -0.8047  0.6688
  117OSM    O1112259   6.052   1.823  10.747 -0.6498 -0.2833 -0.1850
  117OSM    O1212260   6.079   1.974  10.953  0.3943  0.4199  0.6601
  117OSM    C1S12261   6.179   1.870  10.697  0.1360 -0.2892  1.3394
  117OSM    H1S12262   6.261   1.796  10.705 -0.1741 -0.7104  0.6688
  117OSM    H1T12263   6.204   1.967  10.746 -3.4773  1.4835 -0.1047
  117OSM     NF12264   6.304   1.926  10.504  0.5587 -0.1987 -0.9895
  117OSM    HNF12265   6.322   2.024  10.511 -0.3255  0.0385 -1.9294
  117OSM    C2S12266   6.170   1.894  10.552  0.1502  0.3522  1.0114
  117OSM    H2S12267   6.137   1.806  10.493 -1.6239  2.3230 -1.0125
  117OSM    C3S12268   6.069   2.006  10.522 -0.4721 -0.0822  0.4533
  117OSM    H3S12269   6.121   2.101  10.549 -2.1559  0.8305  0.5921
  117OSM     O312270   5.949   1.999  10.601 -0.5865  0.1120  0.3809
  117OSM    HO312271   5.963   1.917  10.648 -3.2833 -0.8337 -0.3635
  117OSM    C4S12272   6.034   2.008  10.373  0.9297 -0.1350  0.0207
  117OSM    H4S12273   6.005   1.913  10.326  3.0462 -0.9205  0.2554
  117OSM    C5S12274   6.036   2.110  10.286  0.1120  0.0530  0.0944
  117OSM    H5S12275   6.049   2.215  10.315  1.3062 -0.1109  0.2002
  117OSM    C6S12276   6.003   2.092  10.139 -0.1991  0.0699 -0.5430
  117OSM    H6S12277   5.962   2.192  10.114  0.6397  0.3899 -0.6471
  117OSM    H6T12278   5.917   2.022  10.134 -0.3329  0.0375  1.8032
  117OSM    C7S12279   6.111   2.069  10.042 -0.1111  0.0491  0.4923
  117OSM    H7S12280   6.174   1.980  10.065 -0.8378 -0.5398  0.2320
  117OSM    H7T12281   6.184   2.152  10.039 -0.3489  0.2067 -1.8179
  117OSM    C8S12282   6.058   2.042   9.901  0.1630 -0.0239  0.2239
  117OSM    H8S12283   5.976   1.969   9.895 -0.1663  0.2894  0.8716
  117OSM    H8T12284   6.145   2.019   9.836 -0.2884 -1.0406 -0.0262
  117OSM    C9S12285   6.012   2.168   9.832  0.0608  1.0007 -0.2123
  117OSM    H9S12286   6.085   2.250   9.848  0.4089  0.4345  1.1496
  117OSM    H9T12287   5.918   2.188   9.887 -0.1352 -1.0365  0.2573
  117OSM   C10S12288   5.974   2.165   9.680  0.3386 -0.5613 -0.3003
  117OSM   H10S12289   6.065   2.118   9.639  1.4444 -0.0322  1.4804
  117OSM   H10T12290   5.971   2.269   9.642 -0.7687 -0.0956  0.9805
  117OSM   C11S12291   5.840   2.100   9.669 -0.3200 -0.2430  0.3801
  117OSM   H11S12292   5.767   2.175   9.708 -0.5509 -0.8858  1.1998
  117OSM   H11T12293   5.832   2.002   9.721 -1.1001 -0.6224 -0.4377
  117OSM   C12S12294   5.800   2.060   9.524  0.5775  0.3948  0.0628
  117OSM   H12S12295   5.788   2.149   9.459  0.1782 -1.2811 -2.2031
  117OSM   H12T12296   5.706   2.002   9.517  1.3337 -0.8923  0.5599
  117OSM   C13S12297   5.907   1.975   9.460  0.0448 -0.1165 -0.2756
  117OSM   H13S12298   5.929   1.893   9.532  1.2009  0.4354  0.0127
  117OSM   H13T12299   6.001   2.035   9.455  0.7685 -1.3007 -1.0242
  117OSM   C14S12300   5.872   1.926   9.324  0.2994 -0.2861  0.4520
  117OSM   H14S12301   5.777   1.869   9.330  0.1863  0.0548  2.2066
  117OSM   H14T12302   5.946   1.856   9.279 -0.4712 -1.6182  1.2369
  117OSM   C15S12303   5.860   2.042   9.218 -0.4387 -0.0798 -0.2446
  117OSM   H15S12304   5.963   2.081   9.198  0.1587 -1.0427  0.8815
  117OSM   H15T12305   5.817   2.133   9.266 -0.5215 -0.0255 -0.4191
  117OSM   C16S12306   5.793   2.008   9.086  0.0018  0.7265 -0.0496
  117OSM   H16S12307   5.691   1.970   9.107 -0.4816  0.1794 -3.1907
  117OSM   H16T12308   5.852   1.937   9.025  1.1969  0.9107  0.8769
  117OSM   C17S12309   5.784   2.128   8.995  0.0373 -0.1183 -0.4308
  117OSM   H17S12310   5.875   2.144   8.934 -1.1505  0.2516 -2.1293
  117OSM   H17T12311   5.743   2.214   9.053  1.1113  0.7168 -0.8907
  117OSM   C18S12312   5.669   2.107   8.900  0.6522  0.1742 -0.5140
  117OSM   H18S12313   5.689   2.030   8.822  2.1832  2.1244 -2.1027
  117OSM   H18T12314   5.639   2.200   8.847  3.0063  1.0060 -0.4660
  117OSM   H18U12315   5.578   2.076   8.954  0.3895  1.2191 -0.3389
  117OSM    C1F12316   6.395   1.832  10.483 -0.4287 -0.3692  1.0716
  117OSM     OF12317   6.365   1.712  10.505 -0.0111 -0.1774  0.2566
  117OSM    C2F12318   6.534   1.880  10.434 -0.0176  0.4299  0.3664
  117OSM    H2F12319   6.595   1.788  10.443 -0.7084  0.0323  0.9915
  117OSM    H2G12320   6.570   1.965  10.496 -0.6086  1.8485 -1.2045
  117OSM    C3F12321   6.528   1.933  10.290 -0.1397  0.8442  0.5978
  117OSM    H3F12322   6.636   1.943  10.265 -0.5431 -0.7418 -1.9898
  117OSM    H3G12323   6.475   2.029  10.271  1.0848  1.5067  0.4740
  117OSM    C4F12324   6.455   1.832  10.199 -0.1170 -0.1956  0.5341
  117OSM    H4F12325   6.345   1.845  10.195  0.0380  0.9009 -0.2350
  117OSM    H4G12326   6.478   1.731  10.240  1.4790 -0.0648  0.0262
  117OSM    C5F12327   6.518   1.845  10.057 -0.0529 -0.0508  0.1801
  117OSM    H5F12328   6.470   1.776   9.985 -1.1065 -1.9521  2.6471
  117OSM    H5G12329   6.626   1.819  10.067 -0.0508  0.3851  1.3417
  117OSM    C6F12330   6.511   1.981  10.002 -0.0004  0.6483 -0.3685
  117OSM    H6F12331   6.587   2.047  10.049  0.3202  0.3824 -0.5127
  117OSM    H6G12332   6.412   2.030  10.015 -0.1400  0.9921 -2.4741
  117OSM    C7F12333   6.538   1.982   9.849 -0.5301 -0.0037  0.1222
  117OSM    H7F12334   6.480   1.903   9.798 -0.1956  0.7751 -1.5072
  117OSM    H7G12335   6.643   1.950   9.830  0.0295  1.5103  0.5223
  117OSM    C8F12336   6.525   2.115   9.776 -0.0607 -0.2523 -0.1814
  117OSM    H8F12337   6.610   2.116   9.704 -0.4990 -2.4512 -0.7547
  117OSM    H8G12338   6.534   2.191   9.857 -1.4617  1.1632 -1.3174
  117OSM    C9F12339   6.390   2.149   9.717  0.5145 -0.2730  0.2833
  117OSM    H9F12340   6.304   2.143   9.785  1.5643 -2.2341  1.5006
  117OSM   C10F12341   6.364   2.175   9.586  0.1065 -0.0119  0.1845
  117OSM   H10F12342   6.262   2.211   9.564  0.9665  2.3599  0.0203
  117OSM   C11F12343   6.458   2.195   9.476 -0.0739 -0.7338  0.4009
  117OSM   H11F12344   6.566   2.194   9.503  0.5479  0.9928 -1.8975
  117OSM   H11G12345   6.449   2.296   9.430  2.4828 -1.6277 -2.2258
  117OSM   C12F12346   6.447   2.096   9.356 -0.0715  0.0996  0.4216
  117OSM   H12F12347   6.474   1.995   9.394  2.6061  1.1566  1.3719
  117OSM   H12G12348   6.520   2.124   9.278  0.5197 -1.0007  0.5685
  117OSM   C13F12349   6.312   2.085   9.280  0.5891  0.4870  0.0921
  117OSM   H13F12350   6.257   2.181   9.290  1.1047  0.5973  2.1020
  117OSM   H13G12351   6.245   2.013   9.331  0.6019 -1.2350 -2.2517
  117OSM   C14F12352   6.335   2.040   9.129 -0.0999 -0.0903  0.0167
  117OSM   H14F12353   6.402   1.951   9.127 -0.4273 -0.3293 -0.2797
  117OSM   H14G12354   6.384   2.120   9.071  0.6774 -0.4251  0.2015
  117OSM   C15F12355   6.207   2.006   9.051 -0.4949 -0.0807 -0.2062
  117OSM   H15F12356   6.145   2.097   9.041 -0.0258  0.3466  0.6563
  117OSM   H15G12357   6.155   1.922   9.103 -0.3323 -0.1506 -0.1519
  117OSM   C16F12358   6.242   1.943   8.916 -0.3714  0.4825  0.4166
  117OSM   H16F12359   6.290   1.844   8.934 -2.3826 -0.6523 -0.3361
  117OSM   H16G12360   6.310   2.011   8.861 -1.8153  2.3119  0.8718
  117OSM   C17F12361   6.117   1.921   8.833 -0.0948 -0.1859 -0.4626
  117OSM   H17F12362   6.077   2.015   8.790 -2.6903 -1.7436 -1.6519
  117OSM   H17G12363   6.040   1.862   8.888  0.4611  0.8370  1.4512
  117OSM   C18F12364   6.154   1.842   8.707 -0.5395  0.1660 -0.6112
  117OSM   H18F12365   6.241   1.885   8.652  0.4121 -2.8872 -1.5852
  117OSM   H18G12366   6.075   1.848   8.629 -1.3046 -1.5997  0.0049
  117OSM   H18H12367   6.179   1.737   8.734 -0.6227 -0.1994 -1.9141
  118OSM      N12368   0.266   3.874  11.175  0.3254  0.6258  0.3189
  118OSM    C1512369   0.268   3.740  11.243  0.2342  0.0252 -0.6447
  118OSM   H15A12370   0.350   3.735  11.313  0.8558  0.5735 -1.3201
  118OSM   H15B12371   0.293   3.663  11.171  2.1697  0.9483 -1.0007
  118OSM   H15C12372   0.175   3.729  11.296  0.8379  0.4436  0.5263
  118OSM    C1412373   0.241   3.979  11.286  0.0573  0.4347 -0.8448
  118OSM   H14A12374   0.144   3.961  11.330  0.7871 -1.8043 -0.0881
  118OSM   H14B12375   0.236   4.082  11.254 -0.1087  0.5328 -0.5087
  118OSM   H14C12376   0.323   3.982  11.356  2.7100 -1.1161 -3.7420
  118OSM    C1312377   0.395   3.906  11.112 -0.1857 -0.6603  0.4005
  118OSM   H13A12378   0.471   3.881  11.184 -1.4929 -0.0257  2.0422
  118OSM   H13B12379   0.408   4.010  11.086  0.3217 -1.1628 -1.4831
  118OSM   H13C12380   0.412   3.860  11.016 -0.2047  0.3161 -0.0807
  118OSM    C1212381   0.150   3.872  11.080 -0.1517  0.1352 -0.3276
  118OSM   H12A12382   0.136   3.970  11.036 -1.4208  0.4617  0.7464
  118OSM   H12B12383   0.061   3.839  11.132  0.1888 -2.2515 -1.1974
  118OSM    C1112384   0.156   3.779  10.944 -0.0004  0.2881 -0.4542
  118OSM   H11A12385   0.244   3.811  10.884 -0.4257  1.5065 -0.4236
  118OSM   H11B12386   0.064   3.811  10.891  0.2338  1.5522 -0.0976
  118OSM      P12387   0.050   3.541  10.932 -0.4145 -0.3433  0.0283
  118OSM    O1312388   0.119   3.406  10.927 -0.8209 -0.1011 -0.2165
  118OSM    O1412389  -0.058   3.561  11.030  0.3769  0.0046 -0.4513
  118OSM    O1112390   0.003   3.578  10.782 -0.1390 -0.3867  0.1913
  118OSM    O1212391   0.167   3.641  10.958  0.5759 -0.0922 -0.2381
  118OSM    C1S12392   0.075   3.530  10.669 -0.3657 -0.1960 -0.5572
  118OSM    H1S12393   0.089   3.421  10.680 -3.1469 -0.4480  0.9546
  118OSM    H1T12394   0.165   3.593  10.650  0.6136 -1.7156 -1.0129
  118OSM     NF12395   0.063   3.481  10.419  0.3495 -0.4750 -0.6182
  118OSM    HNF12396   0.116   3.551  10.371 -0.1324 -0.2501 -0.8204
  118OSM    C2S12397  -0.004   3.541  10.537 -0.2247  0.3425  0.5883
  118OSM    H2S12398  -0.099   3.483  10.544  0.3019 -0.8615 -1.6614
  118OSM    C3S12399  -0.040   3.677  10.510 -0.0184  0.6510 -0.0229
  118OSM    H3S12400   0.050   3.742  10.522 -0.3369  0.6757  2.4562
  118OSM     O312401  -0.124   3.729  10.613  0.5237  0.2667  0.0639
  118OSM    HO312402  -0.109   3.675  10.691 -0.9631 -1.2154 -0.6512
  118OSM    C4S12403  -0.106   3.711  10.378 -0.2289 -0.3522  0.8250
  118OSM    H4S12404  -0.030   3.729  10.301 -0.2020  1.2935  1.2234
  118OSM    C5S12405  -0.242   3.719  10.346  0.8087  0.2209 -0.0029
  118OSM    H5S12406  -0.315   3.711  10.429 -0.4335  0.9573 -1.0051
  118OSM    C6S12407  -0.301   3.767  10.211 -0.2922 -0.5178 -0.1596
  118OSM    H6S12408  -0.358   3.860  10.234  1.4384 -0.2392  3.4386
  118OSM    H6T12409  -0.367   3.686  10.175  1.0398 -1.9804  0.6382
  118OSM    C7S12410  -0.188   3.790  10.104  0.1052  0.6909  0.3523
  118OSM    H7S12411  -0.130   3.697  10.088  0.4077  1.1834 -1.5224
  118OSM    H7T12412  -0.116   3.869  10.138 -0.1151  0.1541  2.1350
  118OSM    C8S12413  -0.227   3.842   9.968  0.3727 -0.4179 -0.2923
  118OSM    H8S12414  -0.131   3.846   9.912  1.0553 -1.6853  0.7788
  118OSM    H8T12415  -0.261   3.946   9.991  2.1254  0.1608 -0.2768
  118OSM    C9S12416  -0.339   3.765   9.890 -0.7736 -0.0748  0.2555
  118OSM    H9S12417  -0.421   3.750   9.963 -0.6027  0.7119  0.6209
  118OSM    H9T12418  -0.294   3.668   9.861  2.7856  1.9025 -1.1819
  118OSM   C10S12419  -0.398   3.831   9.772 -0.6006 -0.2308  0.2347
  118OSM   H10S12420  -0.462   3.915   9.806 -0.3813  1.3617 -3.1478
  118OSM   H10T12421  -0.470   3.758   9.730 -0.3558 -0.9681  1.0695
  118OSM   C11S12422  -0.297   3.873   9.665  0.6599  0.1643  0.8382
  118OSM   H11S12423  -0.215   3.800   9.680  0.0178 -0.7628 -0.0410
  118OSM   H11T12424  -0.257   3.973   9.690 -0.2830  0.3257  1.7602
  118OSM   C12S12425  -0.350   3.870   9.522 -0.4331  0.2813  0.0965
  118OSM   H12S12426  -0.415   3.959   9.507 -0.9648 -0.5120 -2.4426
  118OSM   H12T12427  -0.409   3.777   9.507 -0.2734  0.3215 -0.7721
  118OSM   C13S12428  -0.244   3.899   9.416  0.3921  0.2736 -0.3986
  118OSM   H13S12429  -0.176   3.813   9.397 -0.3761 -0.4588  0.1494
  118OSM   H13T12430  -0.197   3.995   9.444 -0.5838  1.4601 -2.7381
  118OSM   C14S12431  -0.309   3.931   9.283 -0.0211  0.1263  0.2806
  118OSM   H14S12432  -0.371   4.023   9.290 -0.2964  0.0284 -0.7932
  118OSM   H14T12433  -0.383   3.849   9.272 -0.5381  0.8294 -1.9305
  118OSM   C15S12434  -0.205   3.932   9.171 -0.1647 -0.5868  0.1747
  118OSM   H15S12435  -0.122   3.860   9.183  0.8853  0.2230 -2.0502
  118OSM   H15T12436  -0.153   4.030   9.178 -0.2572 -0.4650 -0.7873
  118OSM   C16S12437  -0.261   3.933   9.030 -0.9804 -0.1125 -0.4626
  118OSM   H16S12438  -0.334   4.016   9.019 -3.0289 -2.0233 -1.7570
  118OSM   H16T12439  -0.313   3.836   9.018 -1.6263  0.0583  0.8448
  118OSM   C17S12440  -0.152   3.955   8.925 -0.0451 -0.4336  0.2509
  118OSM   H17S12441  -0.064   3.889   8.935  1.0741  1.1304  0.9155
  118OSM   H17T12442  -0.113   4.059   8.927 -2.5446  0.5881 -1.5927
  118OSM   C18S12443  -0.205   3.930   8.778  0.7161  0.8831 -0.0562
  118OSM   H18S12444  -0.247   3.828   8.782 -1.1226  1.6536  1.1215
  118OSM   H18T12445  -0.124   3.932   8.702  1.4523 -1.8935  0.5987
  118OSM   H18U12446  -0.287   4.002   8.756  0.0054  0.9885  2.7933
  118OSM    C1F12447   0.083   3.349  10.401 -0.2981 -0.2591 -0.0654
  118OSM     OF12448   0.025   3.272  10.474 -0.3736 -0.6235 -0.0792
  118OSM    C2F12449   0.197   3.307  10.312 -0.4342  0.1776 -0.5129
  118OSM    H2F12450   0.260   3.236  10.370 -0.1402  1.9889  1.4533
  118OSM    H2G12451   0.266   3.394  10.301 -1.4655  1.0712 -0.0553
  118OSM    C3F12452   0.146   3.253  10.180 -0.1573 -0.5758  0.1515
  118OSM    H3F12453   0.075   3.170  10.201  1.4303 -1.6809  1.2991
  118OSM    H3G12454   0.228   3.216  10.114 -0.2812  0.9333 -0.8841
  118OSM    C4F12455   0.077   3.356  10.093  0.3102  0.6108 -0.1117
  118OSM    H4F12456   0.119   3.459  10.084 -0.6253  0.9946 -0.2404
  118OSM    H4G12457  -0.030   3.369  10.119  0.3175 -1.6492  1.1209
  118OSM    C5F12458   0.061   3.307   9.946 -0.1721  0.2264 -0.3318
  118OSM    H5F12459   0.046   3.197   9.947  1.2838  0.0195  1.3036
  118OSM    H5G12460   0.162   3.323   9.902 -0.2067  0.9095 -0.1597
  118OSM    C6F12461  -0.036   3.397   9.868  0.6731  0.5064 -0.0908
  118OSM    H6F12462  -0.046   3.494   9.922 -0.1577  0.3952 -0.0513
  118OSM    H6G12463  -0.136   3.350   9.860  0.4704  1.3486 -3.1009
  118OSM    C7F12464   0.025   3.445   9.730  0.5016 -0.4743  0.4648
  118OSM    H7F12465   0.121   3.499   9.746  0.5866 -0.4898 -0.0066
  118OSM    H7G12466  -0.041   3.521   9.684 -0.0338 -1.0237  0.3261
  118OSM    C8F12467   0.053   3.330   9.625  0.6254 -1.2414  0.8254
  118OSM    H8F12468  -0.046   3.294   9.590  0.2138  0.2127  0.4309
  118OSM    H8G12469   0.107   3.248   9.676  4.7886  0.3156 -0.9027
  118OSM    C9F12470   0.152   3.369   9.515 -0.2722  0.5820 -0.5280
  118OSM    H9F12471   0.253   3.324   9.519  0.0710  1.2934 -1.0602
  118OSM   C10F12472   0.120   3.442   9.405 -0.1645 -0.3536 -0.3729
  118OSM   H10F12473   0.200   3.469   9.335  0.7108  1.2976  1.2234
  118OSM   C11F12474  -0.011   3.510   9.363 -0.1117  0.4601  0.5410
  118OSM   H11F12475  -0.018   3.621   9.370  1.2378  0.5525  0.5979
  118OSM   H11G12476  -0.094   3.460   9.417  0.4027 -1.3757 -0.3400
  118OSM   C12F12477  -0.039   3.482   9.211  0.2284  0.5412 -0.2021
  118OSM   H12F12478   0.043   3.516   9.145  0.9315 -0.5336  0.1053
  118OSM   H12G12479  -0.132   3.535   9.184 -1.1694 -0.8658  1.6684
  118OSM   C13F12480  -0.075   3.333   9.188  0.1536 -0.5062  0.5922
  118OSM   H13F12481  -0.111   3.293   9.285 -1.0725 -1.8745 -0.4120
  118OSM   H13G12482   0.014   3.277   9.153  2.4102  3.0828  0.2748
  118OSM   C14F12483  -0.169   3.320   9.070  0.7518 -0.3110 -0.0836
  118OSM   H14F12484  -0.113   3.358   8.983  2.4771  1.8042  1.8978
  118OSM   H14G12485  -0.263   3.376   9.090  0.0471 -1.1730 -0.9259
  118OSM   C15F12486  -0.194   3.170   9.040  0.4009  0.0710  0.3801
  118OSM   H15F12487  -0.226   3.116   9.132  1.4854  1.3026  1.4914
  118OSM   H15G12488  -0.098   3.127   9.005  0.1896  0.0689 -0.2025
  118OSM   C16F12489  -0.310   3.157   8.939  0.2051  0.8746 -0.5251
  118OSM   H16F12490  -0.298   3.230   8.857 -1.1185  1.5168 -0.1749
  118OSM   H16G12491  -0.400   3.195   8.993  0.1619 -0.4786  0.3773
  118OSM   C17F12492  -0.342   3.018   8.892  0.7291  0.0201 -0.4719
  118OSM   H17F12493  -0.248   2.989   8.842  0.5187  0.7631 -1.3039
  118OSM   H17G12494  -0.434   3.016   8.830 -0.4458 -1.7668  1.2591
  118OSM   C18F12495  -0.373   2.913   9.000 -0.1102 -0.6144  0.0542
  118OSM   H18F12496  -0.480   2.883   8.992  0.2344 -1.8440  0.0090
  118OSM   H18G12497  -0.335   2.948   9.098  0.6799 -2.5679  0.4714
  118OSM   H18H12498  -0.315   2.820   8.985  1.4535  0.0431  1.9214
  119OSM      N12499   0.081   2.412  11.087  0.5070  0.2800  0.1636
  119OSM    C1512500   0.147   2.470  10.967 -0.5550 -0.1591  0.5080
  119OSM   H15A12501   0.102   2.566  10.948 -0.4154 -0.2900 -0.5058
  119OSM   H15B12502   0.135   2.414  10.876  1.7486 -1.2725  0.8544
  119OSM   H15C12503   0.250   2.483  10.995  0.7509 -2.9335 -2.7341
  119OSM    C1412504   0.074   2.525  11.181 -0.8618 -1.0360 -0.2775
  119OSM   H14A12505   0.030   2.613  11.136 -0.4589 -0.1609  0.9967
  119OSM   H14B12506   0.172   2.550  11.219 -0.1033 -1.5584 -1.8671
  119OSM   H14C12507  -0.004   2.496  11.250 -0.5281 -0.5687  0.3081
  119OSM    C1312508  -0.060   2.361  11.048  0.1331  0.0768 -0.0971
  119OSM   H13A12509  -0.051   2.259  11.013  1.0273  0.2095 -0.2615
  119OSM   H13B12510  -0.102   2.430  10.976  2.2483  0.4439 -1.0053
  119OSM   H13C12511  -0.116   2.354  11.140  0.0853 -1.7314 -0.2470
  119OSM    C1212512   0.176   2.311  11.143  0.3829  0.2901  0.0094
  119OSM   H12A12513   0.186   2.233  11.069 -0.9782  0.4930 -0.3965
  119OSM   H12B12514   0.135   2.270  11.234  2.5905  0.8466  1.2922
  119OSM    C1112515   0.321   2.358  11.190 -0.0222 -1.0226  0.2586
  119OSM   H11A12516   0.371   2.272  11.241 -1.1100 -1.5441  0.4602
  119OSM   H11B12517   0.309   2.431  11.273 -0.1408  0.0407 -0.7061
  119OSM      P12518   0.518   2.312  11.021 -0.3228 -0.4374 -0.0149
  119OSM    O1312519   0.633   2.379  11.080 -0.3197 -0.9850  0.3764
  119OSM    O1412520   0.505   2.163  11.042 -0.2684  0.1900 -0.2150
  119OSM    O1112521   0.520   2.337  10.867  0.0465  0.7099  0.1609
  119OSM    O1212522   0.399   2.399  11.080  0.2326  0.4182  0.9695
  119OSM    C1S12523   0.422   2.274  10.789  0.1788  0.2455 -0.0665
  119OSM    H1S12524   0.318   2.290  10.826 -0.3172  1.1881 -1.8009
  119OSM    H1T12525   0.429   2.164  10.785  1.5401  0.2170  2.2965
  119OSM     NF12526   0.314   2.254  10.573  0.2121  0.1347  0.3714
  119OSM    HNF12527   0.334   2.166  10.530  1.8323  2.0166 -2.9330
  119OSM    C2S12528   0.433   2.312  10.639  0.5807 -0.4550  0.2455
  119OSM    H2S12529   0.433   2.422  10.619  0.9930 -0.8832 -2.3555
  119OSM    C3S12530   0.571   2.279  10.586  0.1093  0.2721  0.3362
  119OSM    H3S12531   0.587   2.169  10.591  0.1793  0.4190  4.9845
  119OSM     O312532   0.681   2.335  10.658 -0.2693 -0.7377  0.8037
  119OSM    HO312533   0.648   2.338  10.748  0.2400  1.2761  0.9397
  119OSM    C4S12534   0.587   2.314  10.437 -0.2646 -0.1247 -0.0502
  119OSM    H4S12535   0.565   2.420  10.417 -0.7391 -0.0133  0.9884
  119OSM    C5S12536   0.605   2.227  10.332 -0.0011 -0.5733 -0.5916
  119OSM    H5S12537   0.604   2.120  10.355  1.7629 -0.6529 -0.8270
  119OSM    C6S12538   0.624   2.246  10.186 -0.3018  0.0810  0.6680
  119OSM    H6S12539   0.544   2.197  10.127  1.6609 -1.8254 -0.5118
  119OSM    H6T12540   0.713   2.193  10.145 -1.6669  0.2983 -2.7522
  119OSM    C7S12541   0.619   2.388  10.139  0.0769 -0.2167  0.6211
  119OSM    H7S12542   0.595   2.469  10.212  0.5878 -0.8748  1.5363
  119OSM    H7T12543   0.543   2.403  10.060  1.5384 -0.4065 -0.8432
  119OSM    C8S12544   0.756   2.430  10.083 -0.2505 -0.2143  0.1929
  119OSM    H8S12545   0.839   2.384  10.141  1.2251  1.5648 -0.4675
  119OSM    H8T12546   0.765   2.540  10.085 -2.7703  0.0116  0.5554
  119OSM    C9S12547   0.780   2.379   9.942  0.6168  0.0454 -0.6032
  119OSM    H9S12548   0.693   2.406   9.880 -0.4027 -1.4848  0.1315
  119OSM    H9T12549   0.782   2.268   9.942  0.9143  0.0461 -0.3004
  119OSM   C10S12550   0.896   2.436   9.863 -0.1738 -0.4004  0.0422
  119OSM   H10S12551   0.986   2.394   9.913 -1.7357 -0.6460  2.7054
  119OSM   H10T12552   0.896   2.546   9.879 -0.3611 -0.5102  0.8080
  119OSM   C11S12553   0.881   2.385   9.722  0.2129  0.0885  0.0800
  119OSM   H11S12554   0.803   2.434   9.661  2.4614  1.2062 -2.0235
  119OSM   H11T12555   0.876   2.274   9.713 -0.8590  0.1624 -0.1858
  119OSM   C12S12556   1.011   2.418   9.646  0.0152 -0.7497  0.4788
  119OSM   H12S12557   1.084   2.348   9.691 -0.9751 -2.3168 -0.3213
  119OSM   H12T12558   1.042   2.525   9.649  0.8753 -0.9958  0.5006
  119OSM   C13S12559   1.006   2.377   9.498  0.6375  0.3708  0.0202
  119OSM   H13S12560   0.911   2.413   9.451  1.0046 -1.7836 -2.5357
  119OSM   H13T12561   0.985   2.268   9.497  3.3239 -0.1894 -2.1129
  119OSM   C14S12562   1.134   2.406   9.416  0.2139 -0.4062  0.5267
  119OSM   H14S12563   1.216   2.337   9.442  0.4759 -0.3417 -0.1121
  119OSM   H14T12564   1.168   2.511   9.435 -2.0981  0.0928  2.1400
  119OSM   C15S12565   1.100   2.398   9.265  0.0908  0.0978 -0.1569
  119OSM   H15S12566   1.020   2.469   9.235 -1.2403 -0.4495  1.9396
  119OSM   H15T12567   1.054   2.297   9.255  1.0246 -0.3731  0.2187
  119OSM   C16S12568   1.214   2.427   9.174  0.1492 -0.5016 -0.3818
  119OSM   H16S12569   1.310   2.382   9.209 -0.1948  1.6162  3.5073
  119OSM   H16T12570   1.241   2.535   9.178 -2.0974  0.1424 -1.7904
  119OSM   C17S12571   1.188   2.391   9.028  0.2086  0.2158 -0.1134
  119OSM   H17S12572   1.091   2.433   8.994 -0.3723 -0.3191  0.8633
  119OSM   H17T12573   1.173   2.283   9.008  0.4975  0.6093 -2.6028
  119OSM   C18S12574   1.295   2.445   8.922  0.2044 -0.0813  1.0474
  119OSM   H18S12575   1.396   2.400   8.935  0.0596 -1.1451 -1.2401
  119OSM   H18T12576   1.308   2.553   8.945 -3.0299  0.2882  1.4650
  119OSM   H18U12577   1.250   2.425   8.822  1.3395 -0.7940  0.6673
  119OSM    C1F12578   0.195   2.303  10.592 -0.0259 -0.1384  1.0073
  119OSM     OF12579   0.175   2.402  10.657 -0.0968  0.1029 -0.1760
  119OSM    C2F12580   0.086   2.213  10.546 -0.6629  0.1488  0.5962
  119OSM    H2F12581  -0.002   2.281  10.543 -1.0088 -0.1733  2.5980
  119OSM    H2G12582   0.065   2.142  10.630  0.5091 -1.7061 -0.6497
  119OSM    C3F12583   0.108   2.142  10.407  1.1003 -0.3931  0.5569
  119OSM    H3F12584   0.018   2.089  10.370  1.6856 -0.5917 -0.5836
  119OSM    H3G12585   0.197   2.077  10.423  0.6960 -0.7194  1.4840
  119OSM    C4F12586   0.149   2.243  10.296 -1.0226 -0.7380 -0.1726
  119OSM    H4F12587   0.249   2.285  10.320 -1.3190 -0.2057  0.1419
  119OSM    H4G12588   0.082   2.331  10.305 -0.2876 -0.3742  2.1171
  119OSM    C5F12589   0.147   2.196  10.149  0.6198  0.3104 -0.2827
  119OSM    H5F12590   0.048   2.146  10.138  0.9134 -0.0121 -1.5983
  119OSM    H5G12591   0.224   2.117  10.138  0.2718  0.2465 -2.5166
  119OSM    C6F12592   0.168   2.304  10.044  0.1187  0.3655 -0.4414
  119OSM    H6F12593   0.272   2.344  10.052  0.0821  0.6425 -1.3210
  119OSM    H6G12594   0.096   2.387  10.057  1.0022  1.1069 -0.1745
  119OSM    C7F12595   0.135   2.252   9.899  0.2601 -0.8764 -0.3249
  119OSM    H7F12596   0.025   2.241   9.895 -0.0223  2.4987 -3.3388
  119OSM    H7G12597   0.173   2.148   9.895  2.2250 -0.2486  0.9513
  119OSM    C8F12598   0.185   2.339   9.779  0.2739  0.7650 -0.5877
  119OSM    H8F12599   0.134   2.437   9.785  1.0259  1.2223 -1.5811
  119OSM    H8G12600   0.148   2.279   9.692  0.6305 -1.1104  0.5169
  119OSM    C9F12601   0.335   2.362   9.765 -0.2322  0.2410  0.4121
  119OSM    H9F12602   0.390   2.374   9.859  0.0251 -0.8919  0.4175
  119OSM   C10F12603   0.402   2.365   9.651 -0.2874 -0.3583 -0.2903
  119OSM   H10F12604   0.512   2.366   9.653 -0.2951  0.3922 -0.1336
  119OSM   C11F12605   0.352   2.340   9.515  0.4221 -0.4455 -0.3328
  119OSM   H11F12606   0.242   2.356   9.514  0.3298 -1.1028 -0.3769
  119OSM   H11G12607   0.368   2.232   9.494  0.2573 -0.1919 -1.8392
  119OSM   C12F12608   0.383   2.440   9.396  1.1985 -0.3620 -0.3011
  119OSM   H12F12609   0.362   2.541   9.439  2.6596  0.2941 -1.0870
  119OSM   H12G12610   0.322   2.425   9.305  1.1629  2.1719 -0.7218
  119OSM   C13F12611   0.531   2.435   9.364 -0.0791  0.1390 -0.0675
  119OSM   H13F12612   0.581   2.375   9.443  2.4736 -0.4757 -2.1228
  119OSM   H13G12613   0.565   2.540   9.374 -2.1923  0.6811  2.1157
  119OSM   C14F12614   0.555   2.386   9.223 -0.2938 -0.1709 -0.7873
  119OSM   H14F12615   0.491   2.458   9.166  1.7581  1.6676 -0.8175
  119OSM   H14G12616   0.513   2.283   9.212 -2.5472  0.4897  1.2486
  119OSM   C15F12617   0.707   2.397   9.193  0.0844  0.6991 -0.2028
  119OSM   H15F12618   0.763   2.359   9.281 -1.5498  1.0779  1.0125
  119OSM   H15G12619   0.733   2.505   9.200  0.6237  0.4563  1.6334
  119OSM   C16F12620   0.758   2.337   9.059 -0.3641  0.5338 -0.5264
  119OSM   H16F12621   0.860   2.365   9.025 -0.6589 -0.0665 -1.9295
  119OSM   H16G12622   0.693   2.376   8.978  0.4604  2.9501 -0.0668
  119OSM   C17F12623   0.756   2.182   9.048 -0.4764  0.2814 -0.1236
  119OSM   H17F12624   0.649   2.163   9.075 -0.3308  1.2836  1.2372
  119OSM   H17G12625   0.824   2.130   9.120  1.9852  0.0695 -2.5415
  119OSM   C18F12626   0.778   2.113   8.915 -0.5162  0.7152 -0.0279
  119OSM   H18F12627   0.771   2.002   8.922  0.2372  0.6179 -0.7820
  119OSM   H18G12628   0.873   2.147   8.869  0.1514  1.2290  1.7208
  119OSM   H18H12629   0.698   2.153   8.848 -0.7434  1.9711  0.9857
  120OSM      N12630   6.389   6.237  10.558  0.3085  0.3964  0.2247
  120OSM    C1512631   6.480   6.325  10.645  0.0224  0.0739 -0.2226
  120OSM   H15A12632   6.510   6.413  10.591  1.8005 -1.9280 -2.6158
  120OSM   H15B12633   6.572   6.274  10.669  0.1241 -0.0610 -0.8987
  120OSM   H15C12634   6.442   6.346  10.745  1.5864 -1.5638  0.7404
  120OSM    C1412635   6.463   6.204  10.432  0.4695  0.0757  0.3877
  120OSM   H14A12636   6.567   6.178  10.445  0.1822 -0.5573  1.5045
  120OSM   H14B12637   6.466   6.288  10.365 -1.4319  1.0781  1.5224
  120OSM   H14C12638   6.410   6.133  10.369 -0.9303  1.1438  0.3469
  120OSM    C1312639   6.356   6.112  10.632 -0.3353 -0.6547  0.4769
  120OSM   H13A12640   6.440   6.046  10.649 -0.4187 -0.9564 -0.2771
  120OSM   H13B12641   6.281   6.049  10.586 -0.0276  0.1240 -1.1292
  120OSM   H13C12642   6.331   6.135  10.735  0.5891 -0.2042  0.6053
  120OSM    C1212643   6.258   6.313  10.526  0.3301 -0.5421  0.4210
  120OSM   H12A12644   6.282   6.417  10.506  0.6690 -0.3948  1.5538
  120OSM   H12B12645   6.193   6.316  10.613 -0.5505  0.0786 -0.2406
  120OSM    C1112646   6.170   6.251  10.412  0.0108  0.4017  0.3919
  120OSM   H11A12647   6.230   6.237  10.320  2.4129 -3.9844  2.4852
  120OSM   H11B12648   6.087   6.324  10.396 -0.4824 -0.6470 -2.0099
  120OSM      P12649   5.984   6.123  10.551  0.0145  0.0957 -0.1767
  120OSM    O1312650   5.985   5.984  10.608  0.4538  0.2202  0.4778
  120OSM    O1412651   5.987   6.239  10.648  0.5332  0.6990  0.0687
  120OSM    O1112652   5.864   6.137  10.451  0.8210  0.3305  0.3737
  120OSM    O1212653   6.110   6.130  10.454  0.0845  0.5651 -0.4121
  120OSM    C1S12654   5.830   6.264  10.386  0.7448  0.3283 -0.2383
  120OSM    H1S12655   5.903   6.345  10.410  0.0544  0.4888  1.4050
  120OSM    H1T12656   5.737   6.312  10.424 -0.2792 -0.0989 -2.1110
  120OSM     NF12657   5.777   6.367  10.173  0.5089  0.2550  0.1463
  120OSM    HNF12658   5.684   6.393  10.150 -0.4821 -2.8939  0.3624
  120OSM    C2S12659   5.818   6.243  10.234 -0.2710  0.7404 -0.0037
  120OSM    H2S12660   5.919   6.207  10.204 -1.6804 -2.9842 -0.6251
  120OSM    C3S12661   5.724   6.118  10.202 -0.7969  0.0930  0.2545
  120OSM    H3S12662   5.617   6.147  10.214 -1.4160 -1.0862 -2.1906
  120OSM     O312663   5.745   6.003  10.280 -0.2386 -0.4148 -0.2491
  120OSM    HO312664   5.809   6.041  10.340 -1.3361  0.8445  0.1462
  120OSM    C4S12665   5.755   6.068  10.058 -0.1352 -0.2509  0.4285
  120OSM    H4S12666   5.865   6.061  10.050 -0.1336 -2.0020  1.5408
  120OSM    C5S12667   5.676   6.024   9.963  0.3822 -0.0266  0.1375
  120OSM    H5S12668   5.567   6.036   9.978  0.5853  1.5767  0.3620
  120OSM    C6S12669   5.718   5.981   9.823 -0.1536 -0.1858 -0.1206
  120OSM    H6S12670   5.717   5.871   9.809 -1.7695 -0.0293 -1.3716
  120OSM    H6T12671   5.823   6.015   9.820 -0.2146  0.1158  0.8943
  120OSM    C7S12672   5.619   6.036   9.723 -0.1248 -0.3400  0.1508
  120OSM    H7S12673   5.626   6.147   9.721 -2.0923 -0.2133 -1.0327
  120OSM    H7T12674   5.511   6.016   9.737 -0.2060 -1.8672 -2.3612
  120OSM    C8S12675   5.651   5.994   9.577 -0.1287  0.7098  0.3932
  120OSM    H8S12676   5.655   5.885   9.559  0.6365  0.9465 -1.0166
  120OSM    H8T12677   5.755   6.033   9.563 -0.7277  1.3459 -2.8482
  120OSM    C9S12678   5.550   6.054   9.466 -0.5454  0.4583  0.5217
  120OSM    H9S12679   5.521   6.152   9.510 -0.0126  1.7287 -1.8522
  120OSM    H9T12680   5.460   5.992   9.447 -0.7216  0.2727  1.8961
  120OSM   C10S12681   5.634   6.064   9.334 -0.1956  0.2570 -0.3098
  120OSM   H10S12682   5.680   5.963   9.324  0.3662  0.3136  1.4930
  120OSM   H10T12683   5.709   6.144   9.349 -1.1148  0.8601  1.1951
  120OSM   C11S12684   5.548   6.094   9.211  0.0822 -0.0304  0.8046
  120OSM   H11S12685   5.534   6.204   9.222 -1.2053 -0.1176  0.1211
  120OSM   H11T12686   5.453   6.037   9.215  1.0511 -1.6166  1.6891
  120OSM   C12S12687   5.610   6.074   9.076 -0.5270 -0.0585  0.5542
  120OSM   H12S12688   5.613   5.964   9.056 -1.5446 -0.1862  1.0521
  120OSM   H12T12689   5.716   6.107   9.072 -0.7445  0.5075 -0.4945
  120OSM   C13S12690   5.540   6.140   8.957 -0.0871  0.5516 -0.4665
  120OSM   H13S12691   5.532   6.245   8.992 -0.3480  0.5378 -0.4851
  120OSM   H13T12692   5.437   6.101   8.942  0.2080  0.1541 -1.4752
  120OSM   C14S12693   5.613   6.130   8.827 -0.0649  0.8507 -0.0821
  120OSM   H14S12694   5.616   6.021   8.805 -0.6989  0.8018  0.0608
  120OSM   H14T12695   5.720   6.158   8.835  0.6628 -1.7184 -0.2202
  120OSM   C15S12696   5.548   6.209   8.715  0.2839  0.1204 -0.1275
  120OSM   H15S12697   5.547   6.316   8.743  0.3710  0.4543 -1.3651
  120OSM   H15T12698   5.447   6.163   8.704 -0.1597  0.8791  0.7493
  120OSM   C16S12699   5.610   6.174   8.586  0.2157  0.2388  0.7714
  120OSM   H16S12700   5.608   6.065   8.565  1.1991  0.9429 -3.4782
  120OSM   H16T12701   5.719   6.191   8.596  0.5389 -0.9390 -0.5502
  120OSM   C17S12702   5.551   6.256   8.472  0.4361  0.0805  0.8761
  120OSM   H17S12703   5.532   6.362   8.500 -0.3119  0.2484 -0.2112
  120OSM   H17T12704   5.449   6.220   8.447 -0.2971  2.8224 -0.2967
  120OSM   C18S12705   5.639   6.259   8.343 -0.3358 -0.3784 -0.0141
  120OSM   H18S12706   5.582   6.319   8.268 -3.6614 -1.4564  1.5800
  120OSM   H18T12707   5.654   6.156   8.305  1.4394 -0.2911  0.4129
  120OSM   H18U12708   5.736   6.302   8.374 -1.5640  2.6288 -0.1129
  120OSM    C1F12709   5.852   6.477  10.169 -0.1998  0.1556 -0.6524
  120OSM     OF12710   5.965   6.476  10.211 -0.2192 -0.3179  0.3276
  120OSM    C2F12711   5.787   6.602  10.105  0.5374 -1.2757 -0.6417
  120OSM    H2F12712   5.771   6.684  10.179 -1.9579 -1.1947 -1.2321
  120OSM    H2G12713   5.683   6.576  10.075  0.0228 -2.8637  2.3080
  120OSM    C3F12714   5.881   6.650   9.992  0.3112 -0.0730 -0.3126
  120OSM    H3F12715   5.980   6.673  10.037 -0.9052  1.9378  1.4104
  120OSM    H3G12716   5.847   6.746   9.948 -1.7468 -0.0284  1.3076
  120OSM    C4F12717   5.896   6.549   9.877 -0.7819 -0.1274 -0.9204
  120OSM    H4F12718   5.868   6.444   9.897 -0.7695  0.2675  1.2618
  120OSM    H4G12719   6.001   6.549   9.839 -0.7793 -0.2309 -0.9112
  120OSM    C5F12720   5.829   6.598   9.745  0.2964 -0.8076 -0.7091
  120OSM    H5F12721   5.861   6.702   9.726 -1.6653 -0.1617 -0.5851
  120OSM    H5G12722   5.718   6.598   9.756  0.5702  1.0592  2.7215
  120OSM    C6F12723   5.854   6.535   9.605 -0.2181  0.1200 -0.0919
  120OSM    H6F12724   5.773   6.467   9.571 -1.7393  2.1486 -0.6530
  120OSM    H6G12725   5.944   6.473   9.623  0.5806  0.6002 -2.2647
  120OSM    C7F12726   5.883   6.624   9.485 -0.1646 -0.0166  1.1435
  120OSM    H7F12727   5.984   6.667   9.501  0.3795 -0.8963  0.1606
  120OSM    H7G12728   5.804   6.702   9.482 -1.7538 -1.5790  0.9644
  120OSM    C8F12729   5.863   6.545   9.353  0.1205  0.8851 -0.4815
  120OSM    H8F12730   5.755   6.533   9.329  0.3519  0.8762 -1.5243
  120OSM    H8G12731   5.922   6.451   9.358 -0.3444  0.5877 -0.6116
  120OSM    C9F12732   5.926   6.624   9.235  0.5715  0.1575 -0.2294
  120OSM    H9F12733   6.004   6.698   9.257  1.1155 -1.4794  3.9486
  120OSM   C10F12734   5.910   6.591   9.103  0.4425 -0.4840 -0.7277
  120OSM   H10F12735   5.943   6.665   9.029  0.5458  0.3182  0.1124
  120OSM   C11F12736   5.824   6.479   9.055  0.5868 -0.8580  0.2956
  120OSM   H11F12737   5.726   6.469   9.106  1.1760  0.5137  1.7120
  120OSM   H11G12738   5.878   6.384   9.077 -2.4251 -2.8616 -0.6195
  120OSM   C12F12739   5.799   6.490   8.901  0.4998  0.1030 -0.5002
  120OSM   H12F12740   5.761   6.592   8.879  1.8199  0.8536  0.6776
  120OSM   H12G12741   5.728   6.411   8.868  0.9977 -0.6706  0.2658
  120OSM   C13F12742   5.915   6.457   8.809 -0.1120 -0.8953  0.2446
  120OSM   H13F12743   5.954   6.353   8.822  1.4416 -0.3275  0.1900
  120OSM   H13G12744   5.996   6.533   8.817  0.4298 -1.4012 -0.4126
  120OSM   C14F12745   5.876   6.459   8.658  0.0308 -0.5122  0.2642
  120OSM   H14F12746   5.799   6.379   8.657  0.6315 -1.1156  0.9849
  120OSM   H14G12747   5.966   6.420   8.604 -2.0837 -2.4476 -1.9684
  120OSM   C15F12748   5.838   6.601   8.607 -0.7268  0.7422 -0.2084
  120OSM   H15F12749   5.921   6.666   8.642 -0.4679  1.0176 -1.3194
  120OSM   H15G12750   5.743   6.623   8.661 -1.2923  0.3524 -1.0357
  120OSM   C16F12751   5.828   6.613   8.455 -0.0931  0.5482  0.5520
  120OSM   H16F12752   5.790   6.710   8.416 -0.8746  0.1527  0.3427
  120OSM   H16G12753   5.759   6.533   8.421  0.1499 -0.2140  1.8305
  120OSM   C17F12754   5.960   6.577   8.383 -0.1029 -0.3862 -0.2683
  120OSM   H17F12755   5.996   6.480   8.422  1.8715  0.8038  0.9343
  120OSM   H17G12756   6.032   6.658   8.407 -0.7732 -0.3347  1.7317
  120OSM   C18F12757   5.952   6.575   8.228 -0.4427 -0.2306 -0.5354
  120OSM   H18F12758   6.056   6.579   8.191 -1.4397  0.6023 -3.3168
  120OSM   H18G12759   5.900   6.667   8.192 -0.2733 -0.4059 -1.2243
  120OSM   H18H12760   5.908   6.477   8.199  1.7015 -1.8575  1.5316
  121OSM      N12761   5.128   2.332  10.833  0.0544  1.0497  0.5192
  121OSM    C1512762   5.222   2.212  10.834 -0.4099 -0.1305 -0.1263
  121OSM   H15A12763   5.276   2.218  10.741  0.0598  0.2400  0.1700
  121OSM   H15B12764   5.172   2.117  10.846  0.0500 -0.3359  0.1607
  121OSM   H15C12765   5.305   2.230  10.900  2.0139  0.2505 -3.1730
  121OSM    C1412766   5.032   2.294  10.734  0.4909 -0.7392 -0.5221
  121OSM   H14A12767   4.989   2.196  10.748  2.3911 -1.9505 -2.9113
  121OSM   H14B12768   5.084   2.291  10.640  1.2836 -0.0133 -0.1131
  121OSM   H14C12769   4.955   2.369  10.726 -0.8027 -2.0153 -0.3633
  121OSM    C1312770   5.061   2.329  10.966 -0.2610  0.3031  0.0591
  121OSM   H13A12771   4.973   2.268  10.973 -0.2529  0.4314  1.5840
  121OSM   H13B12772   5.018   2.426  10.989 -0.9080 -0.4706  2.2459
  121OSM   H13C12773   5.128   2.311  11.049  0.8180  3.9043  0.0753
  121OSM    C1212774   5.201   2.454  10.802  0.7890 -0.3645  0.2165
  121OSM   H12A12775   5.125   2.530  10.803  1.1051 -0.0405  0.0291
  121OSM   H12B12776   5.241   2.450  10.701  1.6459  0.6975  0.5027
  121OSM    C1112777   5.320   2.495  10.889  0.4058 -0.0383  0.1315
  121OSM   H11A12778   5.280   2.491  10.993  1.7917  0.7011  0.6948
  121OSM   H11B12779   5.335   2.601  10.861  0.6335 -0.5061 -1.5828
  121OSM      P12780   5.542   2.377  10.978 -0.3219  0.5016 -0.0925
  121OSM    O1312781   5.568   2.486  11.067 -0.0422  0.0484 -0.0486
  121OSM    O1412782   5.495   2.251  11.033  0.0130  0.2508 -0.1735
  121OSM    O1112783   5.676   2.344  10.894  0.7014 -0.4199  0.4876
  121OSM    O1212784   5.447   2.428  10.866  0.1613 -0.1813  0.2949
  121OSM    C1S12785   5.676   2.245  10.792  0.6360  0.4148  0.6340
  121OSM    H1S12786   5.582   2.186  10.783 -0.4287  1.8064  2.2795
  121OSM    H1T12787   5.752   2.166  10.812  2.8525  2.0106 -1.1624
  121OSM     NF12788   5.729   2.191  10.563  0.1201 -0.0097 -0.8973
  121OSM    HNF12789   5.811   2.136  10.572 -1.7322 -2.6377  0.6915
  121OSM    C2S12790   5.711   2.298  10.652 -0.3671  0.3722  0.1305
  121OSM    H2S12791   5.629   2.364  10.618  1.0398  1.5124 -1.1401
  121OSM    C3S12792   5.836   2.393  10.663  0.5991 -0.2859  0.6549
  121OSM    H3S12793   5.901   2.329  10.727 -0.7448 -1.4801  0.8529
  121OSM     O312794   5.819   2.516  10.738 -0.0426 -0.3048 -0.5954
  121OSM    HO312795   5.731   2.500  10.772 -0.5538  0.1384 -1.6972
  121OSM    C4S12796   5.891   2.429  10.532  0.2390 -0.4987  0.0997
  121OSM    H4S12797   5.813   2.440  10.455  0.9351  1.5357 -0.3584
  121OSM    C5S12798   6.027   2.433  10.508  0.0671  0.2930  0.4292
  121OSM    H5S12799   6.082   2.431  10.603 -0.1425  0.0547  0.5451
  121OSM    C6S12800   6.109   2.470  10.377  0.5757 -0.0653 -0.7203
  121OSM    H6S12801   6.178   2.384  10.368  0.3506 -0.1664 -1.5979
  121OSM    H6T12802   6.176   2.558  10.389  1.4855 -0.8475 -0.0878
  121OSM    C7S12803   6.037   2.479  10.239 -0.7854 -0.2393 -0.1149
  121OSM    H7S12804   5.983   2.576  10.232  0.0959  0.2328 -0.3418
  121OSM    H7T12805   5.967   2.394  10.221 -1.6112 -0.0440  2.0486
  121OSM    C8S12806   6.134   2.481  10.120 -0.5700  0.5353  0.1720
  121OSM    H8S12807   6.179   2.381  10.104 -1.2204  0.1282  0.8420
  121OSM    H8T12808   6.219   2.543  10.157  0.1785  0.7058 -1.8071
  121OSM    C9S12809   6.071   2.518   9.985 -0.1650  1.0377 -0.6176
  121OSM    H9S12810   6.025   2.617  10.005 -1.0450 -0.2681  4.3412
  121OSM    H9T12811   5.990   2.444   9.967  1.0451 -0.8702  1.4686
  121OSM   C10S12812   6.165   2.529   9.869 -0.3567  0.3381  0.3179
  121OSM   H10S12813   6.218   2.434   9.848 -1.0580  0.0168  0.0005
  121OSM   H10T12814   6.247   2.601   9.893  0.3840 -0.5085  0.3451
  121OSM   C11S12815   6.094   2.576   9.747 -0.7236  0.1254 -0.0412
  121OSM   H11S12816   6.063   2.682   9.765  0.3654  0.6147 -1.0670
  121OSM   H11T12817   6.004   2.516   9.723  0.7000 -0.7752 -3.2461
  121OSM   C12S12818   6.185   2.566   9.627  0.2925 -0.4376  0.2530
  121OSM   H12S12819   6.231   2.465   9.631 -1.1559 -1.0723  1.3742
  121OSM   H12T12820   6.263   2.645   9.628  1.5246 -1.6099 -0.6507
  121OSM   C13S12821   6.108   2.561   9.494 -0.3300  0.3997  0.3796
  121OSM   H13S12822   6.052   2.656   9.480  2.6820  2.1005 -0.3703
  121OSM   H13T12823   6.049   2.467   9.493 -0.2172  0.3329 -0.6117
  121OSM   C14S12824   6.207   2.556   9.377 -0.2512  0.5085  0.0460
  121OSM   H14S12825   6.272   2.466   9.383 -0.9897 -0.1197 -1.0837
  121OSM   H14T12826   6.279   2.640   9.387  0.0436  0.0860  1.5999
  121OSM   C15S12827   6.139   2.575   9.243 -0.4169 -0.8880 -0.1339
  121OSM   H15S12828   6.081   2.670   9.235  0.0912 -0.4832  0.8262
  121OSM   H15T12829   6.072   2.487   9.232  0.2907 -1.6447  1.5356
  121OSM   C16S12830   6.242   2.565   9.125 -0.5385 -0.4590  0.2647
  121OSM   H16S12831   6.317   2.647   9.136 -1.7700  0.6396  0.6521
  121OSM   H16T12832   6.184   2.596   9.035 -1.7493  0.4443  1.3485
  121OSM   C17S12833   6.311   2.431   9.102  0.0504 -0.6866  0.1814
  121OSM   H17S12834   6.225   2.377   9.057  1.6232 -3.2463  0.1931
  121OSM   H17T12835   6.348   2.388   9.197  1.5931 -0.7691 -0.4361
  121OSM   C18S12836   6.420   2.441   9.004  0.5939  0.5888 -0.0095
  121OSM   H18S12837   6.456   2.338   8.981  0.6045  0.3230  1.1500
  121OSM   H18T12838   6.502   2.512   9.027 -0.7062  2.4264 -0.9676
  121OSM   H18U12839   6.373   2.484   8.913  1.4694 -0.7726 -1.1290
  121OSM    C1F12840   5.624   2.119  10.511 -0.5871  0.1863 -0.3574
  121OSM     OF12841   5.507   2.150  10.544 -0.1435 -0.3068  0.1292
  121OSM    C2F12842   5.651   1.992  10.442 -0.1775 -0.2263 -0.3433
  121OSM    H2F12843   5.584   1.916  10.489 -1.0601  0.9302  0.2977
  121OSM    H2G12844   5.753   1.959  10.470 -0.1207  1.5465  1.7359
  121OSM    C3F12845   5.633   1.994  10.286 -0.2561  0.2419 -0.4228
  121OSM    H3F12846   5.690   2.085  10.260 -0.4320  0.2587 -0.7535
  121OSM    H3G12847   5.527   2.015  10.259 -0.1249 -0.5528 -1.5687
  121OSM    C4F12848   5.682   1.871  10.209 -0.0261 -0.2821 -0.4190
  121OSM    H4F12849   5.626   1.782  10.246  2.5189 -0.6195  2.8700
  121OSM    H4G12850   5.785   1.851  10.245  0.2272 -0.0014 -0.9944
  121OSM    C5F12851   5.659   1.892  10.057 -0.1635  0.0706 -0.1023
  121OSM    H5F12852   5.713   1.983  10.024  1.1800 -0.9503 -0.7487
  121OSM    H5G12853   5.549   1.901  10.042 -0.0586 -0.3714 -1.2494
  121OSM    C6F12854   5.698   1.764   9.977  0.4831 -0.3586 -0.3206
  121OSM    H6F12855   5.675   1.678  10.043 -0.5730  0.5635  0.5302
  121OSM    H6G12856   5.808   1.749   9.968  0.5398 -0.5070  0.6336
  121OSM    C7F12857   5.626   1.772   9.846  0.7288  0.1950  0.8112
  121OSM    H7F12858   5.668   1.861   9.795  1.0405 -0.2159  0.3486
  121OSM    H7G12859   5.517   1.785   9.859  0.5377 -1.1615  0.6610
  121OSM    C8F12860   5.638   1.647   9.744  0.6333  0.1149  0.7150
  121OSM    H8F12861   5.565   1.657   9.662 -0.8168 -2.2321  1.6725
  121OSM    H8G12862   5.596   1.557   9.794  0.0438  0.3500  0.6479
  121OSM    C9F12863   5.774   1.620   9.683  0.1347  0.2032  0.2551
  121OSM    H9F12864   5.849   1.697   9.705 -0.8280  1.5417 -1.0360
  121OSM   C10F12865   5.808   1.515   9.603  0.6261  0.0693 -0.9660
  121OSM   H10F12866   5.913   1.497   9.575  0.8971 -2.6923  1.5230
  121OSM   C11F12867   5.714   1.400   9.566  0.4304  0.3228 -0.0237
  121OSM   H11F12868   5.648   1.394   9.655  0.0452  1.3815 -0.2291
  121OSM   H11G12869   5.765   1.302   9.575  3.2135  1.4856 -2.2957
  121OSM   C12F12870   5.629   1.412   9.440  0.1062  0.3306  0.3438
  121OSM   H12F12871   5.557   1.327   9.438  1.9297 -1.2348 -1.9444
  121OSM   H12G12872   5.696   1.401   9.352  1.3877 -0.2119  1.3671
  121OSM   C13F12873   5.543   1.544   9.434 -0.1899  0.3336 -0.0948
  121OSM   H13F12874   5.622   1.622   9.430  1.8150 -1.5563  1.2688
  121OSM   H13G12875   5.481   1.536   9.526 -0.9333 -0.6683 -0.6678
  121OSM   C14F12876   5.463   1.559   9.306  0.5136 -0.6082 -0.3269
  121OSM   H14F12877   5.370   1.614   9.330  0.5292 -0.3115 -0.9204
  121OSM   H14G12878   5.416   1.460   9.288 -0.1204 -0.1041 -1.4490
  121OSM   C15F12879   5.543   1.613   9.188 -0.0660 -0.0139  0.3560
  121OSM   H15F12880   5.631   1.547   9.172  0.0072 -0.0541  0.9000
  121OSM   H15G12881   5.594   1.711   9.199 -1.7786  0.8471  0.8233
  121OSM   C16F12882   5.451   1.624   9.066  0.2965 -0.0035  0.3901
  121OSM   H16F12883   5.359   1.677   9.098  1.3198  0.6904  2.3132
  121OSM   H16G12884   5.414   1.527   9.029 -1.1579  0.2401  1.1823
  121OSM   C17F12885   5.508   1.705   8.950  0.7222 -0.0204 -0.1484
  121OSM   H17F12886   5.569   1.794   8.978 -0.4490  0.3334  1.3975
  121OSM   H17G12887   5.412   1.732   8.901  0.8882 -1.2642 -1.2025
  121OSM   C18F12888   5.607   1.619   8.862 -0.0143 -0.2134  0.1597
  121OSM   H18F12889   5.693   1.585   8.924  0.7981  2.0652  0.3031
  121OSM   H18G12890   5.657   1.674   8.779  2.3374 -3.0646 -0.4187
  121OSM   H18H12891   5.552   1.531   8.821 -1.9708  0.3140  1.5895
  122OSM      N12892   5.792   0.263  10.966 -0.4096 -0.2315 -0.3671
  122OSM    C1512893   5.847   0.283  11.104 -0.4978  0.3750  0.1387
  122OSM   H15A12894   5.931   0.218  11.122 -0.9734 -0.1097  0.6209
  122OSM   H15B12895   5.774   0.254  11.178 -0.5403 -1.3915 -0.5728
  122OSM   H15C12896   5.866   0.387  11.127 -2.7367  1.5525 -3.0328
  122OSM    C1412897   5.772   0.119  10.936 -0.5603 -0.0531 -0.8145
  122OSM   H14A12898   5.865   0.065  10.931  0.3374  1.3836  0.1389
  122OSM   H14B12899   5.724   0.106  10.840  1.6887 -1.7766 -1.7665
  122OSM   H14C12900   5.722   0.076  11.022  1.9401  0.3149  0.8670
  122OSM    C1312901   5.656   0.332  10.965 -0.8370  0.3243  0.1276
  122OSM   H13A12902   5.659   0.439  10.984  1.5177  0.3508 -0.2025
  122OSM   H13B12903   5.585   0.284  11.031 -0.0340 -0.4605  0.4279
  122OSM   H13C12904   5.617   0.323  10.864 -0.1380 -1.5864  0.0107
  122OSM    C1212905   5.888   0.322  10.865 -0.6093 -0.2839  0.1215
  122OSM   H12A12906   5.878   0.429  10.865 -0.1122 -0.2353  0.6548
  122OSM   H12B12907   5.863   0.283  10.767  0.7607 -1.7161  0.3101
  122OSM    C1112908   6.039   0.295  10.886  1.4577 -0.1898  0.0420
  122OSM   H11A12909   6.078   0.334  10.982 -1.4854  2.4826  0.2154
  122OSM   H11B12910   6.096   0.358  10.814 -0.6498  2.9291  0.9987
  122OSM      P12911   6.065   0.107  10.702 -0.4676 -0.0551  0.5520
  122OSM    O1312912   6.202   0.061  10.685 -0.0564 -0.0974 -0.2790
  122OSM    O1412913   5.947   0.028  10.663  0.6963  0.7033  0.5895
  122OSM    O1112914   6.047   0.235  10.616 -0.2562 -0.3129 -0.5871
  122OSM    O1212915   6.058   0.157  10.858  0.2297 -0.4405  0.5421
  122OSM    C1S12916   6.094   0.235  10.478  0.4782  0.6525  0.0506
  122OSM    H1S12917   6.043   0.158  10.418  1.5227  0.8429 -1.0918
  122OSM    H1T12918   6.203   0.214  10.471  0.4018  0.3528 -0.2416
  122OSM     NF12919   6.084   0.351  10.252  0.5533 -0.4409 -0.5785
  122OSM    HNF12920   6.162   0.398  10.212  0.5702  1.9659  2.1500
  122OSM    C2S12921   6.071   0.373  10.402 -0.1403 -0.0889  0.5719
  122OSM    H2S12922   5.966   0.405  10.419 -0.0763 -0.5055  1.8252
  122OSM    C3S12923   6.169   0.482  10.449  0.3375  0.4872 -0.2996
  122OSM    H3S12924   6.269   0.439  10.429 -0.3516 -0.8266 -0.9463
  122OSM     O312925   6.166   0.496  10.596 -0.4879  0.3349  0.9472
  122OSM    HO312926   6.152   0.404  10.617 -3.2179  0.0345 -1.9830
  122OSM    C4S12927   6.164   0.616  10.385  0.3712  0.6329 -0.2253
  122OSM    H4S12928   6.225   0.624  10.294  0.5683 -0.4243 -0.1845
  122OSM    C5S12929   6.092   0.726  10.426 -0.2792  0.5543 -0.6056
  122OSM    H5S12930   6.053   0.726  10.529  4.0559 -1.0830  1.1694
  122OSM    C6S12931   6.106   0.866  10.370  0.1177  0.7671 -0.3296
  122OSM    H6S12932   6.081   0.946  10.444  0.6235  0.5979  0.0290
  122OSM    H6T12933   6.039   0.869  10.282  0.4694  1.4445 -0.5780
  122OSM    C7S12934   6.236   0.921  10.316 -0.9311 -0.3313 -0.2961
  122OSM    H7S12935   6.286   0.846  10.251 -1.1348 -0.0036 -0.8302
  122OSM    H7T12936   6.306   0.949  10.398 -0.5426  0.3245 -0.8479
  122OSM    C8S12937   6.223   1.057  10.242  0.0372 -0.2675  0.7134
  122OSM    H8S12938   6.200   1.135  10.318  0.9439  1.5432 -0.8079
  122OSM    H8T12939   6.138   1.045  10.172  1.5624 -2.0399 -0.8910
  122OSM    C9S12940   6.341   1.104  10.161 -0.0511  0.0381  0.0226
  122OSM    H9S12941   6.427   1.102  10.231 -0.0770 -0.1136  0.0502
  122OSM    H9T12942   6.317   1.208  10.128 -0.3637 -0.7301 -2.2791
  122OSM   C10S12943   6.372   1.015  10.039  0.0677 -0.0097  0.7346
  122OSM   H10S12944   6.274   0.996   9.991 -0.5793  1.3730  1.4839
  122OSM   H10T12945   6.420   0.922  10.076 -0.6271 -1.1647 -1.1948
  122OSM   C11S12946   6.467   1.071   9.927  0.3488 -0.0469 -0.2450
  122OSM   H11S12947   6.572   1.040   9.949  1.0840  1.2569 -1.7965
  122OSM   H11T12948   6.453   1.180   9.919  0.5030 -0.1160 -1.5743
  122OSM   C12S12949   6.436   1.021   9.782 -0.4454  0.1046  0.4467
  122OSM   H12S12950   6.326   1.033   9.775 -0.1188  2.5310 -1.0285
  122OSM   H12T12951   6.457   0.913   9.769 -0.2755  0.1269  0.5292
  122OSM   C13S12952   6.502   1.103   9.672  0.4827  0.2932 -0.1511
  122OSM   H13S12953   6.612   1.088   9.664  0.4584 -1.7034  2.3662
  122OSM   H13T12954   6.463   1.206   9.685  1.3919  0.6310 -0.0591
  122OSM   C14S12955   6.457   1.056   9.536  0.1091 -0.0711 -0.0047
  122OSM   H14S12956   6.346   1.059   9.532 -0.0006  0.9568  2.7712
  122OSM   H14T12957   6.481   0.948   9.524 -1.1707 -0.3475 -0.1144
  122OSM   C15S12958   6.513   1.141   9.417  0.3880  0.3182  0.0648
  122OSM   H15S12959   6.620   1.116   9.407 -0.4582 -3.1549 -0.9148
  122OSM   H15T12960   6.507   1.252   9.427  1.6509  0.3860  0.1574
  122OSM   C16S12961   6.449   1.115   9.278  0.0104 -0.6965  0.2023
  122OSM   H16S12962   6.341   1.141   9.274 -0.1986 -1.6526 -0.7179
  122OSM   H16T12963   6.459   1.007   9.253  1.6449 -0.1048 -1.8134
  122OSM   C17S12964   6.531   1.192   9.163  0.0486  0.2870  0.1433
  122OSM   H17S12965   6.636   1.156   9.165 -0.1362 -0.2652  0.1250
  122OSM   H17T12966   6.545   1.298   9.192  0.1745 -0.3649  2.5552
  122OSM   C18S12967   6.469   1.183   9.023  0.1018  0.3997 -0.2945
  122OSM   H18S12968   6.365   1.222   9.036  0.4760  1.4443 -0.3854
  122OSM   H18T12969   6.469   1.075   8.996 -2.6413  0.5851 -1.2093
  122OSM   H18U12970   6.526   1.240   8.947  3.1227 -0.4082  1.3104
  122OSM    C1F12971   6.003   0.272  10.181 -0.1067  0.9701 -0.0876
  122OSM     OF12972   5.904   0.221  10.230 -0.7530 -0.0220  0.4840
  122OSM    C2F12973   6.045   0.237  10.043 -0.5964 -0.5195 -0.3342
  122OSM    H2F12974   6.069   0.333   9.993 -1.9830  0.5936  1.0941
  122OSM    H2G12975   5.961   0.193   9.985 -1.4656  0.5784  0.0961
  122OSM    C3F12976   6.159   0.130  10.036  0.6379 -0.3247  0.6137
  122OSM    H3F12977   6.142   0.036  10.093 -1.2828 -0.7871 -0.6565
  122OSM    H3G12978   6.244   0.181  10.085  2.4858 -1.1513 -1.6166
  122OSM    C4F12979   6.199   0.085   9.897 -1.1404 -0.2188 -0.0073
  122OSM    H4F12980   6.255   0.162   9.840  0.5821 -0.5740  1.1509
  122OSM    H4G12981   6.111   0.067   9.831 -1.1913 -0.4531  0.1208
  122OSM    C5F12982   6.276  -0.047   9.900  0.5971  0.1026 -0.1320
  122OSM    H5F12983   6.199  -0.124   9.920  0.8993 -0.9525 -2.8221
  122OSM    H5G12984   6.358  -0.040   9.975 -1.0572  0.0278  1.7240
  122OSM    C6F12985   6.339  -0.081   9.766 -0.3565  0.7920 -0.1297
  122OSM    H6F12986   6.368  -0.188   9.779  0.7351  1.1401  0.2817
  122OSM    H6G12987   6.433  -0.029   9.739  0.1505  0.0946  0.2649
  122OSM    C7F12988   6.236  -0.094   9.649  0.4399 -0.1139 -0.1242
  122OSM    H7F12989   6.234   0.001   9.592  1.6824  0.8031  1.3084
  122OSM    H7G12990   6.135  -0.118   9.689  0.8287  0.2399  1.0966
  122OSM    C8F12991   6.295  -0.200   9.552 -0.3423  0.2874  0.3881
  122OSM    H8F12992   6.215  -0.214   9.476 -0.8365  0.5361  0.8615
  122OSM    H8G12993   6.305  -0.297   9.603  1.3890  0.7476  0.9370
  122OSM    C9F12994   6.426  -0.162   9.488 -0.2957 -1.0384  0.2913
  122OSM    H9F12995   6.505  -0.149   9.563 -1.7018 -1.1884  1.8204
  122OSM   C10F12996   6.456  -0.138   9.360  0.0878 -0.2295  0.0280
  122OSM   H10F12997   6.558  -0.105   9.335  0.8615 -2.5669 -0.0417
  122OSM   C11F12998   6.359  -0.149   9.249 -0.2948 -0.1020 -0.1020
  122OSM   H11F12999   6.343  -0.057   9.188 -3.1150 -0.1945  0.4345
  122OSM   H11G13000   6.257  -0.172   9.286 -1.3486  3.3338 -0.6691
  122OSM   C12F13001   6.395  -0.260   9.150  0.1492 -0.4990 -0.5116
  122OSM   H12F13002   6.401  -0.360   9.199  1.4657  0.0518  0.4739
  122OSM   H12G13003   6.497  -0.240   9.110  0.3036 -1.1992 -0.4743
  122OSM   C13F13004   6.311  -0.265   9.021 -0.1733 -0.4617  0.6043
  122OSM   H13F13005   6.319  -0.166   8.971 -2.0533 -0.9644 -0.7185
  122OSM   H13G13006   6.202  -0.279   9.037 -0.8729  1.2009 -2.3821
  122OSM   C14F13007   6.357  -0.368   8.917 -0.4129  0.5042 -0.3041
  122OSM   H14F13008   6.316  -0.468   8.941 -0.5707  0.6764  0.1580
  122OSM   H14G13009   6.468  -0.378   8.920 -0.6920 -2.7021  0.7141
  122OSM   C15F13010   6.303  -0.320   8.777 -0.5372  0.4974 -0.3580
  122OSM   H15F13011   6.357  -0.226   8.751  1.5883 -0.2927  1.0045
  122OSM   H15G13012   6.198  -0.289   8.792 -0.4729  0.8302 -0.5958
  122OSM   C16F13013   6.286  -0.418   8.664  0.5727 -0.5911  0.3580
  122OSM   H16F13014   6.205  -0.493   8.679 -0.2847 -0.1986 -2.0272
  122OSM   H16G13015   6.377  -0.481   8.654 -0.5327 -2.1966  0.0592
  122OSM   C17F13016   6.265  -0.347   8.528  0.6268 -0.3993 -0.2626
  122OSM   H17F13017   6.341  -0.267   8.514  0.3695  0.3058  2.1465
  122OSM   H17G13018   6.168  -0.295   8.539  1.4882  1.7985 -2.5495
  122OSM   C18F13019   6.250  -0.455   8.418  0.3265 -0.5300  0.0715
  122OSM   H18F13020   6.184  -0.413   8.339 -0.1485 -0.0465  0.7154
  122OSM   H18G13021   6.200  -0.549   8.450 -1.9972  1.5085  2.7819
  122OSM   H18H13022   6.349  -0.483   8.378  1.9109  1.4541  2.4456
  123OSM      N13023   2.264   5.707   6.047  0.6605  0.6335  0.4989
  123OSM    C1513024   2.195   5.574   6.047 -0.4807  0.4028  0.0477
  123OSM   H15A13025   2.191   5.525   5.951  1.3029  0.3700 -0.0260
  123OSM   H15B13026   2.089   5.580   6.069 -1.0307 -0.4943 -2.2591
  123OSM   H15C13027   2.251   5.505   6.109 -2.0575 -0.2619  0.7821
  123OSM    C1413028   2.390   5.697   5.966 -0.5247 -0.0089  0.0153
  123OSM   H14A13029   2.445   5.610   6.000 -1.9581 -0.3186  1.5682
  123OSM   H14B13030   2.446   5.788   5.982 -0.2881  0.0650 -1.1552
  123OSM   H14C13031   2.377   5.691   5.859 -2.1204 -0.2465  0.2196
  123OSM    C1313032   2.164   5.802   5.989  0.1422  0.3780 -0.0433
  123OSM   H13A13033   2.216   5.881   5.936  0.2690  0.1637 -0.2375
  123OSM   H13B13034   2.103   5.847   6.066 -2.5224 -0.1793 -1.7828
  123OSM   H13C13035   2.101   5.759   5.913 -2.1663  2.0905  0.8419
  123OSM    C1213036   2.299   5.751   6.185 -0.0471 -0.1747  0.5997
  123OSM   H12A13037   2.207   5.748   6.242  0.8432 -2.6297  2.0046
  123OSM   H12B13038   2.329   5.855   6.188  0.7666 -0.4313  2.0127
  123OSM    C1113039   2.392   5.669   6.270  0.6816 -0.7160  0.0533
  123OSM   H11A13040   2.435   5.728   6.354 -0.8519  0.4021  0.0753
  123OSM   H11B13041   2.478   5.649   6.202 -0.6719 -1.5565 -1.4615
  123OSM      P13042   2.398   5.419   6.348  0.0949 -0.1206  0.2600
  123OSM    O1313043   2.320   5.356   6.457 -0.2581  0.2362  0.3995
  123OSM    O1413044   2.402   5.345   6.221  0.0964  0.1285  0.1400
  123OSM    O1113045   2.547   5.463   6.390 -0.2381  0.1904  0.1502
  123OSM    O1213046   2.323   5.557   6.318  0.0643  0.0522  0.3573
  123OSM    C1S13047   2.574   5.540   6.504 -0.0728  0.2182 -0.4402
  123OSM    H1S13048   2.485   5.563   6.566 -0.1081 -1.1332  0.0227
  123OSM    H1T13049   2.617   5.634   6.465 -0.8431  1.0300  0.6569
  123OSM     NF13050   2.672   5.498   6.734 -0.0977  0.2611  0.1233
  123OSM    HNF13051   2.752   5.550   6.765 -0.7854  0.9489  0.7881
  123OSM    C2S13052   2.675   5.459   6.593  0.1919  0.0697 -0.3557
  123OSM    H2S13053   2.640   5.354   6.606 -1.0907  0.7089  1.4714
  123OSM    C3S13054   2.813   5.458   6.526  0.4055 -0.1533 -0.0936
  123OSM    H3S13055   2.858   5.558   6.540  2.8872 -1.2290 -0.0026
  123OSM     O313056   2.813   5.416   6.390 -0.4581 -0.2280 -0.2753
  123OSM    HO313057   2.720   5.402   6.374 -0.2280 -2.3190 -0.0422
  123OSM    C4S13058   2.899   5.363   6.606 -0.4460  0.2719  0.9102
  123OSM    H4S13059   2.983   5.408   6.662 -0.5078 -1.2666  2.2854
  123OSM    C5S13060   2.884   5.227   6.610 -0.7522 -0.0429  0.6523
  123OSM    H5S13061   2.802   5.190   6.547 -0.4948 -1.2404  1.0147
  123OSM    C6S13062   2.955   5.127   6.704  0.5517 -0.6515  0.0461
  123OSM    H6S13063   2.988   5.040   6.644  1.0640 -0.2085 -0.3244
  123OSM    H6T13064   2.882   5.084   6.775  2.0927 -1.2047  1.3492
  123OSM    C7S13065   3.062   5.199   6.798  0.1069  0.7416 -0.5411
  123OSM    H7S13066   3.126   5.272   6.746 -0.0005 -0.0527 -1.8104
  123OSM    H7T13067   3.137   5.130   6.841 -0.7042 -0.1881 -0.5968
  123OSM    C8S13068   3.002   5.269   6.920  0.0197 -0.2441  0.1243
  123OSM    H8S13069   3.010   5.201   7.008  1.1259 -1.1342 -0.6282
  123OSM    H8T13070   2.894   5.292   6.907 -0.7653 -1.1665  4.3127
  123OSM    C9S13071   3.086   5.393   6.968 -0.4801  0.1245 -0.1513
  123OSM    H9S13072   3.087   5.464   6.882  0.7053 -1.9996 -1.9499
  123OSM    H9T13073   3.193   5.370   6.988 -1.1076 -1.9235  0.9162
  123OSM   C10S13074   3.027   5.455   7.094  0.4848 -0.0760  0.3804
  123OSM   H10S13075   2.919   5.427   7.095  0.9598 -1.9949 -0.0360
  123OSM   H10T13076   3.027   5.565   7.080 -1.6850 -0.0939  0.0474
  123OSM   C11S13077   3.100   5.412   7.221  0.3378 -0.1354  0.2200
  123OSM   H11S13078   3.198   5.463   7.228  1.2717 -1.8417 -0.1697
  123OSM   H11T13079   3.124   5.303   7.221  2.3801  0.2911  0.3246
  123OSM   C12S13080   3.020   5.450   7.343  0.1845  0.1746  0.1662
  123OSM   H12S13081   2.915   5.413   7.343  0.6987 -1.2931  0.1799
  123OSM   H12T13082   3.012   5.561   7.341  1.7302  0.3912  3.0840
  123OSM   C13S13083   3.091   5.418   7.473  0.0820  0.2254  0.3593
  123OSM   H13S13084   3.195   5.459   7.469  0.2413 -0.1091  0.9239
  123OSM   H13T13085   3.100   5.307   7.483  0.0613  0.1959  0.0352
  123OSM   C14S13086   3.015   5.469   7.586  0.7424  0.3181 -0.5277
  123OSM   H14S13087   2.910   5.433   7.589 -0.0540  2.5277 -0.7102
  123OSM   H14T13088   3.002   5.579   7.578  1.9487  0.4552 -0.7050
  123OSM   C15S13089   3.078   5.435   7.725  0.0901  0.5863 -0.3580
  123OSM   H15S13090   3.184   5.468   7.729  0.0694  0.4227  2.2653
  123OSM   H15T13091   3.062   5.327   7.746  1.4503  0.3866 -0.2884
  123OSM   C16S13092   3.020   5.515   7.842  0.0774  0.2316 -0.4166
  123OSM   H16S13093   2.913   5.487   7.838  0.2552 -0.3369 -1.4773
  123OSM   H16T13094   3.026   5.624   7.819 -1.1985  0.5115  0.5284
  123OSM   C17S13095   3.074   5.484   7.974  0.3433  0.0715 -0.3015
  123OSM   H17S13096   3.184   5.496   7.983  0.7288 -2.5886 -1.0528
  123OSM   H17T13097   3.041   5.379   7.985  2.0804 -0.6585 -1.7673
  123OSM   C18S13098   3.028   5.585   8.078  0.0052 -0.4058  0.3796
  123OSM   H18S13099   3.047   5.536   8.175  1.2511  0.0240  0.3632
  123OSM   H18T13100   2.924   5.616   8.056  0.2065 -1.5638 -2.4168
  123OSM   H18U13101   3.094   5.675   8.070 -0.4027 -0.1380 -0.0213
  123OSM    C1F13102   2.563   5.496   6.817  0.0225 -0.1294 -0.1788
  123OSM     OF13103   2.464   5.429   6.795 -0.6244 -0.1124 -0.2897
  123OSM    C2F13104   2.557   5.589   6.935 -0.1506 -0.1030 -0.3407
  123OSM    H2F13105   2.474   5.662   6.919 -1.4437 -1.2269  1.0524
  123OSM    H2G13106   2.657   5.637   6.931  0.7919 -1.8839  1.1681
  123OSM    C3F13107   2.535   5.510   7.060  0.4505 -0.1946  0.1212
  123OSM    H3F13108   2.619   5.439   7.077  1.0475  1.0407  2.5337
  123OSM    H3G13109   2.437   5.458   7.050  0.0370  0.4944  0.5448
  123OSM    C4F13110   2.527   5.599   7.187  0.0125  0.8454 -0.0636
  123OSM    H4F13111   2.433   5.658   7.193 -0.2526  0.3810  0.4470
  123OSM    H4G13112   2.620   5.660   7.186  0.0919  0.7404 -3.2237
  123OSM    C5F13113   2.515   5.523   7.321  0.0846 -0.9638  0.2537
  123OSM    H5F13114   2.580   5.433   7.322 -0.8033 -1.6176 -0.0994
  123OSM    H5G13115   2.409   5.490   7.332  0.0568 -0.6687  0.9006
  123OSM    C6F13116   2.542   5.613   7.445 -0.0061 -0.2200 -0.0826
  123OSM    H6F13117   2.457   5.684   7.456  1.5087  1.8233 -1.1329
  123OSM    H6G13118   2.632   5.674   7.422  0.0259 -0.0165  0.5962
  123OSM    C7F13119   2.567   5.529   7.569 -0.2579  0.7048 -0.5545
  123OSM    H7F13120   2.645   5.451   7.554  1.5571  2.1128  1.2451
  123OSM    H7G13121   2.475   5.468   7.580  0.5470 -0.4629 -0.1809
  123OSM    C8F13122   2.595   5.607   7.702  0.3855 -0.6939  0.4559
  123OSM    H8F13123   2.527   5.694   7.715  0.0626 -1.1318  1.8360
  123OSM    H8G13124   2.698   5.642   7.683  0.3038  0.7732  2.6425
  123OSM    C9F13125   2.613   5.520   7.820 -0.5726 -0.0550  0.2496
  123OSM    H9F13126   2.685   5.439   7.800  0.9353  1.3427 -0.0797
  123OSM   C10F13127   2.549   5.522   7.937  0.5660 -0.4655  0.3566
  123OSM   H10F13128   2.569   5.447   8.015  2.2545 -0.3817  0.0177
  123OSM   C11F13129   2.433   5.616   7.963  0.7798 -0.0113  0.7324
  123OSM   H11F13130   2.356   5.564   8.024 -0.8302 -0.7178 -1.8733
  123OSM   H11G13131   2.385   5.649   7.869 -0.6267 -0.0217  1.4391
  123OSM   C12F13132   2.477   5.753   8.026 -0.1677  0.5138  0.7932
  123OSM   H12F13133   2.386   5.818   8.029  1.0538  2.2564  1.1746
  123OSM   H12G13134   2.557   5.804   7.970 -1.0042 -0.6999 -1.5550
  123OSM   C13F13135   2.536   5.727   8.169  0.3602  0.5345 -0.0616
  123OSM   H13F13136   2.638   5.685   8.156  0.2086 -1.3321  3.7599
  123OSM   H13G13137   2.480   5.642   8.214  1.5957  1.1866  2.8231
  123OSM   C14F13138   2.552   5.851   8.258  0.1163  0.6127  0.3883
  123OSM   H14F13139   2.595   5.815   8.354  2.6445  0.5291 -0.7278
  123OSM   H14G13140   2.453   5.896   8.277 -0.2919  0.2877 -0.9017
  123OSM   C15F13141   2.642   5.953   8.189  0.6061  0.0484  0.3964
  123OSM   H15F13142   2.589   6.030   8.129 -2.0293  0.2166  2.8373
  123OSM   H15G13143   2.728   5.905   8.136  0.6661  0.7398 -0.1376
  123OSM   C16F13144   2.705   6.053   8.291  0.2332  0.1939 -0.2667
  123OSM   H16F13145   2.788   6.101   8.234 -0.8006 -0.9975 -2.8774
  123OSM   H16G13146   2.747   5.988   8.371 -0.0172  0.8085  0.3605
  123OSM   C17F13147   2.606   6.152   8.339  0.2178 -0.0129 -0.5397
  123OSM   H17F13148   2.511   6.105   8.369 -1.0965  0.8824 -3.1343
  123OSM   H17G13149   2.577   6.226   8.260  1.2985  1.4767  0.4328
  123OSM   C18F13150   2.653   6.251   8.446  0.1629  0.1955 -0.2366
  123OSM   H18F13151   2.581   6.334   8.462  1.0576  1.2717 -1.6885
  123OSM   H18G13152   2.744   6.302   8.409 -1.3102  2.3127 -1.0166
  123OSM   H18H13153   2.690   6.199   8.537  2.5042 -1.7053 -2.2090
  124OSM      N13154   6.124   3.296   6.233  0.1860 -0.0595 -0.3848
  124OSM    C1513155   6.222   3.270   6.113  0.1637  0.4244 -0.0707
  124OSM   H15A13156   6.191   3.207   6.030  0.8094  0.0838 -0.0567
  124OSM   H15B13157   6.310   3.237   6.165 -0.8173  0.5093  1.6655
  124OSM   H15C13158   6.257   3.363   6.070  2.6529  0.2924  1.5621
  124OSM    C1413159   6.084   3.164   6.282  0.1152  0.1380 -0.0155
  124OSM   H14A13160   6.043   3.098   6.207  0.6604 -1.7527  1.3029
  124OSM   H14B13161   6.021   3.169   6.370 -0.7623  0.1783 -0.6341
  124OSM   H14C13162   6.171   3.108   6.313  1.2081  1.1100 -1.2756
  124OSM    C1313163   6.199   3.375   6.335  0.3637 -0.1071 -0.1333
  124OSM   H13A13164   6.217   3.476   6.299 -1.0605  0.7224  1.3980
  124OSM   H13B13165   6.295   3.330   6.351 -0.0278 -1.7557 -2.2639
  124OSM   H13C13166   6.140   3.385   6.425  0.2944  1.0357 -0.2875
  124OSM    C1213167   5.999   3.382   6.189 -0.1790  0.3098  0.2128
  124OSM   H12A13168   5.933   3.383   6.274 -3.2902 -1.9577 -2.0139
  124OSM   H12B13169   5.962   3.341   6.096 -0.4347  1.8909 -0.3960
  124OSM    C1113170   6.017   3.529   6.143  0.0368  0.5868  0.1217
  124OSM   H11A13171   5.915   3.555   6.108  0.3240  0.6239 -0.6822
  124OSM   H11B13172   6.088   3.514   6.060 -1.5519 -1.9801 -0.8191
  124OSM      P13173   5.986   3.680   6.357 -0.5597 -0.2889  0.4754
  124OSM    O1313174   6.049   3.786   6.431  0.0661  0.2859 -1.1683
  124OSM    O1413175   5.845   3.691   6.315 -0.8856  0.1305 -0.7855
  124OSM    O1113176   6.000   3.551   6.447  0.1162 -0.0508  0.2422
  124OSM    O1213177   6.071   3.627   6.232  0.0497 -0.1829 -0.2326
  124OSM    C1S13178   6.042   3.549   6.582  0.2227 -0.0681 -0.1895
  124OSM    H1S13179   6.119   3.627   6.599 -0.3732  0.8504 -1.6344
  124OSM    H1T13180   6.093   3.457   6.617 -1.9287 -0.6845  1.4796
  124OSM     NF13181   5.979   3.599   6.809 -0.1620 -0.4997 -0.1260
  124OSM    HNF13182   5.968   3.517   6.865  1.5226 -0.1666  0.7133
  124OSM    C2S13183   5.923   3.580   6.678 -0.0009 -0.3385  0.3968
  124OSM    H2S13184   5.882   3.677   6.644  0.5759  0.0063  0.6701
  124OSM    C3S13185   5.804   3.483   6.672  0.4048 -0.1160  0.9357
  124OSM    H3S13186   5.839   3.382   6.700 -0.2043 -0.7123 -0.3804
  124OSM     O313187   5.736   3.464   6.547  0.6919 -0.4884  0.4985
  124OSM    HO313188   5.773   3.529   6.487 -0.0960 -2.2167 -1.9164
  124OSM    C4S13189   5.710   3.527   6.785  0.3324  0.2115  0.0581
  124OSM    H4S13190   5.719   3.480   6.884 -2.0166  1.5551  0.9453
  124OSM    C5S13191   5.607   3.615   6.770  0.8133 -0.3092  0.1091
  124OSM    H5S13192   5.603   3.671   6.676  0.2204  0.6680  0.7094
  124OSM    C6S13193   5.514   3.651   6.884 -0.1444 -0.4938 -0.3369
  124OSM    H6S13194   5.464   3.563   6.929 -0.7094  0.5244  1.0618
  124OSM    H6T13195   5.437   3.723   6.847  0.3549  1.1742  1.7566
  124OSM    C7S13196   5.591   3.716   7.004  1.4689  0.0887  0.3834
  124OSM    H7S13197   5.618   3.821   6.982 -1.2413  1.1436  1.7411
  124OSM    H7T13198   5.681   3.659   7.034  1.0933 -1.4864 -1.3893
  124OSM    C8S13199   5.493   3.734   7.118 -0.0860 -0.3676 -0.4973
  124OSM    H8S13200   5.426   3.645   7.128 -1.4688  0.8117  1.0737
  124OSM    H8T13201   5.435   3.826   7.098 -0.0972 -0.1782  0.3790
  124OSM    C9S13202   5.560   3.769   7.253 -0.2838 -0.6002  0.9681
  124OSM    H9S13203   5.655   3.826   7.244 -1.0123  0.0693 -3.8853
  124OSM    H9T13204   5.573   3.670   7.302  2.0895 -0.5745  0.4621
  124OSM   C10S13205   5.462   3.826   7.352  0.3426 -0.1793 -0.0168
  124OSM   H10S13206   5.375   3.762   7.376 -1.0030  2.4253  2.2964
  124OSM   H10T13207   5.419   3.922   7.317  0.3432 -0.6515 -1.3538
  124OSM   C11S13208   5.512   3.860   7.493  0.2437 -0.4144 -0.1896
  124OSM   H11S13209   5.434   3.918   7.547  0.4666 -0.1582 -0.1375
  124OSM   H11T13210   5.600   3.929   7.494 -0.2097  0.1673  0.3206
  124OSM   C12S13211   5.546   3.728   7.575 -0.0080  0.1421 -0.9722
  124OSM   H12S13212   5.622   3.669   7.520  1.6189  1.1287  0.2034
  124OSM   H12T13213   5.459   3.659   7.573 -0.9284  1.2251  0.7606
  124OSM   C13S13214   5.584   3.754   7.721 -0.5784  0.1821 -1.0894
  124OSM   H13S13215   5.504   3.822   7.760  0.8049  1.9653 -1.2838
  124OSM   H13T13216   5.681   3.806   7.713 -0.6331  0.5826  0.7010
  124OSM   C14S13217   5.615   3.626   7.808  0.1135  0.7935 -0.2210
  124OSM   H14S13218   5.711   3.592   7.763 -0.4985 -2.0519  0.5910
  124OSM   H14T13219   5.533   3.552   7.802  2.2766 -1.7106  0.5017
  124OSM   C15S13220   5.633   3.656   7.956  0.1144 -0.6229 -0.1982
  124OSM   H15S13221   5.691   3.751   7.964 -0.4838 -0.3864  1.6666
  124OSM   H15T13222   5.687   3.568   7.995 -2.2463 -1.3484  1.5400
  124OSM   C16S13223   5.493   3.677   8.028 -0.7423  0.6039 -0.7135
  124OSM   H16S13224   5.417   3.623   7.967  0.6840  0.9084 -2.8222
  124OSM   H16T13225   5.475   3.787   8.021  0.1354  0.7844 -0.2573
  124OSM   C17S13226   5.484   3.630   8.172  0.5242  0.4621  0.2080
  124OSM   H17S13227   5.580   3.662   8.218  3.1207 -1.9902 -3.1586
  124OSM   H17T13228   5.497   3.519   8.178  0.8553  0.5440  1.2273
  124OSM   C18S13229   5.370   3.680   8.253  0.6141 -0.2941 -0.3395
  124OSM   H18S13230   5.374   3.650   8.360 -0.0495  0.8132  0.0036
  124OSM   H18T13231   5.269   3.643   8.226 -0.2750  1.9340 -0.1402
  124OSM   H18U13232   5.365   3.790   8.243  0.8227 -0.1843  0.7233
  124OSM    C1F13233   6.047   3.709   6.854  0.5439  0.0063  0.0395
  124OSM     OF13234   6.074   3.799   6.773  0.7824 -0.4394 -0.3196
  124OSM    C2F13235   6.087   3.722   6.997  0.3249  0.4568  1.0774
  124OSM    H2F13236   6.186   3.675   7.020  1.2201  1.6564 -0.2546
  124OSM    H2G13237   6.001   3.685   7.057  1.2727 -1.6120  1.2048
  124OSM    C3F13238   6.092   3.868   7.046  0.5991  0.0301  0.3184
  124OSM    H3F13239   5.996   3.918   7.023  0.4007 -0.4184  0.1666
  124OSM    H3G13240   6.169   3.911   6.978 -0.7884  1.4546 -0.3759
  124OSM    C4F13241   6.119   3.884   7.197 -0.4216  0.2383 -0.3822
  124OSM    H4F13242   6.144   3.987   7.229 -1.4687  0.9101 -1.6728
  124OSM    H4G13243   6.218   3.836   7.214  0.0313  0.6360 -1.8474
  124OSM    C5F13244   6.001   3.837   7.291  0.3768 -0.9711 -0.0323
  124OSM    H5F13245   5.933   3.771   7.233 -1.9629  2.1306 -0.9315
  124OSM    H5G13246   5.959   3.937   7.315  1.2309 -0.6221  0.0590
  124OSM    C6F13247   6.040   3.781   7.427 -0.5267  0.1227  0.3510
  124OSM    H6F13248   6.133   3.831   7.462  0.1763 -1.5018  0.8499
  124OSM    H6G13249   6.061   3.672   7.423 -1.5488 -0.0240 -1.6522
  124OSM    C7F13250   5.934   3.803   7.535  0.1274  0.0437 -0.4866
  124OSM    H7F13251   5.840   3.747   7.515 -1.4768  2.7962 -0.8734
  124OSM    H7G13252   5.902   3.909   7.545  0.9731  0.2310  0.2668
  124OSM    C8F13253   5.976   3.759   7.682  0.1686 -0.0475  0.7274
  124OSM    H8F13254   6.018   3.657   7.680  0.0447 -0.2369  4.2932
  124OSM    H8G13255   5.881   3.753   7.741 -0.7017  1.7153 -0.4281
  124OSM    C9F13256   6.073   3.856   7.745 -0.2355 -0.1957  0.0986
  124OSM    H9F13257   6.151   3.901   7.682 -0.6624  1.5783  0.8069
  124OSM   C10F13258   6.079   3.890   7.874 -0.2782  0.0365 -0.1064
  124OSM   H10F13259   6.167   3.950   7.899 -0.6356  1.3814 -1.9797
  124OSM   C11F13260   5.992   3.851   7.991 -0.6559 -0.0794 -0.3250
  124OSM   H11F13261   5.891   3.807   7.976 -1.1610  0.2837  1.8588
  124OSM   H11G13262   5.980   3.942   8.053 -1.0930  0.6996 -1.5399
  124OSM   C12F13263   6.067   3.752   8.074 -0.7020  0.0376  0.1499
  124OSM   H12F13264   6.171   3.784   8.096 -0.8026  0.4283  0.0597
  124OSM   H12G13265   6.082   3.655   8.021  1.3992 -0.9464  2.4840
  124OSM   C13F13266   6.007   3.727   8.213 -0.2603  0.0148 -0.1044
  124OSM   H13F13267   5.897   3.718   8.215 -0.2723  0.4164  3.0938
  124OSM   H13G13268   6.030   3.815   8.275  2.3346  0.2424 -1.3171
  124OSM   C14F13269   6.067   3.607   8.285 -0.2165  0.2301 -0.3316
  124OSM   H14F13270   6.157   3.651   8.333 -1.0154  1.5394 -0.0350
  124OSM   H14G13271   6.082   3.530   8.206 -0.8903  0.4969 -0.7193
  124OSM   C15F13272   5.978   3.552   8.391  0.2281 -0.3147  0.2193
  124OSM   H15F13273   5.881   3.512   8.352 -1.6191  1.1134  3.1998
  124OSM   H15G13274   5.958   3.635   8.461  1.6245  2.1564 -2.2039
  124OSM   C16F13275   6.052   3.449   8.475 -0.3686 -0.3268  0.3067
  124OSM   H16F13276   6.148   3.489   8.515 -0.0466 -1.9578  1.2176
  124OSM   H16G13277   6.067   3.355   8.417 -1.9761 -0.4766  0.1103
  124OSM   C17F13278   5.977   3.393   8.604 -0.9047 -0.2263  0.2102
  124OSM   H17F13279   5.887   3.339   8.567  0.6695 -1.8245 -1.4351
  124OSM   H17G13280   5.949   3.474   8.674  0.1013 -0.1027  0.4764
  124OSM   C18F13281   6.066   3.294   8.683  0.3321  0.7111 -0.0623
  124OSM   H18F13282   6.159   3.348   8.711  1.1738 -2.1230  2.9876
  124OSM   H18G13283   6.092   3.202   8.627 -0.0297  0.9020 -0.5413
  124OSM   H18H13284   6.004   3.263   8.770  2.0631 -0.0046  0.9383
  125OSM      N13285   4.837   4.787   6.348  0.4163  0.2467 -0.8242
  125OSM    C1513286   4.917   4.883   6.270  0.1405 -0.0165 -0.1389
  125OSM   H15A13287   4.915   4.844   6.169 -2.2034 -1.3546  0.3792
  125OSM   H15B13288   5.021   4.892   6.295 -0.0829  0.0378  0.8007
  125OSM   H15C13289   4.863   4.977   6.271  1.4185  0.7388 -0.5725
  125OSM    C1413290   4.803   4.852   6.479  0.2943  0.3234  0.9847
  125OSM   H14A13291   4.729   4.929   6.461  0.9272  0.7134  0.0211
  125OSM   H14B13292   4.893   4.900   6.513  1.3383  1.1229 -2.7118
  125OSM   H14C13293   4.772   4.778   6.553  0.1327  0.5217  1.1178
  125OSM    C1313294   4.711   4.766   6.269  0.4910 -0.5449 -0.6465
  125OSM   H13A13295   4.662   4.862   6.260 -1.8678 -1.2653  3.1246
  125OSM   H13B13296   4.638   4.703   6.318 -0.0539 -0.4038 -1.2755
  125OSM   H13C13297   4.729   4.734   6.167  0.9979 -0.5645 -0.5493
  125OSM    C1213298   4.909   4.657   6.357  0.2522  0.7323  0.0832
  125OSM   H12A13299   4.938   4.632   6.256  0.6609 -1.9822  0.8356
  125OSM   H12B13300   4.844   4.573   6.375  0.6532 -0.1578 -2.4347
  125OSM    C1113301   5.033   4.634   6.443  0.0645  0.1503  0.2227
  125OSM   H11A13302   5.067   4.529   6.430 -0.5428 -0.4228  2.9479
  125OSM   H11B13303   5.008   4.657   6.549  1.1580  1.2974  0.2437
  125OSM      P13304   5.256   4.673   6.329 -0.1179 -0.8301 -0.4863
  125OSM    O1313305   5.221   4.554   6.251 -0.0242 -0.6075  0.4176
  125OSM    O1413306   5.309   4.791   6.254  0.3924 -0.9700 -0.1068
  125OSM    O1113307   5.359   4.631   6.443  0.5463  0.0658  0.5358
  125OSM    O1213308   5.133   4.732   6.409  0.2519 -0.6076  0.4952
  125OSM    C1S13309   5.386   4.719   6.556  0.4228  0.4369 -0.2363
  125OSM    H1S13310   5.323   4.810   6.569 -0.0445  0.3305 -1.6111
  125OSM    H1T13311   5.495   4.736   6.564  0.5161 -0.0352 -0.4779
  125OSM     NF13312   5.365   4.720   6.808  0.3900 -0.7230  0.1415
  125OSM    HNF13313   5.446   4.707   6.864  0.4917  2.4290  0.8088
  125OSM    C2S13314   5.353   4.643   6.690  0.1629  0.9108 -0.0093
  125OSM    H2S13315   5.245   4.618   6.684  0.4299 -0.3743  0.2414
  125OSM    C3S13316   5.440   4.507   6.695 -0.1669 -0.5668  0.0240
  125OSM    H3S13317   5.545   4.536   6.713 -0.8858  1.4218  1.2005
  125OSM     O313318   5.437   4.424   6.576 -0.3587 -0.2524  0.7807
  125OSM    HO313319   5.418   4.490   6.509 -1.5057 -0.5913  0.7696
  125OSM    C4S13320   5.396   4.421   6.811 -0.2558 -0.3662  0.3323
  125OSM    H4S13321   5.467   4.414   6.895 -0.8821  4.4160  1.4538
  125OSM    C5S13322   5.289   4.337   6.807 -0.7651  0.0444  0.0584
  125OSM    H5S13323   5.229   4.322   6.716 -0.4418 -0.6397 -0.0459
  125OSM    C6S13324   5.245   4.244   6.914 -0.3276 -0.5267 -0.1685
  125OSM    H6S13325   5.248   4.139   6.880  0.9115  0.0334 -1.8209
  125OSM    H6T13326   5.136   4.260   6.929 -0.0964  0.5405  0.4518
  125OSM    C7S13327   5.323   4.250   7.051  0.0150  0.3000 -0.2977
  125OSM    H7S13328   5.312   4.350   7.097  1.1536  0.2539  0.1043
  125OSM    H7T13329   5.431   4.224   7.041  0.2528  1.6130 -1.2859
  125OSM    C8S13330   5.261   4.156   7.155  0.1232 -0.1459 -0.2280
  125OSM    H8S13331   5.339   4.138   7.232 -1.1715 -1.1573  0.8596
  125OSM    H8T13332   5.244   4.057   7.109  0.5405 -0.1828 -0.3074
  125OSM    C9S13333   5.127   4.202   7.210  0.1327  0.1565 -0.0341
  125OSM    H9S13334   5.055   4.188   7.126  0.4643 -0.4930 -0.2153
  125OSM    H9T13335   5.130   4.309   7.241  2.2895 -0.4150  1.8472
  125OSM   C10S13336   5.079   4.120   7.332  0.1816 -0.1059 -0.2929
  125OSM   H10S13337   5.090   4.014   7.302 -1.1480  0.2717 -2.2151
  125OSM   H10T13338   4.969   4.135   7.344  0.4642  0.6129  1.5299
  125OSM   C11S13339   5.150   4.162   7.459  0.2257 -0.7245  0.2825
  125OSM   H11S13340   5.128   4.263   7.499 -0.3323 -0.5842 -0.3753
  125OSM   H11T13341   5.259   4.152   7.441  0.4105 -0.9882  1.4819
  125OSM   C12S13342   5.128   4.054   7.568  0.2077  0.2918  0.7545
  125OSM   H12S13343   5.150   3.955   7.522 -1.1687  0.9041 -1.3164
  125OSM   H12T13344   5.020   4.050   7.595  0.4138  1.6255  1.8544
  125OSM   C13S13345   5.211   4.075   7.695 -0.2923 -0.0002  0.5366
  125OSM   H13S13346   5.170   4.171   7.732  0.4566  0.1755  0.8996
  125OSM   H13T13347   5.319   4.076   7.668 -0.1447  2.1398  1.1442
  125OSM   C14S13348   5.198   3.955   7.793  0.2823 -0.0632  0.1587
  125OSM   H14S13349   5.249   3.872   7.740  0.8123  0.7517 -0.6269
  125OSM   H14T13350   5.090   3.932   7.801  0.2478  0.3311  0.8930
  125OSM   C15S13351   5.265   3.980   7.927 -0.5242  0.1819  0.5183
  125OSM   H15S13352   5.364   4.025   7.905 -0.7037  0.7829  0.9171
  125OSM   H15T13353   5.288   3.881   7.970 -0.0491  0.3684  0.6932
  125OSM   C16S13354   5.184   4.064   8.028  0.5805  0.7156  0.0025
  125OSM   H16S13355   5.091   4.017   8.065  0.7480  0.0509 -0.4037
  125OSM   H16T13356   5.152   4.163   7.988 -0.5838  1.6213  3.0240
  125OSM   C17S13357   5.271   4.091   8.151 -0.0855  0.4141 -0.2025
  125OSM   H17S13358   5.364   4.131   8.106  0.0534 -1.0130 -1.2368
  125OSM   H17T13359   5.290   3.989   8.192 -2.4677 -0.9099 -2.2370
  125OSM   C18S13360   5.211   4.192   8.241 -0.1437 -0.1974 -0.2479
  125OSM   H18S13361   5.188   4.287   8.189 -1.7823 -0.3910  0.0833
  125OSM   H18T13362   5.291   4.213   8.316  0.4167 -1.8673 -0.3554
  125OSM   H18U13363   5.126   4.162   8.305  2.3394 -2.1741  2.2161
  125OSM    C1F13364   5.292   4.832   6.825 -0.7743 -1.3465  1.0069
  125OSM     OF13365   5.203   4.864   6.746 -0.0706 -0.2314  1.0506
  125OSM    C2F13366   5.308   4.912   6.951  0.7781  0.2079 -0.0233
  125OSM    H2F13367   5.415   4.924   6.978  0.4918  0.1313  1.1696
  125OSM    H2G13368   5.281   4.847   7.037  1.4008  1.2498  0.9712
  125OSM    C3F13369   5.216   5.037   6.957  0.4622 -0.5980 -0.4336
  125OSM    H3F13370   5.114   4.997   6.939  0.1153 -1.0549  2.3539
  125OSM    H3G13371   5.237   5.102   6.869  1.4928  0.9009  0.8932
  125OSM    C4F13372   5.211   5.123   7.090  0.1388 -0.0425  0.1175
  125OSM    H4F13373   5.145   5.211   7.073  1.4289  0.6698 -1.2971
  125OSM    H4G13374   5.312   5.164   7.108 -0.3256  1.7920 -1.2420
  125OSM    C5F13375   5.155   5.047   7.210  0.4380  0.0459 -0.2105
  125OSM    H5F13376   5.217   4.959   7.238  1.3910  0.7265 -0.1640
  125OSM    H5G13377   5.054   5.011   7.184  0.6137  0.3500 -1.3485
  125OSM    C6F13378   5.149   5.127   7.344 -0.0772  0.7621 -0.1658
  125OSM    H6F13379   5.077   5.208   7.319  1.6084  2.2378 -0.4253
  125OSM    H6G13380   5.250   5.170   7.363 -0.0480  1.3438 -1.5845
  125OSM    C7F13381   5.087   5.050   7.458  0.2382  0.0326 -0.0537
  125OSM    H7F13382   5.162   4.972   7.484  0.2699  0.4952  1.2949
  125OSM    H7G13383   4.995   4.995   7.431 -0.4547  1.5592 -0.8535
  125OSM    C8F13384   5.061   5.134   7.584 -0.4149 -0.0120 -0.0734
  125OSM    H8F13385   4.993   5.217   7.555 -2.8973 -1.7318  0.7191
  125OSM    H8G13386   5.154   5.178   7.625 -0.3261 -1.7168  1.6239
  125OSM    C9F13387   4.991   5.055   7.688 -0.8061  0.3919  0.1184
  125OSM    H9F13388   4.883   5.040   7.675 -0.5355 -1.6216  0.1549
  125OSM   C10F13389   5.048   5.003   7.803 -0.2530  0.7132 -0.2142
  125OSM   H10F13390   4.976   4.975   7.882 -0.7962 -0.9238 -1.2611
  125OSM   C11F13391   5.190   5.010   7.852 -0.2101 -0.5914  0.4881
  125OSM   H11F13392   5.258   5.064   7.782  1.1266 -1.5377  1.0528
  125OSM   H11G13393   5.214   4.902   7.861  2.4463 -0.0890 -0.0871
  125OSM   C12F13394   5.201   5.064   8.000 -0.1368  0.5023 -0.1902
  125OSM   H12F13395   5.185   5.173   7.988 -4.0449 -0.1071 -1.5004
  125OSM   H12G13396   5.309   5.050   8.021  0.0828  0.7453 -1.1590
  125OSM   C13F13397   5.116   4.994   8.110  0.6164 -0.1348  1.2456
  125OSM   H13F13398   5.007   5.003   8.093  0.2606 -1.2340  2.8262
  125OSM   H13G13399   5.138   5.053   8.202  1.2318  1.5756  0.0244
  125OSM   C14F13400   5.159   4.853   8.147 -0.1223 -0.0456 -0.0103
  125OSM   H14F13401   5.268   4.836   8.155 -0.5625 -2.2589  1.7015
  125OSM   H14G13402   5.136   4.771   8.075 -2.0934  0.9467 -0.5414
  125OSM   C15F13403   5.094   4.822   8.287 -0.2018  0.7104  0.2485
  125OSM   H15F13404   4.983   4.819   8.281 -0.2046 -1.6861  0.9844
  125OSM   H15G13405   5.113   4.902   8.361 -2.1303  1.1069  0.3553
  125OSM   C16F13406   5.143   4.682   8.335  0.2958  0.8378  0.0571
  125OSM   H16F13407   5.252   4.703   8.348  0.0636  2.4575 -0.5469
  125OSM   H16G13408   5.125   4.603   8.259 -0.6922  1.1824 -0.0617
  125OSM   C17F13409   5.068   4.640   8.468  0.1593  0.1357 -0.8753
  125OSM   H17F13410   4.961   4.618   8.450 -0.5253  3.1125 -0.6761
  125OSM   H17G13411   5.080   4.724   8.540 -1.5437  0.4969 -1.0139
  125OSM   C18F13412   5.123   4.505   8.528 -0.3398 -0.6632  0.3738
  125OSM   H18F13413   5.052   4.473   8.607  0.2589  0.6841  1.4786
  125OSM   H18G13414   5.224   4.518   8.571  0.7698 -0.5226 -2.1592
  125OSM   H18H13415   5.123   4.433   8.443  0.8395 -1.2116  0.8354
  126OSM      N13416   2.488   4.207   6.380  0.0309 -0.2349 -0.0910
  126OSM    C1513417   2.425   4.154   6.256 -0.3067 -0.5317  0.2979
  126OSM   H15A13418   2.385   4.242   6.207 -0.4924 -0.4370  0.6226
  126OSM   H15B13419   2.343   4.088   6.275 -0.3127 -0.6325 -0.0604
  126OSM   H15C13420   2.498   4.110   6.188  1.2677  1.6173  0.5328
  126OSM    C1413421   2.586   4.315   6.345  0.5607  0.8852  0.1780
  126OSM   H14A13422   2.544   4.384   6.273 -1.1214  1.0961  1.3418
  126OSM   H14B13423   2.681   4.288   6.301  0.2812  1.0303 -0.5210
  126OSM   H14C13424   2.616   4.377   6.428  1.9407 -0.8937  1.0426
  126OSM    C1313425   2.376   4.272   6.460  0.4562  0.0701 -0.7094
  126OSM   H13A13426   2.327   4.351   6.404  3.2139  2.9537  0.7765
  126OSM   H13B13427   2.413   4.322   6.548 -1.2715  1.6678 -0.8577
  126OSM   H13C13428   2.304   4.197   6.489  1.5401 -0.5589  0.3617
  126OSM    C1213429   2.551   4.100   6.462  0.6548 -0.0809  0.5938
  126OSM   H12A13430   2.628   4.049   6.406  1.2979 -0.2492  1.6168
  126OSM   H12B13431   2.473   4.033   6.494 -0.3983  1.1074  0.5631
  126OSM    C1113432   2.615   4.144   6.599 -0.1550 -0.1028  0.2794
  126OSM   H11A13433   2.650   4.060   6.661  0.4984  0.6340  0.9256
  126OSM   H11B13434   2.533   4.197   6.652 -1.0571 -1.3026  0.0890
  126OSM      P13435   2.871   4.184   6.581 -0.3398  0.3220 -0.0039
  126OSM    O1313436   2.891   4.061   6.497  0.2120 -0.3261  0.3060
  126OSM    O1413437   2.965   4.301   6.554 -0.2737  0.2204  0.6962
  126OSM    O1113438   2.871   4.141   6.731 -0.2429 -0.3151  0.5872
  126OSM    O1213439   2.720   4.247   6.582 -0.3835  0.1402 -0.1942
  126OSM    C1S13440   2.881   4.248   6.825 -0.3286 -1.2988 -0.0636
  126OSM    H1S13441   2.806   4.330   6.815  0.2657 -0.7155  0.2920
  126OSM    H1T13442   2.976   4.303   6.811 -1.4986  0.6367 -0.5057
  126OSM     NF13443   2.834   4.308   7.057  0.1815 -0.1260 -1.0379
  126OSM    HNF13444   2.917   4.329   7.109  0.3170  2.3849 -2.1939
  126OSM    C2S13445   2.861   4.199   6.968  0.1634 -0.5540  1.0226
  126OSM    H2S13446   2.779   4.124   6.970 -0.2560 -0.2021 -1.3057
  126OSM    C3S13447   2.995   4.127   7.015  1.0414 -0.1587 -0.4935
  126OSM    H3S13448   3.071   4.207   7.004 -1.0978  1.8486 -1.3248
  126OSM     O313449   3.037   4.037   6.920 -0.2018  0.0337 -0.4975
  126OSM    HO313450   2.979   4.062   6.848  0.0396 -0.0796 -0.7319
  126OSM    C4S13451   2.984   4.066   7.154 -0.1805 -0.9219 -0.9081
  126OSM    H4S13452   2.995   4.132   7.241  3.6406 -0.2880 -1.8123
  126OSM    C5S13453   2.943   3.944   7.181 -0.3005 -0.0965  0.5131
  126OSM    H5S13454   2.911   3.881   7.097 -0.4304  1.6446 -0.7683
  126OSM    C6S13455   2.925   3.885   7.318 -0.4955 -0.1342  0.2900
  126OSM    H6S13456   3.003   3.808   7.337 -0.0431  0.6178  1.5781
  126OSM    H6T13457   2.836   3.819   7.329 -1.9835  1.8719  0.7152
  126OSM    C7S13458   2.926   3.987   7.437 -0.2613 -0.3451  0.1705
  126OSM    H7S13459   2.859   4.075   7.423 -0.4081 -0.6833 -1.3473
  126OSM    H7T13460   3.023   4.036   7.458 -0.3127  0.2783 -1.0015
  126OSM    C8S13461   2.884   3.919   7.568 -0.0839 -0.2208  0.3741
  126OSM    H8S13462   2.967   3.851   7.594  1.4970  1.2206 -0.7970
  126OSM    H8T13463   2.791   3.859   7.559  0.4353 -0.9656 -0.0564
  126OSM    C9S13464   2.890   4.013   7.701 -0.4479 -0.4315 -0.6361
  126OSM    H9S13465   2.997   4.039   7.708 -0.5957  0.2107 -0.7715
  126OSM    H9T13466   2.859   3.946   7.784 -4.3011  2.6345  0.5825
  126OSM   C10S13467   2.798   4.132   7.695 -0.6187 -0.0663  0.9865
  126OSM   H10S13468   2.691   4.107   7.678 -0.1472 -0.4756 -1.4772
  126OSM   H10T13469   2.839   4.212   7.629 -2.6818 -0.3707 -0.7238
  126OSM   C11S13470   2.797   4.205   7.829 -0.8185  0.2655 -0.8643
  126OSM   H11S13471   2.897   4.252   7.842 -1.6612  1.2272  2.6570
  126OSM   H11T13472   2.780   4.124   7.903  0.7682 -1.0450 -1.8819
  126OSM   C12S13473   2.684   4.309   7.837 -0.1677  0.5548  0.5523
  126OSM   H12S13474   2.695   4.387   7.759  1.5574 -0.2264 -0.0001
  126OSM   H12T13475   2.699   4.357   7.937  1.2631  0.0262  0.5891
  126OSM   C13S13476   2.541   4.256   7.830  0.4958  0.1697 -0.0007
  126OSM   H13S13477   2.540   4.163   7.890  1.3862  0.2208  0.1085
  126OSM   H13T13478   2.504   4.232   7.728  1.0428 -2.3740  0.3836
  126OSM   C14S13479   2.435   4.337   7.908 -0.0207  0.6569 -0.2379
  126OSM   H14S13480   2.333   4.320   7.868 -0.3281 -1.1464  1.2404
  126OSM   H14T13481   2.473   4.440   7.887  0.0035  0.8408  0.6908
  126OSM   C15S13482   2.422   4.308   8.064  0.1602 -0.9367 -0.7651
  126OSM   H15S13483   2.491   4.376   8.118 -1.0750 -2.1390  2.4614
  126OSM   H15T13484   2.464   4.207   8.081 -0.4451 -0.8505  1.3447
  126OSM   C16S13485   2.291   4.298   8.130  0.2057 -0.8109 -0.3905
  126OSM   H16S13486   2.244   4.199   8.114 -2.5047 -0.0193  2.1627
  126OSM   H16T13487   2.225   4.370   8.077  0.0138 -0.4179  0.3785
  126OSM   C17S13488   2.293   4.330   8.277  0.5822  0.1283 -0.1005
  126OSM   H17S13489   2.187   4.321   8.308  0.0813  2.9497 -0.8122
  126OSM   H17T13490   2.338   4.431   8.286 -0.8559  0.4917  3.9630
  126OSM   C18S13491   2.372   4.232   8.373  0.2695  0.0368 -0.1591
  126OSM   H18S13492   2.478   4.206   8.349 -0.1342 -1.0462 -0.8036
  126OSM   H18T13493   2.317   4.136   8.370 -0.7810  0.6218  0.1430
  126OSM   H18U13494   2.357   4.277   8.473  0.4198 -2.2821  0.9394
  126OSM    C1F13495   2.719   4.375   7.061  0.1570 -0.2155  0.3389
  126OSM     OF13496   2.628   4.346   6.986  0.6199 -0.2675  0.0551
  126OSM    C2F13497   2.700   4.495   7.149 -0.1369 -0.4787  0.1306
  126OSM    H2F13498   2.635   4.574   7.107  0.5834  0.0202 -0.0474
  126OSM    H2G13499   2.799   4.544   7.155 -0.7358  0.9078 -1.2078
  126OSM    C3F13500   2.654   4.440   7.283  1.1805  0.0809 -0.7279
  126OSM    H3F13501   2.727   4.368   7.327  1.9076  0.8225 -0.7029
  126OSM    H3G13502   2.557   4.386   7.274  1.3059  0.0269 -1.7284
  126OSM    C4F13503   2.639   4.539   7.404 -0.1396 -0.2843  0.3382
  126OSM    H4F13504   2.576   4.619   7.360 -0.7131 -1.3124 -0.7454
  126OSM    H4G13505   2.741   4.571   7.434  0.0672 -1.1822  0.6170
  126OSM    C5F13506   2.546   4.474   7.507 -0.4257 -0.1526 -0.9611
  126OSM    H5F13507   2.593   4.387   7.557 -0.8984  0.8935  1.3976
  126OSM    H5G13508   2.450   4.435   7.467  0.0304 -1.6454 -0.6241
  126OSM    C6F13509   2.519   4.577   7.625  0.5686  0.3114  0.1909
  126OSM    H6F13510   2.615   4.606   7.671  1.6475 -2.4684 -0.1893
  126OSM    H6G13511   2.458   4.524   7.702  1.0652  0.7650  0.8976
  126OSM    C7F13512   2.432   4.689   7.579  0.1108  0.0711 -0.0724
  126OSM    H7F13513   2.345   4.654   7.519  0.0461  1.2293 -0.6607
  126OSM    H7G13514   2.493   4.755   7.514  0.0438 -0.2402 -0.4551
  126OSM    C8F13515   2.371   4.758   7.704 -0.0434  0.2524  0.1338
  126OSM    H8F13516   2.317   4.678   7.760  1.0274 -1.5163 -1.2943
  126OSM    H8G13517   2.299   4.835   7.670  1.5844  0.7421 -2.3035
  126OSM    C9F13518   2.481   4.822   7.789 -0.5542  0.1151 -0.6805
  126OSM    H9F13519   2.559   4.876   7.732  2.7096 -1.7281  1.8888
  126OSM   C10F13520   2.498   4.819   7.924 -0.0962 -0.5328  0.0812
  126OSM   H10F13521   2.586   4.865   7.972 -0.5400  0.4425 -0.0296
  126OSM   C11F13522   2.411   4.741   8.023 -0.1164 -0.2674  0.2654
  126OSM   H11F13523   2.364   4.650   7.981  1.2205 -0.8273 -0.0479
  126OSM   H11G13524   2.333   4.813   8.054 -1.2026 -1.2873 -0.0627
  126OSM   C12F13525   2.475   4.695   8.155 -0.2682  0.5094 -0.4625
  126OSM   H12F13526   2.540   4.605   8.147  0.0751  0.7502 -0.3747
  126OSM   H12G13527   2.391   4.653   8.215 -0.8467  1.7029 -0.4201
  126OSM   C13F13528   2.528   4.815   8.230 -0.3088  0.1583  0.2696
  126OSM   H13F13529   2.512   4.907   8.169  1.0123  1.0436  1.2183
  126OSM   H13G13530   2.637   4.802   8.247  0.0522  0.8402 -1.3955
  126OSM   C14F13531   2.459   4.837   8.358  0.3369 -0.0244  0.4900
  126OSM   H14F13532   2.463   4.746   8.420 -0.9497 -0.1010  0.4670
  126OSM   H14G13533   2.351   4.852   8.340  0.8399  0.4399 -2.3838
  126OSM   C15F13534   2.509   4.956   8.444  0.3349  1.1239  0.4643
  126OSM   H15F13535   2.477   5.042   8.381  1.3575  1.1412 -0.0434
  126OSM   H15G13536   2.617   4.977   8.451  0.5693 -0.1265  0.7488
  126OSM   C16F13537   2.435   4.964   8.571  0.3356 -0.5679  0.4569
  126OSM   H16F13538   2.342   4.905   8.559 -0.9905  1.7658 -1.1562
  126OSM   H16G13539   2.405   5.070   8.580 -2.4466 -1.0996 -1.7583
  126OSM   C17F13540   2.514   4.912   8.684 -1.1161  0.5180 -0.1786
  126OSM   H17F13541   2.604   4.972   8.711  1.1292 -3.2280  1.0485
  126OSM   H17G13542   2.565   4.817   8.656  2.9766  2.5862 -0.1525
  126OSM   C18F13543   2.432   4.878   8.801  0.0180 -0.3909  0.5378
  126OSM   H18F13544   2.483   4.830   8.887  1.8707 -0.1307 -0.3888
  126OSM   H18G13545   2.346   4.811   8.780 -1.6541  1.9200 -0.1526
  126OSM   H18H13546   2.385   4.968   8.845 -3.3414 -1.3686 -0.8848
  127OSM      N13547   4.414   2.319   6.120 -0.3193  0.1826  0.1045
  127OSM    C1513548   4.307   2.223   6.071 -0.0425 -0.0281 -0.3957
  127OSM   H15A13549   4.207   2.249   6.101  0.2044  0.0115  0.4171
  127OSM   H15B13550   4.342   2.123   6.093 -0.1902 -0.2771 -1.2581
  127OSM   H15C13551   4.299   2.233   5.964  0.8644 -1.1928 -0.5837
  127OSM    C1413552   4.442   2.286   6.263  0.0989  0.0390 -0.3179
  127OSM   H14A13553   4.347   2.274   6.313  2.0349 -0.3120  3.4893
  127OSM   H14B13554   4.497   2.365   6.313 -1.4001  1.7053 -1.2543
  127OSM   H14C13555   4.500   2.195   6.269 -0.2302 -0.0918  1.0886
  127OSM    C1313556   4.534   2.305   6.030 -0.0464  0.5187  0.6675
  127OSM   H13A13557   4.513   2.322   5.925 -1.6148 -0.6901  0.7660
  127OSM   H13B13558   4.595   2.216   6.036  0.4105  0.8582  0.9884
  127OSM   H13C13559   4.600   2.386   6.057 -0.1580  0.6326  0.6012
  127OSM    C1213560   4.360   2.457   6.091 -0.5434 -0.5458 -0.0703
  127OSM   H12A13561   4.254   2.454   6.113 -0.1250 -0.0993  2.0794
  127OSM   H12B13562   4.367   2.469   5.984 -1.5247  1.5193  0.0741
  127OSM    C1113563   4.412   2.579   6.159 -0.2965 -0.4395 -0.0543
  127OSM   H11A13564   4.390   2.589   6.267 -0.3319 -1.7904  0.0665
  127OSM   H11B13565   4.357   2.668   6.122  0.7810 -0.2442 -1.2413
  127OSM      P13566   4.655   2.619   6.252  0.3251  0.9623  0.4037
  127OSM    O1313567   4.792   2.584   6.213  0.6331  0.0861  0.1411
  127OSM    O1413568   4.627   2.754   6.300 -0.4632  0.4051  0.5880
  127OSM    O1113569   4.602   2.513   6.357  0.1001 -0.1195 -0.1484
  127OSM    O1213570   4.556   2.597   6.130  0.5488  0.5184 -0.2888
  127OSM    C1S13571   4.566   2.556   6.495 -0.4027 -0.1861 -0.0552
  127OSM    H1S13572   4.462   2.593   6.497 -0.1673  0.4590  0.7393
  127OSM    H1T13573   4.636   2.629   6.541 -0.9246 -1.5844  3.0767
  127OSM     NF13574   4.597   2.497   6.734 -0.3066 -0.1311  0.5149
  127OSM    HNF13575   4.683   2.487   6.783  0.9054 -1.5786 -1.8341
  127OSM    C2S13576   4.585   2.441   6.598 -0.3244  0.3702 -0.1620
  127OSM    H2S13577   4.495   2.376   6.591  0.2397 -0.2179 -2.5712
  127OSM    C3S13578   4.709   2.356   6.565  0.0756  0.8866  0.4344
  127OSM    H3S13579   4.795   2.427   6.567  0.3393  0.6987 -2.2585
  127OSM     O313580   4.701   2.305   6.430 -0.1060  0.2912 -0.4011
  127OSM    HO313581   4.654   2.368   6.375 -1.3216 -0.4095 -0.1624
  127OSM    C4S13582   4.728   2.233   6.649  0.7817 -0.3026  0.3237
  127OSM    H4S13583   4.637   2.173   6.667  0.5920 -0.3866 -0.8776
  127OSM    C5S13584   4.841   2.202   6.706  0.0742  0.8544  0.1488
  127OSM    H5S13585   4.934   2.259   6.690  0.0302  1.4765  1.9985
  127OSM    C6S13586   4.868   2.078   6.793 -0.1652 -0.4496  0.2927
  127OSM    H6S13587   4.927   2.009   6.728  1.3447  1.8007 -0.8123
  127OSM    H6T13588   4.774   2.029   6.826  0.3035 -0.2409  1.9503
  127OSM    C7S13589   4.949   2.123   6.916 -0.9829  0.2660 -0.1840
  127OSM    H7S13590   4.874   2.172   6.982 -0.0473 -0.2372  1.2695
  127OSM    H7T13591   5.027   2.194   6.883 -1.3917  1.6137  1.6988
  127OSM    C8S13592   5.019   2.016   6.995  0.0283 -0.4865 -0.0277
  127OSM    H8S13593   5.072   1.963   6.913  2.6232 -0.0440  1.2973
  127OSM    H8T13594   4.944   1.952   7.047  2.3811 -0.4917  3.5650
  127OSM    C9S13595   5.104   2.070   7.107 -0.3601  0.5177 -1.1083
  127OSM    H9S13596   5.059   2.161   7.151  2.3723  0.8182  1.1807
  127OSM    H9T13597   5.202   2.088   7.059 -0.1663  0.8454 -0.5833
  127OSM   C10S13598   5.130   1.968   7.226  0.4782 -0.8429 -0.0481
  127OSM   H10S13599   5.201   1.896   7.180  1.7281  0.3966 -0.0983
  127OSM   H10T13600   5.040   1.912   7.259 -0.1998  0.1949 -0.1078
  127OSM   C11S13601   5.204   2.029   7.341 -0.6333  0.2236 -0.3077
  127OSM   H11S13602   5.132   2.076   7.411  0.8455 -1.6863  2.5599
  127OSM   H11T13603   5.279   2.105   7.313  0.1101 -0.7758 -1.0640
  127OSM   C12S13604   5.290   1.924   7.422 -0.0670  0.1511  0.9124
  127OSM   H12S13605   5.386   1.890   7.377 -1.0291  1.8361 -2.5953
  127OSM   H12T13606   5.221   1.838   7.433 -0.2891  0.2081  0.0015
  127OSM   C13S13607   5.338   1.962   7.565  0.4332  0.1490 -0.1437
  127OSM   H13S13608   5.252   2.005   7.621  1.5778  0.8157  1.1409
  127OSM   H13T13609   5.425   2.030   7.557  0.7614 -0.1469  0.8794
  127OSM   C14S13610   5.383   1.841   7.644 -0.6044  0.8034  0.1960
  127OSM   H14S13611   5.468   1.786   7.598 -0.6307  1.5410 -0.7461
  127OSM   H14T13612   5.308   1.758   7.651  1.4384 -1.0117  1.3743
  127OSM   C15S13613   5.411   1.875   7.798 -0.0578  0.3249  0.0116
  127OSM   H15S13614   5.332   1.943   7.838  1.1434  1.0740  1.1541
  127OSM   H15T13615   5.510   1.925   7.801 -0.6502  1.7536 -2.6437
  127OSM   C16S13616   5.412   1.751   7.878  0.4456  1.0519 -0.1164
  127OSM   H16S13617   5.476   1.669   7.838 -2.7462 -1.7480  0.2612
  127OSM   H16T13618   5.313   1.704   7.893  0.9338  0.5802  1.8588
  127OSM   C17S13619   5.467   1.788   8.019  0.3110  0.2527  0.6509
  127OSM   H17S13620   5.400   1.867   8.060 -0.6284 -0.4069  0.3992
  127OSM   H17T13621   5.567   1.832   8.002  0.7746 -1.1554 -0.3329
  127OSM   C18S13622   5.488   1.668   8.111  0.2656 -0.1856  0.0747
  127OSM   H18S13623   5.408   1.595   8.136 -0.9601  1.3476  0.7475
  127OSM   H18T13624   5.514   1.706   8.212 -1.9007 -0.7952  0.8826
  127OSM   H18U13625   5.580   1.622   8.069  0.7402  1.4226 -0.6846
  127OSM    C1F13626   4.496   2.540   6.803  0.6515 -0.5527  0.6403
  127OSM     OF13627   4.387   2.559   6.753  0.0096 -0.4113 -0.1855
  127OSM    C2F13628   4.531   2.582   6.946  0.0315 -0.2995 -0.3719
  127OSM    H2F13629   4.634   2.620   6.964 -1.2491  2.6628  1.0530
  127OSM    H2G13630   4.524   2.490   7.008  1.4308 -0.1234  0.0743
  127OSM    C3F13631   4.439   2.695   7.013 -0.4270  0.0286 -0.1807
  127OSM    H3F13632   4.330   2.677   7.019 -0.1933 -0.9685  1.5087
  127OSM    H3G13633   4.456   2.789   6.956 -1.4877  0.1136 -0.3567
  127OSM    C4F13634   4.490   2.720   7.157 -0.1841  0.4908 -0.5862
  127OSM    H4F13635   4.521   2.621   7.197 -1.1036 -0.0106 -1.1052
  127OSM    H4G13636   4.416   2.756   7.233  1.6076 -1.1289  2.0351
  127OSM    C5F13637   4.609   2.820   7.150  0.0932  0.5799  0.5589
  127OSM    H5F13638   4.584   2.914   7.096 -3.0721 -0.0368  0.8758
  127OSM    H5G13639   4.695   2.776   7.095  0.4201  1.6749  0.1836
  127OSM    C6F13640   4.674   2.854   7.282 -0.6695 -0.5532  1.2160
  127OSM    H6F13641   4.597   2.904   7.345 -0.8380 -0.9971  1.3638
  127OSM    H6G13642   4.756   2.928   7.262 -1.2515 -0.3356 -0.3869
  127OSM    C7F13643   4.727   2.739   7.373 -0.0533  0.0727  0.1677
  127OSM    H7F13644   4.803   2.673   7.325  1.2393 -1.6049  4.2164
  127OSM    H7G13645   4.652   2.657   7.379  0.4955 -0.3310  1.9661
  127OSM    C8F13646   4.782   2.794   7.503  0.1062 -0.8042 -0.3224
  127OSM    H8F13647   4.790   2.711   7.576 -2.7732 -0.9934 -0.1942
  127OSM    H8G13648   4.706   2.865   7.541  1.7651 -0.0293  1.6360
  127OSM    C9F13649   4.913   2.867   7.476 -0.0143 -0.5726  0.3380
  127OSM    H9F13650   4.917   2.927   7.384  1.0184 -0.9360  0.1309
  127OSM   C10F13651   5.037   2.854   7.542 -0.2490 -0.5517  0.3486
  127OSM   H10F13652   5.121   2.916   7.509 -0.3148 -0.7092 -0.1114
  127OSM   C11F13653   5.059   2.773   7.665  0.4147 -0.2172 -0.0926
  127OSM   H11F13654   5.139   2.697   7.651  3.3480  2.8639 -0.6478
  127OSM   H11G13655   4.966   2.723   7.699  1.1725 -0.5383  1.5497
  127OSM   C12F13656   5.113   2.864   7.781 -0.7311  0.4611 -0.1847
  127OSM   H12F13657   5.047   2.954   7.787  0.1127  1.1472 -0.9950
  127OSM   H12G13658   5.215   2.895   7.750  0.1118 -1.8250  0.2142
  127OSM   C13F13659   5.112   2.783   7.905 -0.5192 -0.0225 -0.3666
  127OSM   H13F13660   5.167   2.688   7.884  0.6448  1.0304 -2.1616
  127OSM   H13G13661   5.011   2.755   7.942 -0.5894  0.0162 -0.5291
  127OSM   C14F13662   5.197   2.859   8.004  0.0503  0.5602 -0.2529
  127OSM   H14F13663   5.162   2.963   8.016  1.4265  0.7949  2.1610
  127OSM   H14G13664   5.305   2.852   7.979  0.8005  1.9166  2.3974
  127OSM   C15F13665   5.210   2.792   8.142 -0.7027 -0.3838  0.6115
  127OSM   H15F13666   5.251   2.690   8.130 -0.9853 -0.9472  4.0049
  127OSM   H15G13667   5.111   2.779   8.190 -1.3313  1.0206 -0.2757
  127OSM   C16F13668   5.305   2.863   8.250 -0.2887  0.1379  0.0337
  127OSM   H16F13669   5.258   2.963   8.267  0.4525 -0.0720  3.7683
  127OSM   H16G13670   5.402   2.892   8.205  1.0226 -0.6860  2.2699
  127OSM   C17F13671   5.334   2.791   8.380 -0.0531  0.3908 -0.0781
  127OSM   H17F13672   5.402   2.703   8.375  0.3706  0.5972  1.7047
  127OSM   H17G13673   5.235   2.746   8.403 -0.6430 -0.3223 -3.7242
  127OSM   C18F13674   5.391   2.892   8.487  0.0778 -0.7680  0.4832
  127OSM   H18F13675   5.502   2.891   8.478  0.1418  0.9139  0.8795
  127OSM   H18G13676   5.366   2.862   8.591  1.8741  1.5740  1.6358
  127OSM   H18H13677   5.349   2.991   8.458 -1.0735 -2.0936 -2.6169
  128OSM      N13678   5.774   5.514   6.125  0.2722 -0.3099 -0.1439
  128OSM    C1513679   5.658   5.499   6.220  0.1492 -0.2934 -0.2591
  128OSM   H15A13680   5.607   5.591   6.246  2.0187  0.4038  1.0646
  128OSM   H15B13681   5.682   5.465   6.319  0.3312  0.6814  0.0460
  128OSM   H15C13682   5.577   5.436   6.187 -0.2589 -0.8214  1.7315
  128OSM    C1413683   5.830   5.382   6.081  0.2946 -0.4165 -0.1263
  128OSM   H14A13684   5.910   5.390   6.009  0.1757  3.0304  0.0503
  128OSM   H14B13685   5.748   5.328   6.034  0.1843  1.2363 -1.9193
  128OSM   H14C13686   5.877   5.333   6.165  1.0533 -0.7098 -0.7202
  128OSM    C1313687   5.719   5.577   5.986  0.1392  1.1638  0.5042
  128OSM   H13A13688   5.664   5.665   6.013 -0.9027  0.7402 -0.1810
  128OSM   H13B13689   5.651   5.500   5.950  0.8614  0.8094 -0.1228
  128OSM   H13C13690   5.804   5.595   5.922 -0.6449  0.6686 -0.6949
  128OSM    C1213691   5.873   5.612   6.176 -0.6063  0.4741 -0.2206
  128OSM   H12A13692   5.823   5.707   6.189 -0.5741  0.2081  1.9516
  128OSM   H12B13693   5.947   5.630   6.100 -0.0430  3.7728  1.0043
  128OSM    C1113694   5.949   5.578   6.315  0.5347 -0.5800 -0.0490
  128OSM   H11A13695   5.879   5.553   6.398  0.1956 -0.6101 -0.3386
  128OSM   H11B13696   6.002   5.672   6.337  0.8733 -0.4493 -1.4018
  128OSM      P13697   6.178   5.485   6.229 -0.2037 -0.0568  0.0829
  128OSM    O1313698   6.226   5.359   6.181 -0.6502 -0.1911 -0.2586
  128OSM    O1413699   6.183   5.591   6.129 -0.3817 -0.1431 -0.2710
  128OSM    O1113700   6.256   5.527   6.360 -0.4333  0.5162 -0.3882
  128OSM    O1213701   6.030   5.464   6.286  0.0276  0.0240 -0.5174
  128OSM    C1S13702   6.238   5.451   6.477 -0.6216  0.9975 -0.6891
  128OSM    H1S13703   6.284   5.350   6.471 -0.5930  0.9414  0.2954
  128OSM    H1T13704   6.130   5.435   6.499 -0.5999 -2.4418 -2.8026
  128OSM     NF13705   6.262   5.440   6.724  0.0350 -0.4379 -0.4276
  128OSM    HNF13706   6.191   5.469   6.788  0.4491  0.3483 -0.3168
  128OSM    C2S13707   6.280   5.524   6.611  0.1572  0.3858  0.4296
  128OSM    H2S13708   6.388   5.548   6.605 -0.2134  1.6102 -1.8555
  128OSM    C3S13709   6.202   5.662   6.629  0.1305  0.6232 -0.4132
  128OSM    H3S13710   6.097   5.632   6.653  0.1383  0.8407 -0.1094
  128OSM     O313711   6.176   5.740   6.510 -0.1566 -0.2585 -0.1272
  128OSM    HO313712   6.218   5.687   6.442  0.1660  3.4584 -2.9823
  128OSM    C4S13713   6.273   5.735   6.734  0.0573 -0.1530  0.2683
  128OSM    H4S13714   6.246   5.704   6.836 -0.3194 -3.1649 -0.7024
  128OSM    C5S13715   6.372   5.825   6.724 -0.6298  0.5938  0.0526
  128OSM    H5S13716   6.407   5.861   6.626 -0.1328 -1.3377 -0.4846
  128OSM    C6S13717   6.448   5.896   6.838 -0.3439 -0.2663 -0.2184
  128OSM    H6S13718   6.461   6.005   6.821  2.4102 -0.7493 -1.5473
  128OSM    H6T13719   6.550   5.853   6.843 -0.9148 -1.4888  1.0969
  128OSM    C7S13720   6.391   5.874   6.975 -0.0110  0.3456 -0.9968
  128OSM    H7S13721   6.382   5.766   7.001  1.2265 -0.2906 -3.0538
  128OSM    H7T13722   6.284   5.905   6.981  0.0034  0.9888 -3.4979
  128OSM    C8S13723   6.484   5.931   7.082 -0.2798 -0.7441 -0.5393
  128OSM    H8S13724   6.506   6.038   7.064  0.0238 -0.6944  0.1173
  128OSM    H8T13725   6.578   5.873   7.072  1.5288  1.5207  2.6330
  128OSM    C9S13726   6.425   5.910   7.219  0.0515  0.3816 -0.3042
  128OSM    H9S13727   6.398   5.804   7.240 -0.6576  0.4178 -1.0135
  128OSM    H9T13728   6.331   5.969   7.226  0.1932  0.2334  3.6865
  128OSM   C10S13729   6.510   5.968   7.333  0.8478  0.4237  0.0484
  128OSM   H10S13730   6.510   6.079   7.323 -0.4070  0.3230 -1.1956
  128OSM   H10T13731   6.611   5.923   7.337 -0.5280 -2.7726 -0.1639
  128OSM   C11S13732   6.452   5.944   7.472  0.0364 -0.4856 -0.1085
  128OSM   H11S13733   6.464   5.837   7.499  0.4782 -0.2254  0.7393
  128OSM   H11T13734   6.343   5.965   7.468  0.5752  2.6492  0.9187
  128OSM   C12S13735   6.537   6.016   7.579 -0.6499  0.4471 -0.3131
  128OSM   H12S13736   6.534   6.124   7.552 -1.8581  0.3389 -0.6764
  128OSM   H12T13737   6.640   5.976   7.572 -1.3673 -1.3230 -1.0538
  128OSM   C13S13738   6.473   5.994   7.719  0.8375  0.2247 -0.5472
  128OSM   H13S13739   6.489   5.887   7.741 -0.8817  0.1150  0.2329
  128OSM   H13T13740   6.364   6.014   7.721  0.4122 -2.1438  1.7947
  128OSM   C14S13741   6.539   6.074   7.832 -0.2110  0.2979 -0.2549
  128OSM   H14S13742   6.502   6.178   7.845 -2.1341 -0.6440  2.3200
  128OSM   H14T13743   6.649   6.074   7.824 -0.1777 -0.4772  0.1496
  128OSM   C15S13744   6.495   6.013   7.965 -1.1956  0.6425 -1.1255
  128OSM   H15S13745   6.514   5.903   7.969  2.1679  1.0872 -2.7794
  128OSM   H15T13746   6.387   6.029   7.981 -1.0863  0.7020 -0.4049
  128OSM   C16S13747   6.566   6.083   8.090  0.7621 -0.0570 -0.2001
  128OSM   H16S13748   6.560   6.194   8.090  3.6644  0.1969  3.9919
  128OSM   H16T13749   6.673   6.055   8.089  0.7544 -0.2163  1.4481
  128OSM   C17S13750   6.504   6.045   8.222 -0.4013 -0.8084  0.0228
  128OSM   H17S13751   6.477   5.939   8.238  1.9926 -1.4669 -0.1544
  128OSM   H17T13752   6.420   6.114   8.245  2.2857  3.0820 -1.1675
  128OSM   C18S13753   6.600   6.069   8.332  0.0347 -0.6773 -0.2775
  128OSM   H18S13754   6.557   6.075   8.435 -1.1565 -0.0014 -0.8017
  128OSM   H18T13755   6.647   6.169   8.322 -0.5611 -0.5488 -1.9058
  128OSM   H18U13756   6.682   5.995   8.332  0.0119 -0.7159  1.2405
  128OSM    C1F13757   6.342   5.330   6.742 -0.0653  0.5408  0.1698
  128OSM     OF13758   6.454   5.326   6.691  0.2334 -0.0274 -0.2603
  128OSM    C2F13759   6.291   5.216   6.823 -0.6510  0.2639 -0.5032
  128OSM    H2F13760   6.372   5.156   6.870 -1.5667  0.8304  1.9166
  128OSM    H2G13761   6.228   5.143   6.768 -2.7498 -0.3010  2.4991
  128OSM    C3F13762   6.210   5.254   6.946 -0.0481 -0.0818  0.3248
  128OSM    H3F13763   6.124   5.311   6.903 -0.4589 -0.1603  1.0340
  128OSM    H3G13764   6.267   5.323   7.011  0.6055 -0.5083  0.2031
  128OSM    C4F13765   6.163   5.123   7.015  0.3538 -0.2500  0.5418
  128OSM    H4F13766   6.244   5.049   7.024 -0.0646 -0.7194  0.4743
  128OSM    H4G13767   6.083   5.077   6.953 -0.9165  0.7863  1.3870
  128OSM    C5F13768   6.096   5.159   7.154  0.0753  1.0350 -0.3151
  128OSM    H5F13769   6.028   5.074   7.176 -1.6606  2.8112  1.3340
  128OSM    H5G13770   6.032   5.249   7.159 -1.0225  0.3737 -1.9979
  128OSM    C6F13771   6.211   5.176   7.253  0.0301  0.3198 -0.0815
  128OSM    H6F13772   6.257   5.274   7.232 -0.3802  0.5948  0.2870
  128OSM    H6G13773   6.287   5.099   7.229  0.6995  1.3990 -1.4948
  128OSM    C7F13774   6.147   5.190   7.388 -0.3039  0.0437  0.2583
  128OSM    H7F13775   6.069   5.112   7.400 -2.3423  1.8406 -0.8164
  128OSM    H7G13776   6.083   5.281   7.382 -2.5679 -1.4988 -0.0076
  128OSM    C8F13777   6.242   5.214   7.504  0.7519  0.2306 -0.1461
  128OSM    H8F13778   6.181   5.222   7.597  1.5650 -0.7191  0.4754
  128OSM    H8G13779   6.287   5.314   7.488  0.1239  0.0771 -3.0504
  128OSM    C9F13780   6.345   5.105   7.517 -0.5300  0.3644 -0.2015
  128OSM    H9F13781   6.379   5.051   7.427 -3.5666 -1.5147 -0.2998
  128OSM   C10F13782   6.396   5.073   7.636 -0.8717 -0.1803 -0.0824
  128OSM   H10F13783   6.473   4.995   7.636 -0.6621  0.0254 -0.3647
  128OSM   C11F13784   6.368   5.126   7.775  0.4706  0.0383 -0.0677
  128OSM   H11F13785   6.291   5.207   7.771  2.3137  1.8604  0.3882
  128OSM   H11G13786   6.462   5.175   7.807  0.6538  0.1213 -0.7367
  128OSM   C12F13787   6.325   5.023   7.876 -0.1501 -0.6822 -0.3908
  128OSM   H12F13788   6.401   4.942   7.884  0.4580  0.0502  1.5724
  128OSM   H12G13789   6.243   4.961   7.834 -0.4563  1.0114 -2.3771
  128OSM   C13F13790   6.293   5.077   8.010  0.5194 -0.3212  0.5106
  128OSM   H13F13791   6.279   4.988   8.076 -0.4951 -0.5937 -0.0616
  128OSM   H13G13792   6.200   5.137   8.013  0.3746 -0.5923  2.2908
  128OSM   C14F13793   6.404   5.159   8.067  0.6421 -0.3725  0.0336
  128OSM   H14F13794   6.388   5.268   8.050  0.7034 -0.2831  0.5256
  128OSM   H14G13795   6.506   5.132   8.031 -0.3516  0.1893 -3.4048
  128OSM   C15F13796   6.395   5.124   8.218  0.2301  0.2548 -0.3152
  128OSM   H15F13797   6.480   5.176   8.269  0.1741 -1.1023  1.2065
  128OSM   H15G13798   6.415   5.018   8.242 -1.2294  0.3200  1.2372
  128OSM   C16F13799   6.254   5.161   8.277 -0.0093 -0.6566 -0.2831
  128OSM   H16F13800   6.178   5.085   8.249 -2.7193  2.0820 -0.6884
  128OSM   H16G13801   6.220   5.253   8.224  2.4028  0.9450  0.8631
  128OSM   C17F13802   6.253   5.183   8.434 -0.8234 -0.0684 -0.5080
  128OSM   H17F13803   6.317   5.268   8.466 -0.6302 -0.4353  0.0899
  128OSM   H17G13804   6.298   5.092   8.480  1.1001  1.2606  0.2971
  128OSM   C18F13805   6.105   5.207   8.476 -0.4892  0.1616 -0.3281
  128OSM   H18F13806   6.032   5.153   8.412 -0.9502 -0.5239  0.7623
  128OSM   H18G13807   6.085   5.316   8.466 -1.2372  0.2354  1.7860
  128OSM   H18H13808   6.086   5.176   8.581  1.3338  0.8178  0.2138
  129OSM      N13809   3.575   2.441   6.285  0.0361  0.8038 -0.3952
  129OSM    C1513810   3.494   2.327   6.237  0.4339 -0.6728  0.1710
  129OSM   H15A13811   3.545   2.254   6.175  0.2592  0.4610 -1.3105
  129OSM   H15B13812   3.412   2.359   6.175 -0.8335 -2.2226  1.0067
  129OSM   H15C13813   3.448   2.277   6.322 -0.7761  1.0243  0.5467
  129OSM    C1413814   3.479   2.534   6.353 -0.1808  0.3395 -0.2513
  129OSM   H14A13815   3.517   2.629   6.387  3.1484 -1.2671  0.6997
  129OSM   H14B13816   3.450   2.483   6.444  0.0884  1.4431  0.4695
  129OSM   H14C13817   3.392   2.553   6.292 -0.7877 -0.5558  0.3251
  129OSM    C1313818   3.675   2.391   6.389  0.2812 -0.5017 -0.0498
  129OSM   H13A13819   3.618   2.335   6.462 -1.6899  1.0009 -0.3949
  129OSM   H13B13820   3.721   2.476   6.437 -1.6999  0.4320  0.2455
  129OSM   H13C13821   3.757   2.336   6.346  1.7000  0.5919  1.1929
  129OSM    C1213822   3.653   2.495   6.168 -0.2808 -0.0027 -0.0840
  129OSM   H12A13823   3.693   2.593   6.186  0.3294  0.0295 -1.5082
  129OSM   H12B13824   3.574   2.517   6.098 -2.3897 -1.0362  1.9067
  129OSM    C1113825   3.767   2.406   6.110  0.2549 -0.5013 -0.0507
  129OSM   H11A13826   3.796   2.432   6.006  3.6986 -2.1399  0.4282
  129OSM   H11B13827   3.717   2.307   6.105  1.4732 -1.2163  1.5448
  129OSM      P13828   3.979   2.528   6.183  0.0426  0.3578  0.0979
  129OSM    O1313829   4.051   2.525   6.053 -0.0395 -0.2994 -0.4728
  129OSM    O1413830   3.904   2.654   6.220 -0.1095  0.5615 -0.4682
  129OSM    O1113831   4.085   2.492   6.299 -0.6941  0.1056 -0.0810
  129OSM    O1213832   3.885   2.401   6.186 -0.1453  0.0208 -0.4312
  129OSM    C1S13833   4.110   2.561   6.414  0.2732  0.1493 -0.1262
  129OSM    H1S13834   4.054   2.657   6.422 -0.2357 -0.1843  0.3987
  129OSM    H1T13835   4.216   2.596   6.418  1.2826 -2.7614 -0.0870
  129OSM     NF13836   4.106   2.555   6.664  0.5813 -0.1909  0.0878
  129OSM    HNF13837   4.201   2.564   6.694  0.7631 -0.7442 -0.3125
  129OSM    C2S13838   4.085   2.475   6.544  0.3463 -0.7721 -0.0374
  129OSM    H2S13839   3.980   2.439   6.546  0.0075  0.1966 -0.0859
  129OSM    C3S13840   4.184   2.346   6.534  0.4714 -0.2538 -0.1084
  129OSM    H3S13841   4.286   2.386   6.519  0.3804  0.4470  1.0836
  129OSM     O313842   4.161   2.255   6.420  0.0932 -0.0559  0.4398
  129OSM    HO313843   4.107   2.311   6.364  1.0285 -0.6562 -1.0709
  129OSM    C4S13844   4.159   2.265   6.657 -1.1017 -0.5660  1.1511
  129OSM    H4S13845   4.052   2.256   6.682 -1.7582  1.1572 -0.9180
  129OSM    C5S13846   4.251   2.232   6.754  0.1555  0.2587  0.2583
  129OSM    H5S13847   4.357   2.259   6.741  0.3560  0.3188  1.9378
  129OSM    C6S13848   4.218   2.154   6.882 -0.5696 -0.2904 -0.0417
  129OSM    H6S13849   4.244   2.046   6.881  1.0642  0.0721  1.7608
  129OSM    H6T13850   4.110   2.165   6.904  0.1405  2.1348  2.4969
  129OSM    C7S13851   4.291   2.214   7.001 -0.2169  0.3279  0.2946
  129OSM    H7S13852   4.241   2.176   7.092  2.2686  0.9905  2.0030
  129OSM    H7T13853   4.280   2.325   7.000 -3.1376  0.0653 -1.2355
  129OSM    C8S13854   4.442   2.174   7.012 -0.3161  0.0900  0.1562
  129OSM    H8S13855   4.500   2.221   6.929 -0.4651  0.8517  0.4823
  129OSM    H8T13856   4.453   2.064   6.996  0.6206  0.0399  1.1121
  129OSM    C9S13857   4.492   2.203   7.149  0.5270  0.0050 -0.7003
  129OSM    H9S13858   4.438   2.161   7.236 -0.2436  0.0469 -1.1575
  129OSM    H9T13859   4.486   2.314   7.151  0.9524  0.0460 -1.4783
  129OSM   C10S13860   4.643   2.161   7.168  0.1743 -0.0360 -0.1418
  129OSM   H10S13861   4.698   2.215   7.089  0.1249  3.6450  2.2102
  129OSM   H10T13862   4.659   2.053   7.150 -0.4726  0.1515 -1.8911
  129OSM   C11S13863   4.691   2.198   7.311  0.4920 -0.2770  1.3550
  129OSM   H11S13864   4.616   2.258   7.367  0.0130  0.2464  0.1596
  129OSM   H11T13865   4.768   2.278   7.298 -0.8432  0.3979 -3.0154
  129OSM   C12S13866   4.731   2.083   7.400  0.6087 -0.7073  0.3908
  129OSM   H12S13867   4.821   2.038   7.352 -0.5520 -1.2973 -1.2637
  129OSM   H12T13868   4.646   2.014   7.417  0.0723 -0.0442  0.4505
  129OSM   C13S13869   4.773   2.134   7.539  0.0512  0.1747  0.1342
  129OSM   H13S13870   4.679   2.165   7.589 -0.1302 -0.0106 -0.0933
  129OSM   H13T13871   4.833   2.227   7.531 -0.8378  0.7354 -0.0986
  129OSM   C14S13872   4.848   2.031   7.629  0.0567  0.5067 -0.3946
  129OSM   H14S13873   4.951   2.024   7.589  1.4675 -0.2438  3.1661
  129OSM   H14T13874   4.812   1.926   7.618  1.5521 -0.0938  0.4234
  129OSM   C15S13875   4.837   2.053   7.783 -0.5689  0.4076  0.3474
  129OSM   H15S13876   4.730   2.060   7.811 -1.6269 -1.3390 -2.9679
  129OSM   H15T13877   4.874   2.156   7.800  0.6373 -0.4314  2.9316
  129OSM   C16S13878   4.915   1.938   7.851 -0.7560  0.0497 -0.7621
  129OSM   H16S13879   4.998   1.909   7.783 -0.6483  1.1800 -1.1206
  129OSM   H16T13880   4.849   1.849   7.855  1.1053 -1.4988 -3.0772
  129OSM   C17S13881   4.976   1.993   7.982  0.6511  0.7407  0.2506
  129OSM   H17S13882   4.892   1.994   8.055 -0.2174 -0.7836 -0.6911
  129OSM   H17T13883   5.011   2.095   7.955 -1.6113  1.2899 -0.7863
  129OSM   C18S13884   5.089   1.904   8.035 -0.7224  0.6444 -0.6155
  129OSM   H18S13885   5.045   1.804   8.054  0.0329  0.6066  1.0690
  129OSM   H18T13886   5.104   1.949   8.136  0.7434 -1.3206  0.0689
  129OSM   H18U13887   5.185   1.897   7.981  0.9124  0.9756  2.1633
  129OSM    C1F13888   4.008   2.642   6.701  0.1445  0.4331 -0.6763
  129OSM     OF13889   3.905   2.659   6.637 -0.0411  0.1039  0.3550
  129OSM    C2F13890   4.031   2.712   6.825 -0.1119  0.3274  0.1563
  129OSM    H2F13891   4.122   2.771   6.802 -0.6981  1.0964 -0.2054
  129OSM    H2G13892   4.057   2.636   6.903  0.5581  0.6316  0.2316
  129OSM    C3F13893   3.911   2.805   6.857 -0.0588  0.7682  0.1097
  129OSM    H3F13894   3.827   2.744   6.897 -0.7944 -1.2633 -4.2727
  129OSM    H3G13895   3.873   2.862   6.770  0.4626  2.8722  1.2210
  129OSM    C4F13896   3.946   2.905   6.970  0.2659 -0.5149 -0.4347
  129OSM    H4F13897   3.855   2.966   6.991  0.5390  0.9521 -3.2698
  129OSM    H4G13898   4.032   2.970   6.947 -0.5810  0.9863  0.5681
  129OSM    C5F13899   3.991   2.831   7.101 -0.1689 -0.8011  0.2834
  129OSM    H5F13900   4.075   2.764   7.072 -0.2170 -2.4038  3.6130
  129OSM    H5G13901   3.913   2.764   7.142 -0.3317 -0.8035 -0.0335
  129OSM    C6F13902   4.046   2.934   7.206 -0.1481  0.4504  0.1056
  129OSM    H6F13903   3.973   3.014   7.229  0.9752  2.2537 -2.3618
  129OSM    H6G13904   4.143   2.969   7.166  0.6084 -0.3035  1.2602
  129OSM    C7F13905   4.084   2.854   7.340 -0.0416  0.0407 -0.1356
  129OSM    H7F13906   4.160   2.775   7.320  1.6788  1.8707 -0.9028
  129OSM    H7G13907   3.989   2.805   7.371 -1.0818  0.5102 -2.4017
  129OSM    C8F13908   4.137   2.942   7.456  0.7640 -0.0041 -0.7427
  129OSM    H8F13909   4.213   3.007   7.407  0.8108 -1.4414 -2.6318
  129OSM    H8G13910   4.183   2.869   7.526  0.0686  1.7908  1.6371
  129OSM    C9F13911   4.032   3.016   7.534 -0.3420 -0.0254  0.0508
  129OSM    H9F13912   3.932   2.984   7.500  0.0207  0.0129 -1.0728
  129OSM   C10F13913   4.055   3.107   7.626 -0.3513  0.0539  0.3887
  129OSM   H10F13914   3.963   3.150   7.666  0.0658  0.2348  1.1616
  129OSM   C11F13915   4.184   3.161   7.676 -0.4128 -0.1029  0.0276
  129OSM   H11F13916   4.197   3.271   7.670  0.7716 -0.2036  0.4187
  129OSM   H11G13917   4.268   3.112   7.621 -0.4718 -0.8890  0.6214
  129OSM   C12F13918   4.211   3.143   7.827 -0.0853 -0.2917  0.1011
  129OSM   H12F13919   4.130   3.182   7.892 -0.8810  1.0440 -1.6485
  129OSM   H12G13920   4.301   3.204   7.848 -1.5251  0.9279  2.9153
  129OSM   C13F13921   4.259   3.002   7.872  0.0115 -0.3502  0.3192
  129OSM   H13F13922   4.319   2.955   7.791  1.6050 -2.0889  2.4677
  129OSM   H13G13923   4.170   2.935   7.876  0.1287 -0.8623 -3.4731
  129OSM   C14F13924   4.343   3.001   7.997 -0.2369 -0.8585 -0.4736
  129OSM   H14F13925   4.437   3.055   7.974 -0.8277 -0.8369 -3.0227
  129OSM   H14G13926   4.367   2.895   8.014  1.7072 -0.1655  1.2370
  129OSM   C15F13927   4.276   3.066   8.121  0.6706 -0.3129 -0.4859
  129OSM   H15F13928   4.166   3.053   8.123  0.8475 -1.8789  1.0287
  129OSM   H15G13929   4.287   3.176   8.114 -4.1087  0.4637  2.2834
  129OSM   C16F13930   4.330   3.010   8.251  0.5386 -0.1691  0.7698
  129OSM   H16F13931   4.438   3.038   8.251  0.5447  0.0297 -2.2223
  129OSM   H16G13932   4.325   2.899   8.249  1.9519 -0.2423  0.4775
  129OSM   C17F13933   4.261   3.061   8.373 -0.0923 -0.2120  0.1216
  129OSM   H17F13934   4.157   3.022   8.370  0.3645 -1.3738 -3.5417
  129OSM   H17G13935   4.255   3.171   8.362 -1.4411 -0.1851  1.0315
  129OSM   C18F13936   4.333   3.029   8.508 -0.1333 -0.3816  0.0716
  129OSM   H18F13937   4.350   2.920   8.524  0.8124 -0.4015 -0.9962
  129OSM   H18G13938   4.270   3.060   8.594 -2.1660 -1.2203 -1.0788
  129OSM   H18H13939   4.430   3.084   8.510  0.4941 -1.4833  2.5010
  130OSM      N13940   0.028   4.344   6.009 -0.2262 -0.4740 -0.0242
  130OSM    C1513941  -0.109   4.393   6.002 -0.1026 -0.4374 -0.1307
  130OSM   H15A13942  -0.091   4.497   6.026 -2.4308 -0.1495  0.4752
  130OSM   H15B13943  -0.166   4.360   6.088 -1.4741  3.2835  0.4722
  130OSM   H15C13944  -0.160   4.367   5.911 -0.8461  2.3737 -0.5750
  130OSM    C1413945   0.022   4.199   6.024  0.2997 -0.4499 -0.1937
  130OSM   H14A13946  -0.024   4.170   6.117 -0.2672  0.8685 -0.0530
  130OSM   H14B13947   0.118   4.150   6.015 -0.6167 -2.2565 -0.2956
  130OSM   H14C13948  -0.039   4.160   5.944  0.8709 -0.3150 -0.6975
  130OSM    C1313949   0.093   4.379   5.881 -0.1301 -0.7547 -0.2071
  130OSM   H13A13950   0.193   4.341   5.865  1.3925  2.5011  0.9885
  130OSM   H13B13951   0.086   4.484   5.857  0.9502 -0.7529 -0.5343
  130OSM   H13C13952   0.037   4.331   5.803 -2.0750 -0.6940  1.1031
  130OSM    C1213953   0.099   4.411   6.125  0.8416 -0.6428  1.0078
  130OSM   H12A13954   0.184   4.346   6.142  0.6837 -0.9299  0.6943
  130OSM   H12B13955   0.029   4.399   6.207  0.6958 -2.9655  0.5873
  130OSM    C1113956   0.130   4.564   6.115 -0.0441 -0.1039  0.4976
  130OSM   H11A13957   0.210   4.578   6.039 -1.0084  2.4550 -0.0833
  130OSM   H11B13958   0.180   4.589   6.211  1.9389  0.5225 -0.6532
  130OSM      P13959   0.018   4.793   6.105  0.2868 -0.2150 -0.1461
  130OSM    O1313960   0.105   4.850   6.002 -0.9571 -0.1274  1.1518
  130OSM    O1413961  -0.123   4.841   6.107  0.3353  0.3060  0.3738
  130OSM    O1113962   0.076   4.801   6.252  0.7403 -0.4052  0.3929
  130OSM    O1213963   0.018   4.643   6.080  0.2690  0.2754 -0.0513
  130OSM    C1S13964   0.001   4.857   6.361  0.6057  1.0719 -0.5118
  130OSM    H1S13965  -0.098   4.807   6.364  1.3408 -0.7648 -4.3085
  130OSM    H1T13966  -0.008   4.968   6.358  1.5501  1.1478 -0.5783
  130OSM     NF13967   0.008   4.910   6.606 -0.5367 -0.3299  0.2170
  130OSM    HNF13968   0.040   5.002   6.628  2.9872 -1.5524  0.4942
  130OSM    C2S13969   0.077   4.835   6.505  0.2224  0.0338  0.6003
  130OSM    H2S13970   0.072   4.727   6.530  1.1158  0.2673  1.8449
  130OSM    C3S13971   0.228   4.859   6.492 -0.3426  0.2492 -0.0626
  130OSM    H3S13972   0.246   4.966   6.469 -2.7174  0.6251 -0.3842
  130OSM     O313973   0.296   4.783   6.393  0.5179 -0.3351  0.2182
  130OSM    HO313974   0.229   4.757   6.330  0.6351 -0.4541  0.1439
  130OSM    C4S13975   0.296   4.830   6.627 -0.2373  0.0739  0.4370
  130OSM    H4S13976   0.323   4.728   6.655 -0.2998 -0.4198 -1.2531
  130OSM    C5S13977   0.342   4.922   6.713  0.4185  0.3067  0.0496
  130OSM    H5S13978   0.317   5.026   6.684 -2.5758 -0.0290  1.2329
  130OSM    C6S13979   0.411   4.912   6.841 -0.0384  0.6906  0.2279
  130OSM    H6S13980   0.506   4.969   6.842  0.6026 -0.3773  1.8541
  130OSM    H6T13981   0.436   4.805   6.861  1.3313  1.0368  0.4035
  130OSM    C7S13982   0.321   4.960   6.962  0.2881 -0.0714  0.5064
  130OSM    H7S13983   0.219   4.921   6.939  0.3371  0.7148 -1.0890
  130OSM    H7T13984   0.314   5.070   6.958 -2.3361 -0.1550  1.8511
  130OSM    C8S13985   0.366   4.914   7.101  0.2464 -0.2115 -0.3345
  130OSM    H8S13986   0.477   4.905   7.100  0.3777  0.5034  2.5136
  130OSM    H8T13987   0.328   4.811   7.120 -0.6735 -0.0055 -1.0313
  130OSM    C9S13988   0.303   4.983   7.228 -0.2269 -0.4342  0.7250
  130OSM    H9S13989   0.192   4.986   7.222 -0.2194  0.6675  0.9308
  130OSM    H9T13990   0.334   5.089   7.237  0.3925 -0.6721  1.3811
  130OSM   C10S13991   0.351   4.917   7.352  0.4830 -0.0782  0.8615
  130OSM   H10S13992   0.461   4.931   7.347  0.3946  0.3355  0.0014
  130OSM   H10T13993   0.314   4.813   7.340 -1.4486  0.8189 -1.4505
  130OSM   C11S13994   0.297   4.986   7.480  0.7881  0.5694  0.3996
  130OSM   H11S13995   0.195   5.022   7.453  0.8600  0.6391  0.2221
  130OSM   H11T13996   0.359   5.074   7.506  1.4099 -0.1550  1.3959
  130OSM   C12S13997   0.290   4.887   7.589 -0.3441 -0.0945  0.1530
  130OSM   H12S13998   0.391   4.851   7.620 -0.5899 -0.3947  0.6000
  130OSM   H12T13999   0.231   4.801   7.552  1.2921 -0.3574 -1.9310
  130OSM   C13S14000   0.217   4.946   7.710  0.1619 -0.1869 -0.4817
  130OSM   H13S14001   0.137   5.012   7.669  1.6852  0.8631 -1.8509
  130OSM   H13T14002   0.278   5.024   7.760  0.2458  0.0852 -1.0013
  130OSM   C14S14003   0.162   4.847   7.812  0.0692  0.2727 -0.5571
  130OSM   H14S14004   0.242   4.815   7.882 -0.4330 -1.0835 -0.5884
  130OSM   H14T14005   0.112   4.762   7.762 -0.5081  1.1914 -1.5502
  130OSM   C15S14006   0.061   4.908   7.911 -0.1624 -0.3487  0.5902
  130OSM   H15S14007  -0.038   4.910   7.861  0.1306  0.6906  0.0330
  130OSM   H15T14008   0.091   5.014   7.922 -0.3750 -0.3607  1.3452
  130OSM   C16S14009   0.049   4.826   8.036 -0.2450 -0.5470  0.1902
  130OSM   H16S14010   0.145   4.837   8.091 -0.5808  2.5014  0.2566
  130OSM   H16T14011   0.040   4.718   8.015 -1.9376 -0.4654  0.3976
  130OSM   C17S14012  -0.067   4.882   8.121 -0.0651  0.4190  0.4187
  130OSM   H17S14013  -0.167   4.846   8.087  0.3391  0.5337 -0.9289
  130OSM   H17T14014  -0.069   4.992   8.110 -2.4677  0.3137 -0.4420
  130OSM   C18S14015  -0.057   4.827   8.259  0.5992 -0.3296 -0.0543
  130OSM   H18S14016  -0.025   4.721   8.258 -1.5496 -1.0494  1.7490
  130OSM   H18T14017  -0.158   4.832   8.306  1.9598  0.0688  2.9281
  130OSM   H18U14018   0.009   4.890   8.323  0.5870 -1.4806  1.1149
  130OSM    C1F14019  -0.117   4.877   6.643  0.3787 -0.3797 -0.5884
  130OSM     OF14020  -0.165   4.764   6.614 -0.2460 -0.0346  0.0726
  130OSM    C2F14021  -0.189   4.961   6.739  0.3464 -0.3260  0.4987
  130OSM    H2F14022  -0.290   4.916   6.742 -0.1004  0.7461  3.0274
  130OSM    H2G14023  -0.198   5.067   6.706 -1.9210 -0.3929  0.8443
  130OSM    C3F14024  -0.129   4.968   6.880 -0.9927 -0.1394  0.3342
  130OSM    H3F14025  -0.163   5.063   6.926 -1.1139 -0.0091 -0.0244
  130OSM    H3G14026  -0.024   4.995   6.858 -1.3771  0.8762 -0.2574
  130OSM    C4F14027  -0.139   4.847   6.975  0.5265 -0.0739  0.2726
  130OSM    H4F14028  -0.077   4.760   6.944 -1.9079 -2.2910  1.5215
  130OSM    H4G14029  -0.246   4.818   6.979  0.4148  0.4186  1.1480
  130OSM    C5F14030  -0.088   4.865   7.117 -0.2971  0.4893  0.4960
  130OSM    H5F14031   0.012   4.911   7.102 -1.7773  2.8221 -2.6876
  130OSM    H5G14032  -0.066   4.769   7.167 -3.9979 -1.0902 -0.7727
  130OSM    C6F14033  -0.182   4.933   7.210 -0.7574 -1.1869  0.3427
  130OSM    H6F14034  -0.281   4.884   7.199 -1.6445  0.5476  0.3984
  130OSM    H6G14035  -0.186   5.039   7.176  1.7555 -1.2759 -0.2954
  130OSM    C7F14036  -0.138   4.926   7.353 -0.3262 -0.7929 -0.5299
  130OSM    H7F14037  -0.163   5.023   7.402  0.6765 -0.8590  0.1150
  130OSM    H7G14038  -0.028   4.911   7.351 -0.4482 -1.6348 -2.4297
  130OSM    C8F14039  -0.214   4.812   7.430 -0.0927  0.3244 -0.3806
  130OSM    H8F14040  -0.197   4.721   7.369 -0.0646  0.3661 -0.4344
  130OSM    H8G14041  -0.324   4.818   7.431 -0.2597 -1.6699 -2.4012
  130OSM    C9F14042  -0.150   4.795   7.570 -0.4115  0.3723  0.2037
  130OSM    H9F14043  -0.061   4.856   7.593 -0.7341  0.4859  1.1693
  130OSM   C10F14044  -0.168   4.700   7.659  0.3783 -0.3911 -0.3332
  130OSM   H10F14045  -0.117   4.712   7.756  0.5066 -0.6688 -0.3675
  130OSM   C11F14046  -0.255   4.579   7.642 -0.1991 -0.0936  0.6062
  130OSM   H11F14047  -0.293   4.586   7.538  0.1167  2.1758  0.6124
  130OSM   H11G14048  -0.341   4.577   7.712 -0.0292  1.5097  0.8827
  130OSM   C12F14049  -0.181   4.442   7.663  0.0638  0.0056  0.0697
  130OSM   H12F14050  -0.110   4.420   7.580  0.1187 -0.5611  0.2654
  130OSM   H12G14051  -0.259   4.363   7.667 -0.2198  0.2736 -0.1262
  130OSM   C13F14052  -0.112   4.433   7.798 -0.3256  0.2698 -1.1838
  130OSM   H13F14053  -0.028   4.506   7.805 -1.3508  1.1609  2.9174
  130OSM   H13G14054  -0.071   4.330   7.810 -2.9953 -0.5834  1.1210
  130OSM   C14F14055  -0.215   4.460   7.912 -0.3928  0.3619  0.0417
  130OSM   H14F14056  -0.304   4.395   7.900 -0.6866  0.6931  0.4003
  130OSM   H14G14057  -0.254   4.564   7.908 -0.7150  0.4023  2.8708
  130OSM   C15F14058  -0.168   4.428   8.052  0.7517 -0.4063 -0.5643
  130OSM   H15F14059  -0.074   4.486   8.065  0.1343  0.7374 -1.1237
  130OSM   H15G14060  -0.156   4.321   8.078 -1.8478 -0.6899 -0.4526
  130OSM   C16F14061  -0.278   4.479   8.149 -0.0758  0.3403 -0.4515
  130OSM   H16F14062  -0.370   4.420   8.133 -0.9752  1.6822 -0.2547
  130OSM   H16G14063  -0.298   4.587   8.133 -0.3466  0.6556  1.8613
  130OSM   C17F14064  -0.227   4.457   8.292 -0.0432  0.2569 -0.4254
  130OSM   H17F14065  -0.140   4.525   8.305 -0.2451  0.3614  0.4696
  130OSM   H17G14066  -0.194   4.352   8.307 -0.6215  0.2724  1.1393
  130OSM   C18F14067  -0.331   4.485   8.406 -0.0597  0.0935 -0.7680
  130OSM   H18F14068  -0.288   4.460   8.505 -1.0996  1.8131  0.1421
  130OSM   H18G14069  -0.420   4.419   8.394  2.0136 -2.4567 -2.7030
  130OSM   H18H14070  -0.369   4.589   8.405  1.3393  0.6526  1.4203
  131OSM      N14071   4.239   0.670   5.596 -0.1397  0.1499 -0.0208
  131OSM    C1514072   4.253   0.598   5.469  0.5016  0.7054  0.2641
  131OSM   H15A14073   4.297   0.653   5.388  1.0862 -0.1830 -0.0299
  131OSM   H15B14074   4.157   0.572   5.426 -0.3555  0.1335  2.4639
  131OSM   H15C14075   4.316   0.511   5.467  0.8935  1.0125 -2.1164
  131OSM    C1414076   4.382   0.701   5.641 -0.4196 -0.0750  0.6554
  131OSM   H14A14077   4.447   0.615   5.635 -0.3069  0.1696 -2.7985
  131OSM   H14B14078   4.382   0.727   5.746 -0.0125  0.1246  0.6079
  131OSM   H14C14079   4.430   0.779   5.583 -0.2189  0.1719  1.1457
  131OSM    C1314080   4.168   0.802   5.573  0.1359 -0.3422  0.3014
  131OSM   H13A14081   4.218   0.872   5.507  0.9753 -0.5553  0.7023
  131OSM   H13B14082   4.161   0.849   5.670  0.6763  0.9816 -0.2871
  131OSM   H13C14083   4.068   0.800   5.533 -0.1813  2.9501  0.7793
  131OSM    C1214084   4.172   0.573   5.697  0.0197 -0.3203 -0.0364
  131OSM   H12A14085   4.175   0.614   5.797 -1.1388 -1.5195  0.5050
  131OSM   H12B14086   4.240   0.489   5.700  0.6891  0.1896 -0.6776
  131OSM    C1114087   4.023   0.532   5.674 -0.7501 -0.2963 -0.4330
  131OSM   H11A14088   3.989   0.450   5.741 -3.0369  2.6250  2.1624
  131OSM   H11B14089   4.018   0.489   5.572 -0.0502 -3.0586  0.6562
  131OSM      P14090   3.900   0.698   5.828  0.0930  0.3478  0.0936
  131OSM    O1314091   3.893   0.844   5.812 -0.0262 -0.3183 -0.6833
  131OSM    O1414092   3.777   0.622   5.860 -0.7086 -0.0419 -0.3637
  131OSM    O1114093   4.014   0.652   5.927  0.2475  0.5134  0.4123
  131OSM    O1214094   3.934   0.636   5.687 -0.7402 -0.2082  0.0160
  131OSM    C1S14095   4.037   0.718   6.051  0.1875 -0.0975 -0.7087
  131OSM    H1S14096   4.046   0.827   6.034  1.7014 -0.4273 -2.2587
  131OSM    H1T14097   4.142   0.695   6.080  0.2806  0.6808 -0.4277
  131OSM     NF14098   3.954   0.755   6.275  0.1238  0.5421  0.5458
  131OSM    HNF14099   4.013   0.713   6.344  1.9674 -0.8011 -1.7943
  131OSM    C2S14100   3.940   0.671   6.160 -0.8269  0.6063  0.4665
  131OSM    H2S14101   3.839   0.674   6.113 -1.2510 -3.6661  0.9592
  131OSM    C3S14102   3.974   0.519   6.188  0.6340  0.4404  0.0640
  131OSM    H3S14103   4.081   0.526   6.216  0.6820 -0.8727  0.2791
  131OSM     O314104   3.963   0.434   6.073 -0.1107 -0.6848  0.5106
  131OSM    HO314105   3.946   0.499   6.004 -0.6959  0.7050  1.9602
  131OSM    C4S14106   3.890   0.453   6.303 -0.4072 -0.0830 -0.9583
  131OSM    H4S14107   3.782   0.470   6.295 -0.9714 -3.1141 -0.3442
  131OSM    C5S14108   3.949   0.400   6.419 -0.1758  0.2630  0.3136
  131OSM    H5S14109   4.057   0.384   6.427 -0.2473 -0.3734  0.0039
  131OSM    C6S14110   3.868   0.351   6.538  0.1625  0.6203  0.1301
  131OSM    H6S14111   3.759   0.338   6.518  0.7667 -1.3450 -2.0488
  131OSM    H6T14112   3.873   0.435   6.611 -0.3857  0.5095  0.2978
  131OSM    C7S14113   3.934   0.231   6.604 -0.0653  0.4171  0.6296
  131OSM    H7S14114   4.037   0.246   6.642  1.3858 -0.6848 -2.7428
  131OSM    H7T14115   3.932   0.151   6.527  0.5581  1.1951 -0.2134
  131OSM    C8S14116   3.844   0.180   6.715  0.4822 -0.2760  0.2619
  131OSM    H8S14117   3.858   0.071   6.728 -2.2520 -0.9676 -2.2466
  131OSM    H8T14118   3.738   0.176   6.684  0.0656  0.2617  1.5759
  131OSM    C9S14119   3.851   0.257   6.843 -0.8712 -0.5110  0.8194
  131OSM    H9S14120   3.830   0.365   6.829  2.3635  0.0638 -0.0311
  131OSM    H9T14121   3.959   0.249   6.869 -0.0602 -0.6263 -2.2934
  131OSM   C10S14122   3.758   0.198   6.951 -0.4470 -0.2034 -0.6011
  131OSM   H10S14123   3.735   0.093   6.926  1.2802 -1.2233  1.9049
  131OSM   H10T14124   3.665   0.259   6.955 -0.0547  0.4217 -0.9382
  131OSM   C11S14125   3.810   0.205   7.093  0.1266  0.3158 -0.9487
  131OSM   H11S14126   3.900   0.143   7.112  0.0401 -0.5156 -3.1008
  131OSM   H11T14127   3.728   0.175   7.162  1.4744 -0.6579  0.2742
  131OSM   C12S14128   3.855   0.339   7.133 -0.7031  0.2573  0.2263
  131OSM   H12S14129   3.776   0.416   7.119  0.7739  1.8312  0.2967
  131OSM   H12T14130   3.941   0.377   7.074 -1.1238  1.1567  0.1771
  131OSM   C13S14131   3.898   0.349   7.278 -0.0368  0.1268  0.6941
  131OSM   H13S14132   3.992   0.291   7.293  1.0092  1.8028  0.7025
  131OSM   H13T14133   3.819   0.301   7.339  0.1376 -0.9872  0.0584
  131OSM   C14S14134   3.915   0.491   7.325 -0.9346  0.9532  0.6026
  131OSM   H14S14135   3.820   0.543   7.303  0.3706  1.8460 -3.3040
  131OSM   H14T14136   3.999   0.539   7.270  0.6732  0.5380  2.6237
  131OSM   C15S14137   3.943   0.489   7.474 -0.2620 -0.4807 -0.7126
  131OSM   H15S14138   4.026   0.418   7.492  0.3079  0.3732  0.0472
  131OSM   H15T14139   3.847   0.449   7.512 -1.2873  0.5584 -2.1664
  131OSM   C16S14140   3.966   0.629   7.528  0.2732 -0.0065  0.1772
  131OSM   H16S14141   3.882   0.694   7.497  2.5772  2.1925 -1.7311
  131OSM   H16T14142   4.054   0.664   7.469  0.0443 -3.3084 -2.2160
  131OSM   C17S14143   4.004   0.619   7.677  0.3649  0.3141 -0.1775
  131OSM   H17S14144   4.018   0.725   7.706 -0.2577  0.5250 -0.6280
  131OSM   H17T14145   4.092   0.552   7.680  0.1559 -0.0726 -1.9825
  131OSM   C18S14146   3.893   0.567   7.766 -0.2291  0.0580  0.8793
  131OSM   H18S14147   3.800   0.617   7.732 -0.4559 -0.4920  0.6813
  131OSM   H18T14148   3.923   0.588   7.871  2.5174 -0.5424  0.2781
  131OSM   H18U14149   3.902   0.456   7.754  4.0149  0.2042  1.7108
  131OSM    C1F14150   3.922   0.883   6.287  0.7443  0.4245  0.4272
  131OSM     OF14151   3.848   0.938   6.205 -0.2837 -0.0395  0.3526
  131OSM    C2F14152   3.968   0.941   6.413  1.0473  0.7150 -0.2929
  131OSM    H2F14153   4.079   0.946   6.417  1.0265 -0.2545  2.4972
  131OSM    H2G14154   3.942   0.860   6.485  0.5537 -0.3931 -1.6936
  131OSM    C3F14155   3.882   1.058   6.445 -0.0224 -0.1189 -0.3598
  131OSM    H3F14156   3.772   1.041   6.439 -0.2176 -0.3818  2.8917
  131OSM    H3G14157   3.916   1.134   6.372 -0.9568 -0.5067 -1.2150
  131OSM    C4F14158   3.914   1.126   6.580  0.5867 -0.4159  0.1502
  131OSM    H4F14159   3.888   1.062   6.668 -2.2260 -0.0779 -0.4176
  131OSM    H4G14160   3.848   1.215   6.579 -1.2468 -1.7674 -0.3928
  131OSM    C5F14161   4.058   1.179   6.596  0.1349 -0.2080 -0.6400
  131OSM    H5F14162   4.092   1.242   6.512  1.7334  1.3372  1.1070
  131OSM    H5G14163   4.127   1.094   6.584  1.1415  0.6255 -0.7916
  131OSM    C6F14164   4.070   1.253   6.730 -0.3025 -0.0746  0.1967
  131OSM    H6F14165   4.024   1.190   6.809 -3.1053  0.1674 -1.1580
  131OSM    H6G14166   4.013   1.349   6.723  0.3208  0.1760 -1.5178
  131OSM    C7F14167   4.219   1.281   6.766 -0.0505  0.5300 -0.9335
  131OSM    H7F14168   4.251   1.350   6.685 -1.2137  0.1164 -1.7502
  131OSM    H7G14169   4.265   1.180   6.775  0.6555  0.8702 -0.6404
  131OSM    C8F14170   4.236   1.358   6.900  0.0415  0.1235  0.5311
  131OSM    H8F14171   4.188   1.299   6.981  1.8295 -0.3464  1.2790
  131OSM    H8G14172   4.185   1.455   6.882 -0.2490  0.2980  2.2796
  131OSM    C9F14173   4.383   1.374   6.920 -0.3531 -0.4538 -0.2814
  131OSM    H9F14174   4.430   1.413   6.828 -0.7150  1.7332  0.4401
  131OSM   C10F14175   4.463   1.320   7.017  0.3143  0.2739  0.3124
  131OSM   H10F14176   4.569   1.334   6.990 -0.7050  2.2711 -3.0293
  131OSM   C11F14177   4.419   1.228   7.129 -0.0072 -0.2221 -0.0950
  131OSM   H11F14178   4.472   1.131   7.116  1.7712  0.5268  1.4353
  131OSM   H11G14179   4.309   1.210   7.125 -0.3425  1.8250 -0.4333
  131OSM   C12F14180   4.480   1.288   7.263  0.9036 -0.4449 -0.8437
  131OSM   H12F14181   4.422   1.378   7.290  2.5684  0.1763  0.7591
  131OSM   H12G14182   4.584   1.324   7.258  1.6203 -2.5556 -1.8778
  131OSM   C13F14183   4.475   1.183   7.369 -0.1369 -0.6984 -0.2609
  131OSM   H13F14184   4.531   1.096   7.330  1.0497 -0.2184  0.3416
  131OSM   H13G14185   4.372   1.146   7.388  0.3072 -1.8411 -0.0459
  131OSM   C14F14186   4.545   1.228   7.496 -0.4418  0.0928  0.8208
  131OSM   H14F14187   4.644   1.266   7.465 -0.8366  0.5291  0.0759
  131OSM   H14G14188   4.586   1.132   7.534 -0.8598 -0.6364 -0.5417
  131OSM   C15F14189   4.480   1.319   7.599 -0.1836  0.1994 -0.5761
  131OSM   H15F14190   4.374   1.288   7.614 -0.1577  0.5967  0.4847
  131OSM   H15G14191   4.480   1.425   7.567  0.8303  0.0355 -1.1321
  131OSM   C16F14192   4.550   1.295   7.729 -0.5465 -0.0879  0.3835
  131OSM   H16F14193   4.657   1.319   7.711 -0.7120 -1.3872 -2.4305
  131OSM   H16G14194   4.548   1.190   7.764  4.2565  0.7801  3.7813
  131OSM   C17F14195   4.503   1.393   7.839  0.1292  0.3570 -0.0992
  131OSM   H17F14196   4.400   1.362   7.866  0.6037  1.1444  2.8127
  131OSM   H17G14197   4.496   1.496   7.799  1.4292  0.2339 -0.6573
  131OSM   C18F14198   4.602   1.399   7.957  0.1024  0.8538  0.0230
  131OSM   H18F14199   4.694   1.456   7.933  0.3617  1.8371  3.1685
  131OSM   H18G14200   4.610   1.295   7.997 -1.2440  0.5290 -0.5083
  131OSM   H18H14201   4.551   1.460   8.035  0.4542  1.3037 -0.0973
  132OSM      N14202   5.830   2.782   6.189  0.6014  0.0716  0.4062
  132OSM    C1514203   5.820   2.929   6.161 -0.1533  0.4210  0.3214
  132OSM   H15A14204   5.918   2.966   6.136  1.1353 -2.0582  1.5989
  132OSM   H15B14205   5.785   2.985   6.246  1.2364  0.9711  0.5331
  132OSM   H15C14206   5.760   2.962   6.077  0.9409  0.0895 -0.5971
  132OSM    C1414207   5.691   2.715   6.200  0.6183 -0.1499 -0.4101
  132OSM   H14A14208   5.626   2.769   6.267 -0.1913  0.4541 -1.6729
  132OSM   H14B14209   5.708   2.615   6.236  0.3091 -0.1599 -0.2900
  132OSM   H14C14210   5.644   2.710   6.103 -2.5310 -1.7358  1.1444
  132OSM    C1314211   5.902   2.722   6.073 -0.0672 -0.1302  0.1353
  132OSM   H13A14212   5.910   2.616   6.092  1.0861  0.4469  3.2358
  132OSM   H13B14213   6.003   2.758   6.069 -0.2063  0.3296  0.7018
  132OSM   H13C14214   5.860   2.742   5.975 -0.6876  0.8533  0.5956
  132OSM    C1214215   5.906   2.761   6.316 -0.5263 -0.7623  0.4728
  132OSM   H12A14216   5.861   2.822   6.392 -0.8353 -0.2690 -0.0950
  132OSM   H12B14217   6.006   2.799   6.302 -0.9867 -0.1284 -1.2854
  132OSM    C1114218   5.927   2.613   6.362  0.2352  0.5288 -0.1886
  132OSM   H11A14219   5.827   2.565   6.373  0.9241 -1.8210 -3.4766
  132OSM   H11B14220   5.965   2.616   6.467  0.5319 -1.0675 -0.2437
  132OSM      P14221   6.165   2.549   6.274  0.2954  0.4493  0.0322
  132OSM    O1314222   6.227   2.420   6.235  0.4708  0.6761 -0.3246
  132OSM    O1414223   6.205   2.670   6.197 -0.1600  0.4031  0.0587
  132OSM    O1114224   6.207   2.575   6.422 -0.1913 -0.5492 -0.2797
  132OSM    O1214225   6.010   2.546   6.266 -0.3366 -0.1196 -0.5102
  132OSM    C1S14226   6.209   2.466   6.520 -0.2157 -0.3514  0.1826
  132OSM    H1S14227   6.276   2.388   6.478 -1.1588 -0.2250 -1.6027
  132OSM    H1T14228   6.106   2.423   6.525 -1.1358  1.0946 -4.4372
  132OSM     NF14229   6.252   2.394   6.738 -0.2456 -0.2551  0.0493
  132OSM    HNF14230   6.179   2.368   6.800  0.6811 -0.2487  1.1623
  132OSM    C2S14231   6.248   2.512   6.654  0.0011  0.3270  0.3759
  132OSM    H2S14232   6.350   2.553   6.641 -0.7318  1.6903 -1.1911
  132OSM    C3S14233   6.150   2.622   6.706  0.2841  0.2812 -0.1132
  132OSM    H3S14234   6.050   2.574   6.699  1.3901 -2.3915  1.7288
  132OSM     O314235   6.145   2.741   6.623 -0.2479  0.1145 -0.1440
  132OSM    HO314236   6.163   2.705   6.535  1.8261 -0.6819  0.5929
  132OSM    C4S14237   6.181   2.660   6.846  0.3021 -0.2630 -0.3410
  132OSM    H4S14238   6.134   2.599   6.923 -0.8842  0.0501 -0.8032
  132OSM    C5S14239   6.254   2.764   6.885 -0.1085 -0.3360  0.0395
  132OSM    H5S14240   6.300   2.827   6.807 -0.2975 -0.4396 -0.1559
  132OSM    C6S14241   6.295   2.793   7.031 -0.1007  0.1882  0.0243
  132OSM    H6S14242   6.224   2.867   7.074  1.0734  2.2154 -1.4424
  132OSM    H6T14243   6.396   2.838   7.026  0.7037 -1.2762  2.1782
  132OSM    C7S14244   6.308   2.676   7.127 -0.6510  0.2134 -0.0260
  132OSM    H7S14245   6.361   2.601   7.064 -3.0943 -0.9297 -0.7772
  132OSM    H7T14246   6.211   2.642   7.169 -1.4196  0.1091 -1.8426
  132OSM    C8S14247   6.393   2.730   7.243 -0.2521 -0.3323 -0.2186
  132OSM    H8S14248   6.350   2.823   7.285 -1.6580 -2.4409  3.2039
  132OSM    H8T14249   6.500   2.735   7.212 -0.1666  1.3841  0.2918
  132OSM    C9S14250   6.396   2.631   7.360  0.3439  0.6821 -0.1103
  132OSM    H9S14251   6.472   2.555   7.330 -0.8298 -0.0846 -1.1706
  132OSM    H9T14252   6.292   2.592   7.371 -0.4120  2.2760 -1.5880
  132OSM   C10S14253   6.441   2.709   7.488  0.6562  0.6143 -0.1710
  132OSM   H10S14254   6.354   2.772   7.517  0.0578  0.1487 -0.9186
  132OSM   H10T14255   6.518   2.779   7.451  2.1802 -1.3876 -0.8373
  132OSM   C11S14256   6.491   2.621   7.601  0.2830 -0.3736 -0.3532
  132OSM   H11S14257   6.559   2.540   7.565  1.0309 -0.6412  1.6401
  132OSM   H11T14258   6.400   2.566   7.634 -0.4110  0.3907 -0.9487
  132OSM   C12S14259   6.561   2.691   7.719 -0.0638  0.5719 -0.2960
  132OSM   H12S14260   6.477   2.751   7.762 -1.3756  0.3163 -2.3931
  132OSM   H12T14261   6.641   2.759   7.682  0.7389  0.9816  2.1496
  132OSM   C13S14262   6.624   2.593   7.823 -0.1685 -0.0576 -0.1320
  132OSM   H13S14263   6.709   2.542   7.773  0.0144 -1.1740  1.2468
  132OSM   H13T14264   6.543   2.527   7.860  0.7482 -0.6625  0.8517
  132OSM   C14S14265   6.665   2.674   7.945 -0.0702 -0.1891  0.6435
  132OSM   H14S14266   6.576   2.725   7.987 -1.0149 -1.6634  0.4779
  132OSM   H14T14267   6.734   2.758   7.923  1.2919 -0.5367  3.3676
  132OSM   C15S14268   6.713   2.590   8.065  1.0676  0.1415 -0.5516
  132OSM   H15S14269   6.807   2.535   8.042 -0.2847 -2.4254  0.0178
  132OSM   H15T14270   6.638   2.514   8.094  0.0486  1.2582 -0.2311
  132OSM   C16S14271   6.731   2.679   8.193 -0.9414 -0.0072 -0.1510
  132OSM   H16S14272   6.675   2.774   8.178  1.3603  1.3603 -0.4317
  132OSM   H16T14273   6.841   2.698   8.194 -0.6031 -1.9142  0.2441
  132OSM   C17S14274   6.692   2.621   8.327 -0.0107 -0.3527  0.2856
  132OSM   H17S14275   6.781   2.595   8.389  1.0707 -0.4529 -1.2992
  132OSM   H17T14276   6.642   2.525   8.300 -1.9281  0.8148 -0.3567
  132OSM   C18S14277   6.590   2.707   8.401 -0.3030 -0.0233 -0.3295
  132OSM   H18S14278   6.491   2.697   8.350  0.4034 -0.9289 -1.5417
  132OSM   H18T14279   6.631   2.809   8.388  1.2727 -0.4780  0.9359
  132OSM   H18U14280   6.588   2.670   8.506  2.5805 -1.9226 -0.9171
  132OSM    C1F14281   6.328   2.281   6.727 -0.1298 -0.7938  0.2576
  132OSM     OF14282   6.420   2.280   6.644  0.4315 -0.2100 -0.2856
  132OSM    C2F14283   6.289   2.162   6.817  0.0422 -0.7351  0.3471
  132OSM    H2F14284   6.281   2.069   6.758  0.3866  0.1453 -1.1106
  132OSM    H2G14285   6.195   2.195   6.867  1.1763 -0.4023  2.3335
  132OSM    C3F14286   6.398   2.130   6.925 -0.2454 -0.1569 -0.2808
  132OSM    H3F14287   6.493   2.127   6.867 -0.4361  1.1907 -0.6803
  132OSM    H3G14288   6.382   2.032   6.976  2.9293 -0.4378  0.2939
  132OSM    C4F14289   6.410   2.239   7.033 -0.9950  0.2397 -0.2501
  132OSM    H4F14290   6.313   2.266   7.081 -1.4096  0.1188 -1.0174
  132OSM    H4G14291   6.445   2.327   6.975 -1.3699 -0.1830 -1.1337
  132OSM    C5F14292   6.494   2.187   7.145  0.3959  0.3605 -0.3198
  132OSM    H5F14293   6.597   2.171   7.107  0.6281 -1.5744  1.0673
  132OSM    H5G14294   6.452   2.089   7.176  0.5342 -0.0005 -1.2639
  132OSM    C6F14295   6.505   2.285   7.264 -0.8767  0.2403 -0.1398
  132OSM    H6F14296   6.414   2.274   7.327 -0.2624  0.5145  0.7882
  132OSM    H6G14297   6.524   2.389   7.231 -0.8581  0.2967  0.0551
  132OSM    C7F14298   6.624   2.257   7.361  0.1614  0.0553 -0.5350
  132OSM    H7F14299   6.619   2.336   7.440 -1.6302 -0.0759 -0.5113
  132OSM    H7G14300   6.716   2.280   7.304  1.3941  2.8147  2.3788
  132OSM    C8F14301   6.619   2.113   7.410  0.2288  0.3662  0.5717
  132OSM    H8F14302   6.623   2.042   7.324  0.1507 -0.0578  0.9214
  132OSM    H8G14303   6.522   2.091   7.459 -1.7671  3.2690 -1.8703
  132OSM    C9F14304   6.734   2.082   7.491  0.1965  0.6613  0.0239
  132OSM    H9F14305   6.830   2.069   7.437  0.4041 -2.3345  1.0196
  132OSM   C10F14306   6.733   2.069   7.620  0.7276  0.1095 -0.0076
  132OSM   H10F14307   6.823   2.043   7.678 -0.4216 -0.1024  1.7414
  132OSM   C11F14308   6.614   2.073   7.705 -0.8123 -0.4198  0.5176
  132OSM   H11F14309   6.577   1.969   7.720 -1.1147 -0.5030 -0.7985
  132OSM   H11G14310   6.528   2.123   7.657  0.1615  1.2051  0.4446
  132OSM   C12F14311   6.627   2.152   7.834 -0.3416 -0.3157  0.1804
  132OSM   H12F14312   6.529   2.160   7.884  0.6942  0.0854  2.1908
  132OSM   H12G14313   6.656   2.258   7.815  0.4769 -0.5606  0.0361
  132OSM   C13F14314   6.720   2.078   7.925 -0.2697  0.0064  0.4820
  132OSM   H13F14315   6.826   2.100   7.904 -0.2308  0.5477  1.2120
  132OSM   H13G14316   6.703   1.969   7.917  0.7536 -0.0145 -1.4974
  132OSM   C14F14317   6.700   2.135   8.070  0.0755 -0.6913  0.4965
  132OSM   H14F14318   6.641   2.062   8.130 -1.7852  1.1895  1.0274
  132OSM   H14G14319   6.644   2.230   8.059  0.7506 -0.2710  0.6427
  132OSM   C15F14320   6.834   2.172   8.140 -0.1004  0.2146 -0.3152
  132OSM   H15F14321   6.905   2.234   8.081 -1.5343  1.1287 -1.1277
  132OSM   H15G14322   6.886   2.078   8.167  1.1053  0.5288 -1.4775
  132OSM   C16F14323   6.806   2.242   8.280  0.0630  1.1437  0.6594
  132OSM   H16F14324   6.760   2.167   8.348 -2.1049  1.0769 -0.8257
  132OSM   H16G14325   6.733   2.321   8.255 -0.1665  1.1358  1.3061
  132OSM   C17F14326   6.929   2.309   8.329 -0.3652 -0.0143 -0.4751
  132OSM   H17F14327   6.960   2.386   8.256  0.6117  0.1563  0.1192
  132OSM   H17G14328   7.009   2.232   8.330 -1.0958 -0.7800  1.6057
  132OSM   C18F14329   6.905   2.363   8.473 -0.2448  0.2198 -0.2652
  132OSM   H18F14330   6.982   2.432   8.514  0.1708 -0.6156  0.3892
  132OSM   H18G14331   6.901   2.275   8.540 -1.7895  1.5067  1.3727
  132OSM   H18H14332   6.804   2.408   8.479 -0.1487  0.2213  1.7218
  133OSM      N14333   6.776   2.843   6.136  0.0969 -0.3537 -0.1668
  133OSM    C1514334   6.870   2.936   6.068  0.2059  0.1676  0.1171
  133OSM   H15A14335   6.860   3.039   6.099 -2.8377 -0.4270  1.2460
  133OSM   H15B14336   6.848   2.947   5.963 -0.1308  0.6736  0.2387
  133OSM   H15C14337   6.970   2.900   6.088 -0.1054 -0.4030  0.6589
  133OSM    C1414338   6.638   2.898   6.126 -0.5702  0.3229  0.2985
  133OSM   H14A14339   6.562   2.833   6.165 -0.1799 -0.4840 -0.2824
  133OSM   H14B14340   6.619   2.901   6.020 -1.3322  0.3282  0.4322
  133OSM   H14C14341   6.645   2.997   6.170  1.1143  1.3133 -2.0379
  133OSM    C1314342   6.773   2.719   6.056 -0.3812 -0.3532  0.0099
  133OSM   H13A14343   6.734   2.735   5.956 -1.4793  0.0842  0.5048
  133OSM   H13B14344   6.727   2.640   6.115 -0.8082 -1.3983 -1.6674
  133OSM   H13C14345   6.874   2.682   6.045  0.4987  2.3741 -1.6784
  133OSM    C1214346   6.823   2.819   6.276 -0.3015  0.1564 -0.0917
  133OSM   H12A14347   6.761   2.741   6.317 -0.5428  0.7383  0.6641
  133OSM   H12B14348   6.813   2.907   6.337  1.7406  0.2560  0.1259
  133OSM    C1114349   6.963   2.763   6.308  0.0254 -0.2583 -0.5705
  133OSM   H11A14350   6.979   2.755   6.418 -0.5359 -1.6489 -0.5667
  133OSM   H11B14351   7.040   2.833   6.271  0.7001 -0.4520  0.4246
  133OSM      P14352   6.948   2.503   6.335  0.0343 -0.0223 -0.2795
  133OSM    O1314353   6.941   2.391   6.243 -0.2339  0.3102  0.7464
  133OSM    O1414354   7.053   2.497   6.442 -0.0652 -0.2731 -0.0429
  133OSM    O1114355   6.804   2.534   6.397 -0.0419  0.2754  0.1563
  133OSM    O1214356   6.980   2.637   6.247  0.4824  0.3506  0.2852
  133OSM    C1S14357   6.753   2.414   6.462 -0.5278 -0.2944 -0.3015
  133OSM    H1S14358   6.802   2.316   6.447 -0.9927 -0.7669  1.2335
  133OSM    H1T14359   6.646   2.404   6.435 -0.4408 -0.5939 -0.5340
  133OSM     NF14360   6.698   2.325   6.681  0.0494 -0.3245  0.7658
  133OSM    HNF14361   6.601   2.313   6.700 -0.1743  0.3722  0.0911
  133OSM    C2S14362   6.746   2.449   6.615  0.0573  1.0132 -0.4362
  133OSM    H2S14363   6.848   2.478   6.649  0.2642 -1.1285  0.7977
  133OSM    C3S14364   6.655   2.574   6.640  0.1125 -0.5464  0.1662
  133OSM    H3S14365   6.550   2.541   6.620 -0.7389  3.0995 -1.8876
  133OSM     O314366   6.676   2.695   6.561 -0.1746 -0.0543  0.3815
  133OSM    HO314367   6.736   2.667   6.491 -1.5920 -2.5644  0.1029
  133OSM    C4S14368   6.650   2.600   6.785 -0.0771  0.1925  0.0933
  133OSM    H4S14369   6.575   2.541   6.840  0.3080  0.1608  0.5905
  133OSM    C5S14370   6.748   2.676   6.837  0.5253  1.2369  0.0160
  133OSM    H5S14371   6.836   2.701   6.776  0.6001  1.3586  0.1731
  133OSM    C6S14372   6.765   2.698   6.986  0.3740  0.0858  0.4582
  133OSM    H6S14373   6.681   2.660   7.048  0.2476  0.3228  0.4359
  133OSM    H6T14374   6.792   2.802   7.014  0.5838  0.5722 -1.5143
  133OSM    C7S14375   6.889   2.614   7.030  0.2731  0.3099 -0.1558
  133OSM    H7S14376   6.989   2.639   6.989  1.3408 -1.4615  1.2894
  133OSM    H7T14377   6.883   2.510   6.991  0.1111 -0.0421  0.7800
  133OSM    C8S14378   6.898   2.579   7.183  0.8302  0.1509  0.0439
  133OSM    H8S14379   6.985   2.511   7.192  1.5240  1.0164 -0.1200
  133OSM    H8T14380   6.806   2.517   7.195 -0.1208  2.1689  4.0604
  133OSM    C9S14381   6.903   2.697   7.276 -0.0861  0.0952 -0.5950
  133OSM    H9S14382   6.801   2.740   7.265  0.1892  0.9307  0.0470
  133OSM    H9T14383   6.977   2.769   7.235  2.2605 -0.8274  1.8600
  133OSM   C10S14384   6.945   2.662   7.422 -0.6619 -0.1314 -0.1434
  133OSM   H10S14385   7.047   2.617   7.415 -0.1092  0.7346  1.8336
  133OSM   H10T14386   6.876   2.576   7.441 -0.6199 -0.2922 -0.7141
  133OSM   C11S14387   6.945   2.771   7.529 -0.7972 -0.3390 -0.1050
  133OSM   H11S14388   6.843   2.815   7.531 -1.1230 -1.1741  2.5511
  133OSM   H11T14389   7.016   2.850   7.495 -1.2809 -0.3361 -1.1301
  133OSM   C12S14390   6.984   2.731   7.668  1.1892  0.2881 -0.9013
  133OSM   H12S14391   7.068   2.661   7.685  1.0160  0.3544  0.2578
  133OSM   H12T14392   6.892   2.683   7.710  1.4351  0.2959 -0.3481
  133OSM   C13S14393   7.000   2.853   7.764 -0.5557 -0.1210  0.3249
  133OSM   H13S14394   6.913   2.920   7.782 -0.7177 -0.7288  1.8968
  133OSM   H13T14395   7.091   2.907   7.730  0.5980 -2.2530 -0.0875
  133OSM   C14S14396   7.050   2.800   7.905  0.0081  0.0194  0.0504
  133OSM   H14S14397   7.156   2.767   7.893  0.1072 -0.4494  1.9697
  133OSM   H14T14398   6.986   2.716   7.937  1.2377 -1.3796 -1.1087
  133OSM   C15S14399   7.020   2.906   8.016  0.6889 -0.0488  0.0231
  133OSM   H15S14400   6.911   2.926   8.017  0.4350 -1.3830  0.1725
  133OSM   H15T14401   7.069   3.001   7.986  1.6500 -1.0197 -1.5772
  133OSM   C16S14402   7.087   2.861   8.148 -0.9260  0.7458 -0.4425
  133OSM   H16S14403   7.193   2.846   8.116 -0.9218  2.7444 -1.4690
  133OSM   H16T14404   7.026   2.771   8.168 -1.3641  1.0010 -0.6229
  133OSM   C17S14405   7.089   2.968   8.260  0.0876 -0.3392 -0.8451
  133OSM   H17S14406   7.138   3.055   8.211 -0.5157  0.2742 -0.3475
  133OSM   H17T14407   7.151   2.934   8.346  0.7829 -0.0614 -1.2334
  133OSM   C18S14408   6.951   2.993   8.318 -0.6227  0.0051 -0.7025
  133OSM   H18S14409   6.928   2.897   8.369 -2.5199  1.1409  0.6578
  133OSM   H18T14410   6.864   3.009   8.250 -1.5267 -1.3088  0.1076
  133OSM   H18U14411   6.949   3.082   8.384  0.1913  0.8128 -1.7452
  133OSM    C1F14412   6.785   2.216   6.695 -0.0865 -0.7277 -0.7402
  133OSM     OF14413   6.908   2.228   6.672 -0.3598  0.3687 -0.3269
  133OSM    C2F14414   6.731   2.083   6.709  0.3567 -0.4023  0.0997
  133OSM    H2F14415   6.785   2.004   6.652  1.6324 -0.2971  1.1238
  133OSM    H2G14416   6.622   2.085   6.689  0.1364 -2.5988  0.9326
  133OSM    C3F14417   6.747   2.044   6.859  0.0673  0.0364 -0.8298
  133OSM    H3F14418   6.701   2.121   6.925  0.5871  1.1235 -1.7204
  133OSM    H3G14419   6.849   2.018   6.892 -0.1834  0.9548  0.7274
  133OSM    C4F14420   6.668   1.910   6.868 -0.3468 -0.3671 -0.0367
  133OSM    H4F14421   6.726   1.848   6.797  0.5871  1.3271 -0.7883
  133OSM    H4G14422   6.561   1.914   6.840  0.2823 -0.4574 -2.5050
  133OSM    C5F14423   6.679   1.855   7.015  0.7150 -0.3040  0.1335
  133OSM    H5F14424   6.613   1.911   7.085  1.2176  0.8054 -0.2719
  133OSM    H5G14425   6.778   1.882   7.057  0.5937  0.2978  0.0386
  133OSM    C6F14426   6.660   1.705   7.044  0.0772  0.1783  0.2876
  133OSM    H6F14427   6.655   1.680   7.152  0.2713 -0.0880  0.2358
  133OSM    H6G14428   6.745   1.646   7.004 -0.6505 -1.6005  1.3163
  133OSM    C7F14429   6.540   1.645   6.967  0.4859  0.2776 -0.1756
  133OSM    H7F14430   6.557   1.537   6.986 -1.2140  0.5238  3.0799
  133OSM    H7G14431   6.552   1.654   6.857  0.1869 -1.3208 -0.3567
  133OSM    C8F14432   6.402   1.685   7.017  0.1611  0.2588 -0.3431
  133OSM    H8F14433   6.375   1.780   6.967  1.3798 -0.1366 -1.7922
  133OSM    H8G14434   6.411   1.719   7.122  0.8498 -2.0954  0.4047
  133OSM    C9F14435   6.284   1.589   7.005  0.1196 -0.0819 -0.2052
  133OSM    H9F14436   6.222   1.615   6.918  0.8692 -0.3596 -0.8319
  133OSM   C10F14437   6.255   1.479   7.069  0.7239  0.4890 -0.4224
  133OSM   H10F14438   6.160   1.427   7.049  0.1487  1.1857  0.4185
  133OSM   C11F14439   6.338   1.431   7.182  0.3891  0.2571 -0.1617
  133OSM   H11F14440   6.295   1.435   7.285  0.8576 -0.3216  0.0588
  133OSM   H11G14441   6.433   1.488   7.179  0.5303  0.0624  0.5062
  133OSM   C12F14442   6.382   1.285   7.175  0.6897  0.4430 -0.6181
  133OSM   H12F14443   6.422   1.259   7.275 -0.0487  0.0891 -0.4172
  133OSM   H12G14444   6.467   1.283   7.103  0.5576  0.2529 -0.7687
  133OSM   C13F14445   6.280   1.172   7.148  0.2994 -0.1742  0.3399
  133OSM   H13F14446   6.323   1.070   7.156 -1.3175 -0.8212  0.9894
  133OSM   H13G14447   6.247   1.183   7.043  3.6543  0.0842 -0.7437
  133OSM   C14F14448   6.155   1.167   7.233  0.9634  0.4244  0.2497
  133OSM   H14F14449   6.121   1.271   7.253 -1.6800  0.2046 -2.5563
  133OSM   H14G14450   6.181   1.124   7.332 -0.5725  1.3207  1.0559
  133OSM   C15F14451   6.031   1.110   7.169  0.8523 -0.0535  0.2966
  133OSM   H15F14452   6.058   1.015   7.118 -0.6763  0.2646 -1.1381
  133OSM   H15G14453   5.991   1.181   7.094  3.0619  1.3963  0.4583
  133OSM   C16F14454   5.925   1.075   7.274  0.2661 -0.3504 -0.5609
  133OSM   H16F14455   5.887   1.170   7.318  0.2544 -0.9798  0.8198
  133OSM   H16G14456   5.969   1.012   7.354  0.9479  0.9425  0.1076
  133OSM   C17F14457   5.807   0.988   7.225 -0.2106  0.6317 -0.1302
  133OSM   H17F14458   5.735   0.974   7.309 -1.1851  1.2742 -0.8465
  133OSM   H17G14459   5.848   0.890   7.194  1.9473  1.7448 -0.9067
  133OSM   C18F14460   5.728   1.049   7.111 -0.3068 -0.1662 -0.2745
  133OSM   H18F14461   5.645   0.978   7.088 -0.1704 -0.6597  0.7097
  133OSM   H18G14462   5.802   1.067   7.030  1.5028 -1.3724  1.0643
  133OSM   H18H14463   5.674   1.143   7.132 -0.1971  0.1232 -1.2350
  134OSM      N14464   0.304   5.255   6.287 -0.4457  0.3604  0.0559
  134OSM    C1514465   0.263   5.326   6.165 -0.0546  0.0096 -0.4719
  134OSM   H15A14466   0.167   5.300   6.122 -1.3934  2.2501  1.0434
  134OSM   H15B14467   0.323   5.304   6.078  1.9147  1.7973  0.4096
  134OSM   H15C14468   0.261   5.431   6.192  2.4288  0.3748 -1.5857
  134OSM    C1414469   0.199   5.281   6.395 -0.8822  0.5128  0.0494
  134OSM   H14A14470   0.218   5.236   6.492  0.0383 -0.6073 -0.6414
  134OSM   H14B14471   0.102   5.250   6.359 -1.1726  1.7391 -0.2293
  134OSM   H14C14472   0.190   5.387   6.412  0.8984  0.4887  1.3330
  134OSM    C1314473   0.299   5.113   6.238  0.1189 -0.2965 -0.3689
  134OSM   H13A14474   0.313   5.038   6.314 -0.8078  1.1461  1.2531
  134OSM   H13B14475   0.368   5.094   6.157  0.4326 -0.3306 -0.0915
  134OSM   H13C14476   0.202   5.097   6.193  0.1143 -0.1891 -0.3964
  134OSM    C1214477   0.452   5.294   6.330  0.6141 -0.1067  0.0759
  134OSM   H12A14478   0.458   5.401   6.321 -1.3778 -0.0469 -0.7788
  134OSM   H12B14479   0.518   5.245   6.259  1.4599  1.2432 -0.0794
  134OSM    C1114480   0.506   5.253   6.460  0.4314  0.5525 -0.1708
  134OSM   H11A14481   0.512   5.142   6.459 -0.3521  0.5003  0.1497
  134OSM   H11B14482   0.437   5.298   6.536  2.1561 -1.1354  2.4773
  134OSM      P14483   0.759   5.247   6.388 -0.2099  0.7598  0.0942
  134OSM    O1314484   0.722   5.228   6.244  0.2490 -0.5427 -0.5276
  134OSM    O1414485   0.876   5.336   6.399  0.0568  0.1110  0.2468
  134OSM    O1114486   0.789   5.109   6.459 -0.1221  0.0141 -0.2017
  134OSM    O1214487   0.634   5.309   6.468  0.2324  0.2859 -0.1883
  134OSM    C1S14488   0.844   5.099   6.585  0.5526 -0.5969 -0.3724
  134OSM    H1S14489   0.878   5.193   6.634 -4.3350  1.4730 -0.7292
  134OSM    H1T14490   0.948   5.058   6.581  0.8095 -0.1078  0.8714
  134OSM     NF14491   0.803   5.015   6.821  0.2667 -0.3382  0.3744
  134OSM    HNF14492   0.868   4.944   6.847 -0.0833 -0.9949 -0.4913
  134OSM    C2S14493   0.766   5.002   6.683  0.1122  0.4473 -0.5943
  134OSM    H2S14494   0.658   5.029   6.673  0.2768  0.8240 -1.3863
  134OSM    C3S14495   0.765   4.862   6.618 -0.0341 -0.2038 -0.2933
  134OSM    H3S14496   0.869   4.823   6.605 -0.9233 -2.5611 -0.5176
  134OSM     O314497   0.717   4.863   6.483 -0.3880  0.5270  0.5847
  134OSM    HO314498   0.730   4.951   6.447  0.1356 -0.0351 -0.6201
  134OSM    C4S14499   0.683   4.764   6.701  0.0646 -0.2911  0.5439
  134OSM    H4S14500   0.575   4.770   6.682  0.7176  1.2630 -3.2682
  134OSM    C5S14501   0.744   4.669   6.775 -0.1146 -0.3341  0.0989
  134OSM    H5S14502   0.854   4.670   6.775 -0.1180  1.4037  0.8750
  134OSM    C6S14503   0.682   4.567   6.860 -0.5591 -0.0441  0.8740
  134OSM    H6S14504   0.731   4.474   6.825 -0.4345 -0.2999  1.7130
  134OSM    H6T14505   0.571   4.558   6.854 -0.2821 -2.6789 -1.4202
  134OSM    C7S14506   0.733   4.575   7.005 -0.2460 -0.4018 -0.7770
  134OSM    H7S14507   0.841   4.553   7.010  0.2014  1.7288 -0.6485
  134OSM    H7T14508   0.688   4.494   7.067  0.8111  1.3613  2.4172
  134OSM    C8S14509   0.692   4.705   7.069  0.5684 -0.1025 -0.0843
  134OSM    H8S14510   0.582   4.705   7.054  0.9025 -0.6149 -2.7528
  134OSM    H8T14511   0.745   4.788   7.017  0.1353  0.8670  0.9843
  134OSM    C9S14512   0.726   4.706   7.220  0.1348 -0.6655  0.6064
  134OSM    H9S14513   0.659   4.629   7.264  0.6251 -1.1910  0.4310
  134OSM    H9T14514   0.697   4.803   7.266  0.2442  0.4843 -1.6643
  134OSM   C10S14515   0.880   4.696   7.259  0.1336 -0.1201  0.7688
  134OSM   H10S14516   0.938   4.770   7.200 -1.2300 -1.1844 -2.0146
  134OSM   H10T14517   0.913   4.602   7.209  0.8479  0.7273 -0.3647
  134OSM   C11S14518   0.913   4.673   7.404 -0.0738 -0.4745  0.5435
  134OSM   H11S14519   1.023   4.661   7.419  0.3983  1.4844 -1.1923
  134OSM   H11T14520   0.856   4.580   7.421  1.4586 -2.0276 -2.3960
  134OSM   C12S14521   0.865   4.795   7.475 -0.4718 -0.0018  0.4546
  134OSM   H12S14522   0.757   4.813   7.457 -0.3712 -1.4549 -1.8043
  134OSM   H12T14523   0.920   4.887   7.447  0.9879 -1.1714 -0.6520
  134OSM   C13S14524   0.865   4.795   7.622 -0.4987  0.0448 -0.5004
  134OSM   H13S14525   0.809   4.880   7.668  0.8513  1.1413 -0.8476
  134OSM   H13T14526   0.965   4.812   7.667  0.1056  1.4331 -2.2933
  134OSM   C14S14527   0.798   4.673   7.683  0.4825  0.2586  0.0472
  134OSM   H14S14528   0.862   4.585   7.657  1.9706  1.1111  0.7603
  134OSM   H14T14529   0.695   4.665   7.642 -0.0754  2.8658  0.9102
  134OSM   C15S14530   0.788   4.690   7.839  0.6732 -0.0796  0.2297
  134OSM   H15S14531   0.734   4.600   7.879 -0.4625  0.3733 -0.2493
  134OSM   H15T14532   0.726   4.780   7.857  0.7830  0.5118 -2.2026
  134OSM   C16S14533   0.913   4.710   7.926  0.1365  0.2446  0.4724
  134OSM   H16S14534   0.970   4.801   7.895  0.0106  0.0446 -0.3586
  134OSM   H16T14535   0.975   4.618   7.932  0.8562  0.6615 -0.3660
  134OSM   C17S14536   0.875   4.739   8.069 -0.7709 -0.6970  0.0210
  134OSM   H17S14537   0.799   4.820   8.075 -2.1070 -1.7694 -1.8810
  134OSM   H17T14538   0.968   4.765   8.123  0.3006  0.2234 -2.2371
  134OSM   C18S14539   0.801   4.624   8.133 -0.1058  0.1146 -0.0413
  134OSM   H18S14540   0.788   4.645   8.241  1.9550  0.6975  0.1159
  134OSM   H18T14541   0.838   4.522   8.109 -0.8636 -0.5432  1.5267
  134OSM   H18U14542   0.700   4.619   8.086 -0.0508 -3.7301  0.1607
  134OSM    C1F14543   0.777   5.121   6.895  0.5954 -0.4630 -0.6254
  134OSM     OF14544   0.716   5.215   6.843 -0.9146 -0.0784  0.1127
  134OSM    C2F14545   0.813   5.114   7.048  0.0561 -0.6400  0.4678
  134OSM    H2F14546   0.913   5.163   7.046  0.5314 -1.5853  0.6664
  134OSM    H2G14547   0.820   5.008   7.083  0.9003 -0.2325  1.5730
  134OSM    C3F14548   0.711   5.181   7.142  0.1599  0.7572  0.5101
  134OSM    H3F14549   0.608   5.144   7.123  0.9241  0.1273 -2.5310
  134OSM    H3G14550   0.710   5.292   7.127 -0.1400  1.1679  3.2533
  134OSM    C4F14551   0.739   5.149   7.289  0.4831 -0.1134 -0.9043
  134OSM    H4F14552   0.849   5.153   7.303  0.3598  1.7421 -0.3270
  134OSM    H4G14553   0.701   5.047   7.310  0.0683  0.1340 -0.4449
  134OSM    C5F14554   0.685   5.249   7.392  0.5536 -0.1579  0.6293
  134OSM    H5F14555   0.576   5.245   7.374  0.4551 -0.7008  1.3176
  134OSM    H5G14556   0.729   5.349   7.374  0.1844 -0.0189  0.5140
  134OSM    C6F14557   0.720   5.201   7.536  1.1524  0.2184  0.0666
  134OSM    H6F14558   0.830   5.194   7.546  1.1974 -0.4253 -0.7930
  134OSM    H6G14559   0.682   5.097   7.542  0.1857  0.6688  2.3265
  134OSM    C7F14560   0.660   5.289   7.643  0.0334  0.2608  0.5849
  134OSM    H7F14561   0.549   5.284   7.637  0.0364  1.4628 -1.0035
  134OSM    H7G14562   0.690   5.394   7.622 -2.2193  1.6423  3.8666
  134OSM    C8F14563   0.708   5.245   7.789  0.0081 -0.4905 -0.0928
  134OSM    H8F14564   0.817   5.226   7.778  0.4317  1.7558 -0.0071
  134OSM    H8G14565   0.662   5.146   7.810  1.0102 -0.4941  2.2588
  134OSM    C9F14566   0.680   5.343   7.895 -0.2459 -0.0190 -0.1940
  134OSM    H9F14567   0.753   5.420   7.924  1.4081 -1.1388 -1.3119
  134OSM   C10F14568   0.560   5.349   7.947 -0.6687 -0.6830 -0.0766
  134OSM   H10F14569   0.550   5.426   8.025  3.7488 -0.0237 -0.0593
  134OSM   C11F14570   0.438   5.273   7.914 -0.2497  0.4682  0.1968
  134OSM   H11F14571   0.452   5.200   7.832  2.8733  3.3562 -1.9899
  134OSM   H11G14572   0.365   5.348   7.877 -0.9625 -0.3489 -0.0725
  134OSM   C12F14573   0.387   5.212   8.045  0.1114  0.6444 -0.4493
  134OSM   H12F14574   0.278   5.202   8.028  0.5277 -1.6972 -1.9582
  134OSM   H12G14575   0.382   5.284   8.130 -3.0575 -0.4704  0.3698
  134OSM   C13F14576   0.462   5.086   8.073  0.6762 -0.4558 -0.1768
  134OSM   H13F14577   0.569   5.102   8.099  0.7042  0.2167 -0.7226
  134OSM   H13G14578   0.453   5.013   7.989  3.3151 -3.5318  2.0509
  134OSM   C14F14579   0.396   5.021   8.196  0.7321  0.0989 -0.2157
  134OSM   H14F14580   0.305   4.968   8.161  0.2501 -0.5533  1.9888
  134OSM   H14G14581   0.364   5.089   8.277 -2.0921 -0.9192 -0.4305
  134OSM   C15F14582   0.485   4.915   8.262  0.2056  0.5516  0.6143
  134OSM   H15F14583   0.574   4.959   8.312 -0.9482  0.2943  2.9527
  134OSM   H15G14584   0.509   4.846   8.178  0.5875 -0.6659  1.7109
  134OSM   C16F14585   0.420   4.836   8.379  0.3336 -0.4305  0.7179
  134OSM   H16F14586   0.327   4.785   8.344  2.0278 -2.8786 -0.3231
  134OSM   H16G14587   0.391   4.908   8.458  2.1751  1.5845 -0.3989
  134OSM   C17F14588   0.523   4.739   8.444  0.5726  0.3127  0.2090
  134OSM   H17F14589   0.620   4.791   8.435 -0.3476  2.1582  0.7472
  134OSM   H17G14590   0.516   4.640   8.394  0.7303  0.1699  0.4713
  134OSM   C18F14591   0.519   4.702   8.592  0.0009  0.3087  0.4289
  134OSM   H18F14592   0.605   4.636   8.621 -1.1085 -1.5473 -0.3873
  134OSM   H18G14593   0.423   4.654   8.621 -0.0995  1.7443  2.5581
  134OSM   H18H14594   0.516   4.797   8.649 -1.6451  0.5636 -0.0769
  135OSM      N14595   0.630   5.722   6.131  0.1078  0.2666 -0.2248
  135OSM    C1514596   0.711   5.841   6.102 -0.4783  0.0349  0.2238
  135OSM   H15A14597   0.678   5.883   6.008  0.6134  1.5694  0.5164
  135OSM   H15B14598   0.817   5.824   6.091 -0.5986  0.1551 -1.2441
  135OSM   H15C14599   0.694   5.914   6.180  1.5251  2.5672 -1.6592
  135OSM    C1414600   0.674   5.620   6.034 -0.5927 -0.4617 -0.6591
  135OSM   H14A14601   0.645   5.653   5.936  1.2562  0.1013 -1.0312
  135OSM   H14B14602   0.625   5.525   6.054 -0.4405 -0.8000 -1.8504
  135OSM   H14C14603   0.782   5.612   6.035 -0.3657  2.2686 -1.7058
  135OSM    C1314604   0.653   5.684   6.276 -0.1726  0.2798 -0.4009
  135OSM   H13A14605   0.756   5.678   6.307 -0.4805 -0.2263  0.5508
  135OSM   H13B14606   0.607   5.590   6.303  0.6140  0.6638  2.4903
  135OSM   H13C14607   0.598   5.754   6.338  0.2315 -0.5993  0.9798
  135OSM    C1214608   0.480   5.753   6.112  0.7071 -0.2233 -0.6008
  135OSM   H12A14609   0.467   5.802   6.016 -1.0377  0.1778 -0.1729
  135OSM   H12B14610   0.463   5.836   6.178  1.5442 -0.0578 -0.5957
  135OSM    C1114611   0.371   5.647   6.124 -0.0235  0.2376 -0.0369
  135OSM   H11A14612   0.411   5.559   6.068 -1.8270 -0.7895  0.2479
  135OSM   H11B14613   0.274   5.672   6.077  0.8213 -0.4882 -2.2500
  135OSM      P14614   0.253   5.654   6.365 -0.0767 -0.1937  0.1328
  135OSM    O1314615   0.265   5.798   6.386 -0.3778 -0.7204  0.5519
  135OSM    O1414616   0.121   5.610   6.318  0.2421 -0.1676  0.5328
  135OSM    O1114617   0.296   5.577   6.502 -0.4888  0.0800 -0.3354
  135OSM    O1214618   0.367   5.611   6.253 -0.7252 -0.0851  0.2789
  135OSM    C1S14619   0.424   5.617   6.566 -0.3503 -0.3651  0.7821
  135OSM    H1S14620   0.475   5.706   6.523  0.2905 -1.0266  0.1580
  135OSM    H1T14621   0.500   5.540   6.540 -1.2593 -1.3458  1.0051
  135OSM     NF14622   0.539   5.683   6.767  0.0996  0.5669  0.1522
  135OSM    HNF14623   0.613   5.621   6.790  0.8376  1.2018 -0.4787
  135OSM    C2S14624   0.415   5.621   6.716  0.0955 -0.8321  0.0002
  135OSM    H2S14625   0.331   5.691   6.738 -0.5112 -0.9327 -1.8822
  135OSM    C3S14626   0.381   5.484   6.774  0.0163  0.1555 -0.8375
  135OSM    H3S14627   0.460   5.414   6.739  0.3783  0.6603 -1.0393
  135OSM     O314628   0.266   5.424   6.716  0.1349 -0.6385  0.1702
  135OSM    HO314629   0.249   5.479   6.639 -1.5116  1.9556  2.3352
  135OSM    C4S14630   0.374   5.493   6.925 -1.4583  0.1213 -0.5131
  135OSM    H4S14631   0.317   5.582   6.956  0.1830  1.4200 -1.1325
  135OSM    C5S14632   0.438   5.417   7.015 -0.3688  0.5495 -0.0130
  135OSM    H5S14633   0.483   5.325   6.973  0.3769  0.7915  0.2370
  135OSM    C6S14634   0.440   5.423   7.163  0.1984 -0.7892  0.2339
  135OSM    H6S14635   0.542   5.445   7.202  0.7225 -0.7162 -1.1385
  135OSM    H6T14636   0.392   5.328   7.196 -1.4317 -1.1148 -2.8627
  135OSM    C7S14637   0.359   5.546   7.213  0.3522  0.5908 -0.6259
  135OSM    H7S14638   0.254   5.531   7.181  0.7824  0.1201 -1.8383
  135OSM    H7T14639   0.409   5.632   7.163 -0.1579 -0.3694 -2.8692
  135OSM    C8S14640   0.355   5.566   7.364  0.0749 -0.3692 -0.4674
  135OSM    H8S14641   0.459   5.564   7.405 -0.9325 -1.5344  2.1784
  135OSM    H8T14642   0.296   5.487   7.414 -0.0862  0.1495  0.1764
  135OSM    C9S14643   0.303   5.705   7.399 -0.0404  0.8952  0.3249
  135OSM    H9S14644   0.201   5.713   7.355 -0.0677 -0.6907  0.0616
  135OSM    H9T14645   0.371   5.783   7.358  1.6195 -0.3100  0.7522
  135OSM   C10S14646   0.292   5.719   7.548  0.1596  0.0887 -0.4573
  135OSM   H10S14647   0.377   5.674   7.603 -0.1727 -0.3514 -0.3095
  135OSM   H10T14648   0.198   5.668   7.576  1.2597 -0.4769  2.3882
  135OSM   C11S14649   0.287   5.870   7.567  0.3674  0.7974 -0.3621
  135OSM   H11S14650   0.197   5.910   7.517 -1.2722 -1.3621  0.7844
  135OSM   H11T14651   0.366   5.920   7.507 -0.0831  1.6132 -0.2788
  135OSM   C12S14652   0.308   5.905   7.714  0.7504 -0.2539  0.3460
  135OSM   H12S14653   0.323   6.015   7.716  0.6425 -0.2359  0.2200
  135OSM   H12T14654   0.395   5.846   7.749 -0.1153 -0.3911  2.3655
  135OSM   C13S14655   0.180   5.874   7.802  0.5946 -0.2469 -0.2673
  135OSM   H13S14656   0.177   5.764   7.818 -1.2109 -0.5527 -2.4320
  135OSM   H13T14657   0.085   5.898   7.749  0.7116  4.2096  1.3586
  135OSM   C14S14658   0.178   5.927   7.947  0.3408 -1.4067 -0.2553
  135OSM   H14S14659   0.085   5.885   7.991 -0.0067  1.2690  1.7122
  135OSM   H14T14660   0.162   6.037   7.946 -0.4527 -1.5103 -2.3612
  135OSM   C15S14661   0.299   5.907   8.032  0.7122 -0.6297  0.4054
  135OSM   H15S14662   0.289   5.961   8.129 -1.7707  1.7008 -1.0636
  135OSM   H15T14663   0.380   5.952   7.970  0.3541 -0.0663  0.3443
  135OSM   C16S14664   0.328   5.759   8.065 -0.3292  0.6373 -0.2064
  135OSM   H16S14665   0.310   5.703   7.970 -2.1987 -2.0456  1.6775
  135OSM   H16T14666   0.265   5.704   8.138  0.3758 -1.9510 -1.4731
  135OSM   C17S14667   0.469   5.738   8.121  0.6904 -0.3732  0.0799
  135OSM   H17S14668   0.470   5.643   8.179  0.7034 -0.3992  0.0381
  135OSM   H17T14669   0.481   5.817   8.198  2.3533 -1.9869  1.5422
  135OSM   C18S14670   0.573   5.730   8.015  1.1338  0.3409  0.1176
  135OSM   H18S14671   0.669   5.706   8.065 -0.6851 -2.8028  2.2309
  135OSM   H18T14672   0.585   5.828   7.963  4.6403 -1.3437 -2.4824
  135OSM   H18U14673   0.557   5.656   7.934  0.1146 -0.2898  0.8901
  135OSM    C1F14674   0.568   5.813   6.768  0.4739  0.7335 -0.5046
  135OSM     OF14675   0.485   5.899   6.756  0.2023  0.3982  0.7306
  135OSM    C2F14676   0.711   5.834   6.790 -0.6577 -0.1697  0.8414
  135OSM    H2F14677   0.741   5.940   6.802  0.6099 -0.2017 -1.6835
  135OSM    H2G14678   0.769   5.786   6.708 -0.1939 -2.1715  2.3059
  135OSM    C3F14679   0.755   5.762   6.920  0.5583 -0.2201 -0.7100
  135OSM    H3F14680   0.864   5.785   6.930  1.0468 -2.1949 -1.2230
  135OSM    H3G14681   0.742   5.652   6.927 -0.4428  0.1008  5.1221
  135OSM    C4F14682   0.680   5.820   7.043  0.0757  0.5124 -0.0493
  135OSM    H4F14683   0.576   5.783   7.057  0.0324 -1.0584 -3.9563
  135OSM    H4G14684   0.668   5.930   7.051 -2.7192  0.3890 -1.6337
  135OSM    C5F14685   0.763   5.782   7.167  0.2486 -0.4518  0.3733
  135OSM    H5F14686   0.857   5.841   7.160  0.5084 -0.8341  0.5725
  135OSM    H5G14687   0.793   5.676   7.151  0.8836  0.2817 -4.1412
  135OSM    C6F14688   0.695   5.824   7.289  0.3842 -0.2803 -0.0744
  135OSM    H6F14689   0.595   5.775   7.289  1.1649 -1.9806 -1.9536
  135OSM    H6G14690   0.686   5.934   7.301  2.2298  0.0295 -1.3482
  135OSM    C7F14691   0.773   5.774   7.407  0.0983  0.1470 -0.1312
  135OSM    H7F14692   0.881   5.796   7.397  0.5795 -1.1334  2.1239
  135OSM    H7G14693   0.770   5.663   7.404  1.0413  0.1094  0.2610
  135OSM    C8F14694   0.734   5.848   7.538 -1.0313 -0.1214  1.0085
  135OSM    H8F14695   0.624   5.858   7.545 -0.8027  1.9086  2.1268
  135OSM    H8G14696   0.767   5.955   7.539  1.2508 -0.6935 -2.4098
  135OSM    C9F14697   0.775   5.759   7.657 -0.2536  0.4522 -0.0627
  135OSM    H9F14698   0.734   5.657   7.653 -0.5273  0.6236 -2.2299
  135OSM   C10F14699   0.852   5.799   7.764  0.4142  0.7519 -0.4951
  135OSM   H10F14700   0.860   5.722   7.842  1.4823 -1.3139 -2.5561
  135OSM   C11F14701   0.919   5.927   7.798  0.0563  0.0466  0.0643
  135OSM   H11F14702   0.873   6.005   7.733  0.0020 -1.3885 -1.6539
  135OSM   H11G14703   1.028   5.927   7.779  0.0391 -0.9785 -0.0256
  135OSM   C12F14704   0.910   5.976   7.947  0.2194 -0.0792 -0.0897
  135OSM   H12F14705   0.808   6.018   7.961 -0.7143 -1.4429 -2.4717
  135OSM   H12G14706   0.968   6.068   7.966 -0.4068 -0.1345  2.2188
  135OSM   C13F14707   0.936   5.875   8.061  0.3134 -0.5642  0.2481
  135OSM   H13F14708   1.042   5.840   8.058  0.3264 -0.6246  1.2597
  135OSM   H13G14709   0.870   5.788   8.039  1.6574 -1.0698 -1.9463
  135OSM   C14F14710   0.898   5.929   8.204 -0.0812  0.0276  0.3985
  135OSM   H14F14711   0.787   5.935   8.206 -0.1985  0.7018 -4.0092
  135OSM   H14G14712   0.938   6.032   8.204  0.6339 -0.2459  0.8943
  135OSM   C15F14713   0.971   5.854   8.320  0.0677  0.4104 -0.4549
  135OSM   H15F14714   0.936   5.902   8.414  0.2297  0.0956 -0.2325
  135OSM   H15G14715   1.079   5.881   8.321  0.6891 -1.9893 -0.5522
  135OSM   C16F14716   0.956   5.701   8.318 -0.1006  0.6558 -0.4093
  135OSM   H16F14717   1.021   5.667   8.235 -1.3764  1.1503 -1.6178
  135OSM   H16G14718   0.850   5.668   8.319 -0.3889  1.5714 -0.5766
  135OSM   C17F14719   1.032   5.650   8.438 -0.3380 -0.0674  0.0090
  135OSM   H17F14720   0.981   5.690   8.528 -0.7156  0.9886 -0.6577
  135OSM   H17G14721   1.133   5.697   8.444  0.6325 -2.1513  0.2725
  135OSM   C18F14722   1.051   5.500   8.449 -0.7263  0.4341  0.0950
  135OSM   H18F14723   1.141   5.473   8.507 -0.5067 -1.3691 -1.0660
  135OSM   H18G14724   1.066   5.449   8.351 -0.6396 -0.6398  0.6651
  135OSM   H18H14725   0.962   5.453   8.495  0.3193 -0.5015  1.1774
  136OSM      N14726   5.505   6.326   5.722 -1.0536  0.1399 -0.1848
  136OSM    C1514727   5.644   6.276   5.746  0.2913 -0.5830 -0.3193
  136OSM   H15A14728   5.675   6.299   5.847 -1.0279  0.0571 -0.0455
  136OSM   H15B14729   5.719   6.327   5.687 -0.4135  0.3614 -0.4171
  136OSM   H15C14730   5.646   6.170   5.727  1.1351 -0.6444  0.0860
  136OSM    C1414731   5.488   6.468   5.735 -0.2074 -0.3385  0.2580
  136OSM   H14A14732   5.520   6.505   5.831  0.0957  1.2749 -0.4444
  136OSM   H14B14733   5.390   6.496   5.699  0.6120  3.6184  0.8572
  136OSM   H14C14734   5.561   6.522   5.676 -0.0105  1.2760  1.9448
  136OSM    C1314735   5.475   6.295   5.576 -0.3104  0.3543 -0.0287
  136OSM   H13A14736   5.534   6.356   5.509  0.4085  1.1420  1.2758
  136OSM   H13B14737   5.371   6.297   5.549  0.1147 -1.7110 -1.9694
  136OSM   H13C14738   5.501   6.192   5.557 -3.7788 -0.7456  0.9036
  136OSM    C1214739   5.402   6.261   5.822  0.6008 -0.2605 -0.8775
  136OSM   H12A14740   5.378   6.157   5.804 -0.9820 -0.3383  1.4950
  136OSM   H12B14741   5.305   6.302   5.798  0.1141  0.3344  1.9651
  136OSM    C1114742   5.434   6.277   5.971 -0.0499 -0.5596 -0.8308
  136OSM   H11A14743   5.536   6.241   5.992 -0.0122 -0.1376 -0.2952
  136OSM   H11B14744   5.360   6.216   6.028  1.0622 -1.0731  0.0796
  136OSM      P14745   5.529   6.497   6.089 -0.5266  0.4627  0.1319
  136OSM    O1314746   5.661   6.438   6.058  0.2730  0.4631 -0.4157
  136OSM    O1414747   5.503   6.645   6.064  0.2773 -0.0270  0.2407
  136OSM    O1114748   5.496   6.474   6.242  0.1516  0.4522 -0.5135
  136OSM    O1214749   5.412   6.409   6.017 -0.3552 -0.1815 -0.6179
  136OSM    C1S14750   5.511   6.350   6.309  0.4845  0.3401 -0.1261
  136OSM    H1S14751   5.613   6.331   6.351  0.4552  2.3679  0.8996
  136OSM    H1T14752   5.477   6.268   6.242  0.8704  0.5126 -0.5375
  136OSM     NF14753   5.433   6.203   6.506 -0.1605  1.1323 -0.6022
  136OSM    HNF14754   5.372   6.127   6.486  0.8901  0.0818  0.0732
  136OSM    C2S14755   5.408   6.325   6.430  1.3209  0.8785 -0.8748
  136OSM    H2S14756   5.421   6.415   6.494 -0.7213  0.2852  0.4122
  136OSM    C3S14757   5.266   6.336   6.368 -0.2216  0.5473  0.6615
  136OSM    H3S14758   5.254   6.245   6.306 -0.4860 -0.7601  2.5597
  136OSM     O314759   5.232   6.457   6.295 -0.3330 -0.3727  0.2791
  136OSM    HO314760   5.321   6.487   6.278  0.2776 -0.6463  2.7117
  136OSM    C4S14761   5.168   6.314   6.480  0.1095 -0.0273  0.2356
  136OSM    H4S14762   5.135   6.209   6.491 -2.7228  0.6785 -1.0834
  136OSM    C5S14763   5.109   6.404   6.561  0.5236  0.2214  0.0854
  136OSM    H5S14764   5.133   6.511   6.548 -0.8480  0.5327  0.0302
  136OSM    C6S14765   5.009   6.374   6.678 -0.2563  0.1260 -0.6791
  136OSM    H6S14766   4.933   6.305   6.635 -0.1599 -0.3217 -0.1261
  136OSM    H6T14767   4.953   6.469   6.693  0.6941  0.6949 -0.6996
  136OSM    C7S14768   5.085   6.311   6.793  0.8193 -0.3582  0.0009
  136OSM    H7S14769   5.152   6.234   6.750  1.0783 -0.3899  0.4626
  136OSM    H7T14770   5.004   6.271   6.857  1.0609  1.6966  1.6555
  136OSM    C8S14771   5.164   6.409   6.887  0.3454 -0.1782  0.7995
  136OSM    H8S14772   5.114   6.507   6.875 -0.2976 -0.6522 -0.5216
  136OSM    H8T14773   5.267   6.417   6.846  0.2978 -1.2890  0.4565
  136OSM    C9S14774   5.178   6.365   7.033  0.0767 -0.1101  0.1293
  136OSM    H9S14775   5.200   6.255   7.031  1.6817  0.1841  0.4382
  136OSM    H9T14776   5.086   6.372   7.094 -0.0508  3.5995 -0.3828
  136OSM   C10S14777   5.296   6.434   7.098  0.3418  0.1931 -0.3813
  136OSM   H10S14778   5.272   6.542   7.115 -0.0470  0.1320 -0.5358
  136OSM   H10T14779   5.394   6.428   7.045  0.6309  1.0491  0.0443
  136OSM   C11S14780   5.309   6.372   7.240  0.0058  0.1810 -0.3147
  136OSM   H11S14781   5.274   6.266   7.234 -1.2669  0.6332 -1.1526
  136OSM   H11T14782   5.237   6.421   7.309 -0.7997 -0.6809 -0.5280
  136OSM   C12S14783   5.451   6.386   7.300 -0.6596 -0.3347  0.0815
  136OSM   H12S14784   5.486   6.489   7.277 -0.8763 -0.0414  1.0412
  136OSM   H12T14785   5.525   6.312   7.263  0.3246  0.0607  1.2331
  136OSM   C13S14786   5.451   6.351   7.448  0.0801  1.0593 -0.0318
  136OSM   H13S14787   5.550   6.321   7.488 -0.1675  0.8311  0.4175
  136OSM   H13T14788   5.400   6.253   7.455  1.0471  0.5419 -0.1023
  136OSM   C14S14789   5.386   6.454   7.542 -0.2982  0.3786 -0.3437
  136OSM   H14S14790   5.279   6.463   7.515 -0.0204  0.8752 -1.3060
  136OSM   H14T14791   5.421   6.558   7.523 -0.5074  0.6483  0.7212
  136OSM   C15S14792   5.414   6.427   7.689 -0.5983  0.5311  0.2299
  136OSM   H15S14793   5.378   6.323   7.704 -1.2323  0.6912 -0.1528
  136OSM   H15T14794   5.345   6.485   7.753 -0.8564 -0.2454  0.6708
  136OSM   C16S14795   5.563   6.445   7.735  0.4944  0.3881 -0.4892
  136OSM   H16S14796   5.614   6.543   7.721  2.2601 -0.6951 -2.0227
  136OSM   H16T14797   5.626   6.379   7.672 -0.2281 -0.5425 -0.2441
  136OSM   C17S14798   5.588   6.397   7.873  0.5628  0.7624 -0.5060
  136OSM   H17S14799   5.564   6.289   7.882  0.2311  0.9465  1.0208
  136OSM   H17T14800   5.522   6.460   7.937 -1.5904 -0.0139 -1.9383
  136OSM   C18S14801   5.729   6.405   7.921 -0.0999 -0.0522 -0.0918
  136OSM   H18S14802   5.735   6.373   8.028 -1.5615 -1.7220 -0.4837
  136OSM   H18T14803   5.753   6.514   7.913  0.0713 -0.0728  0.1338
  136OSM   H18U14804   5.807   6.358   7.858 -0.5874  0.0107 -0.7510
  136OSM    C1F14805   5.537   6.192   6.590 -0.1636  0.0062  0.1179
  136OSM     OF14806   5.621   6.284   6.596 -0.2979  0.2643 -0.1757
  136OSM    C2F14807   5.552   6.057   6.652  0.1908  0.5545  0.0166
  136OSM    H2F14808   5.647   6.017   6.611 -0.1061  1.9690 -2.1183
  136OSM    H2G14809   5.471   5.988   6.621 -0.4551  1.0065  0.6547
  136OSM    C3F14810   5.558   6.070   6.807 -0.2385  0.0884 -0.2504
  136OSM    H3F14811   5.455   6.077   6.846  1.1689  0.8407  3.5647
  136OSM    H3G14812   5.596   6.170   6.840  1.2602 -0.8868  1.0530
  136OSM    C4F14813   5.634   5.948   6.872 -0.2122 -0.9280 -0.0568
  136OSM    H4F14814   5.719   5.927   6.804 -1.1236 -1.7142 -0.9739
  136OSM    H4G14815   5.569   5.858   6.871  0.4444 -1.4384  1.9660
  136OSM    C5F14816   5.670   5.989   7.011 -0.4901 -0.6798  0.1076
  136OSM    H5F14817   5.743   6.072   7.003  0.3654 -1.6724 -3.1128
  136OSM    H5G14818   5.738   5.913   7.055  2.7748  1.2466 -1.3803
  136OSM    C6F14819   5.538   6.006   7.087 -0.2022  0.5780  0.1773
  136OSM    H6F14820   5.450   5.957   7.039  0.4449  0.6762 -1.1141
  136OSM    H6G14821   5.515   6.115   7.081 -0.9521  0.4655  0.8594
  136OSM    C7F14822   5.558   5.963   7.237  0.2187 -0.1543 -0.1631
  136OSM    H7F14823   5.635   6.028   7.286 -2.0711  0.7221  2.4219
  136OSM    H7G14824   5.601   5.861   7.239 -2.7564 -1.4354  0.3640
  136OSM    C8F14825   5.424   5.968   7.313  0.2233  0.0163 -1.0442
  136OSM    H8F14826   5.360   5.896   7.257  0.3867 -2.5369  1.9512
  136OSM    H8G14827   5.378   6.069   7.311  0.1627 -0.0135 -1.1617
  136OSM    C9F14828   5.431   5.929   7.463  0.7653  0.4529  0.1371
  136OSM    H9F14829   5.523   5.952   7.519 -0.7339  1.1454  2.4022
  136OSM   C10F14830   5.326   5.875   7.537  0.1213  1.1312  1.3394
  136OSM   H10F14831   5.345   5.843   7.640 -0.7134 -1.9676  0.5902
  136OSM   C11F14832   5.192   5.826   7.488  0.1506 -0.2318  0.3187
  136OSM   H11F14833   5.192   5.818   7.377  1.5715  1.9202  0.1272
  136OSM   H11G14834   5.111   5.898   7.512 -0.3835  0.8147 -4.0996
  136OSM   C12F14835   5.164   5.683   7.537 -0.1473  0.0406 -0.3608
  136OSM   H12F14836   5.061   5.650   7.511  0.0977 -2.2699  1.4721
  136OSM   H12G14837   5.170   5.686   7.648 -1.3498 -2.1745 -0.1913
  136OSM   C13F14838   5.269   5.574   7.489  0.1148  0.0585  0.5616
  136OSM   H13F14839   5.258   5.473   7.534 -0.3815 -0.2646 -0.2781
  136OSM   H13G14840   5.369   5.607   7.523 -0.0932  0.8531  0.4043
  136OSM   C14F14841   5.272   5.547   7.336 -0.4008  0.2040  0.7418
  136OSM   H14F14842   5.225   5.637   7.291  0.8508  1.3642  1.7150
  136OSM   H14G14843   5.217   5.457   7.301  0.2955  0.3990 -0.9088
  136OSM   C15F14844   5.419   5.546   7.275  0.2908  0.0617 -0.5455
  136OSM   H15F14845   5.466   5.470   7.340  1.6209  0.7957 -0.6271
  136OSM   H15G14846   5.457   5.648   7.296 -0.0435 -0.1522  1.1161
  136OSM   C16F14847   5.423   5.509   7.127  0.1377  0.6269  0.2629
  136OSM   H16F14848   5.350   5.428   7.106 -0.8597  1.4690  0.4191
  136OSM   H16G14849   5.528   5.481   7.108 -0.7239 -0.7944 -2.5963
  136OSM   C17F14850   5.399   5.626   7.036  0.1006 -1.1161 -0.2807
  136OSM   H17F14851   5.469   5.704   7.074 -1.4966 -0.1729  0.7763
  136OSM   H17G14852   5.290   5.644   7.043  0.2981 -0.0167  0.1100
  136OSM   C18F14853   5.438   5.603   6.884  0.1357  1.0168 -0.4822
  136OSM   H18F14854   5.380   5.520   6.837 -1.9670  2.4099 -0.4066
  136OSM   H18G14855   5.543   5.569   6.901 -1.1852 -2.5165  1.1443
  136OSM   H18H14856   5.421   5.700   6.834  2.2354  1.3183 -0.6555
  137OSM      N14857   1.148   5.068   6.280  0.0890 -0.0322  0.1177
  137OSM    C1514858   1.035   4.974   6.291  0.0340  0.0036  0.6644
  137OSM   H15A14859   1.012   4.919   6.200 -1.5755 -0.7615  1.5053
  137OSM   H15B14860   0.943   5.023   6.319  1.6219  2.1699  2.2121
  137OSM   H15C14861   1.065   4.892   6.355 -0.1502  0.9488  1.9709
  137OSM    C1414862   1.135   5.122   6.143 -0.0248 -0.0853 -0.6831
  137OSM   H14A14863   1.034   5.109   6.107 -0.5299 -2.1192  1.3223
  137OSM   H14B14864   1.199   5.070   6.073  0.5037  1.0683 -1.0640
  137OSM   H14C14865   1.163   5.226   6.140  2.0721 -0.6761 -2.6312
  137OSM    C1314866   1.145   5.177   6.390  0.2232  0.1606 -0.3925
  137OSM   H13A14867   1.222   5.252   6.379  0.8223 -0.7276 -2.4602
  137OSM   H13B14868   1.155   5.135   6.489  0.3426 -0.3562 -0.6244
  137OSM   H13C14869   1.046   5.219   6.386 -0.6305 -1.8890 -1.2814
  137OSM    C1214870   1.273   4.987   6.302 -0.7029  0.4493  0.4035
  137OSM   H12A14871   1.357   5.045   6.266 -0.4536  0.6298  1.2568
  137OSM   H12B14872   1.269   4.903   6.234  1.2726  1.3920 -0.9145
  137OSM    C1114873   1.314   4.932   6.440  0.9069 -0.1877 -0.1519
  137OSM   H11A14874   1.308   5.022   6.506 -1.0047  1.1864 -2.0957
  137OSM   H11B14875   1.420   4.902   6.428  1.3520  1.3648 -0.1979
  137OSM      P14876   1.251   4.673   6.432  0.4827 -0.0287 -0.1853
  137OSM    O1314877   1.153   4.595   6.504  0.3707  0.0308 -0.1871
  137OSM    O1414878   1.241   4.683   6.289  0.4048 -0.7439  0.2881
  137OSM    O1114879   1.401   4.652   6.469 -0.6272 -0.2382 -0.4974
  137OSM    O1214880   1.233   4.819   6.487  0.5324  0.0700 -0.0261
  137OSM    C1S14881   1.447   4.660   6.603  0.5932 -0.0756 -0.6895
  137OSM    H1S14882   1.382   4.733   6.656 -0.4109 -0.1768 -1.7586
  137OSM    H1T14883   1.546   4.710   6.607 -0.3364  1.6615  3.1885
  137OSM     NF14884   1.474   4.548   6.812  0.3587  0.0235  0.3051
  137OSM    HNF14885   1.571   4.553   6.835  0.1497 -0.4815  1.3406
  137OSM    C2S14886   1.458   4.518   6.672 -0.5668  0.5916 -0.8081
  137OSM    H2S14887   1.356   4.473   6.666  0.1886 -1.2353 -0.2187
  137OSM    C3S14888   1.568   4.432   6.604  0.5145 -0.0031  0.3148
  137OSM    H3S14889   1.660   4.492   6.624  0.9178  0.2217 -2.0717
  137OSM     O314890   1.549   4.433   6.462  0.1576  0.3083  0.4186
  137OSM    HO314891   1.478   4.495   6.443 -0.1518 -0.5728 -1.4316
  137OSM    C4S14892   1.564   4.291   6.657  0.8684  0.5769  0.0463
  137OSM    H4S14893   1.471   4.238   6.631  0.3022  1.4634  0.2433
  137OSM    C5S14894   1.648   4.231   6.739 -0.4884 -0.2267  0.1302
  137OSM    H5S14895   1.732   4.290   6.777 -0.4241  0.0798 -0.4721
  137OSM    C6S14896   1.639   4.091   6.782  0.1207 -0.0164 -0.4965
  137OSM    H6S14897   1.733   4.034   6.767  0.8105  1.1284 -0.5808
  137OSM    H6T14898   1.559   4.031   6.734 -0.3980  0.8818 -0.7637
  137OSM    C7S14899   1.613   4.065   6.939  0.1036  0.6874 -0.3789
  137OSM    H7S14900   1.673   4.145   6.987 -0.6052  0.6803  0.5154
  137OSM    H7T14901   1.658   3.969   6.973  0.5436  0.6629 -1.0079
  137OSM    C8S14902   1.466   4.068   6.985 -0.1962 -0.3521 -0.3196
  137OSM    H8S14903   1.410   4.000   6.918  1.7511 -2.5322  0.2159
  137OSM    H8T14904   1.434   4.174   6.971  1.6400  0.2489 -0.0958
  137OSM    C9S14905   1.441   4.036   7.127  0.0079  0.1464 -0.5646
  137OSM    H9S14906   1.452   3.926   7.137  1.0181  0.5267  2.8401
  137OSM    H9T14907   1.338   4.062   7.159 -0.1344  0.1742 -1.0377
  137OSM   C10S14908   1.541   4.108   7.224 -0.1611 -0.4668 -0.5367
  137OSM   H10S14909   1.529   4.212   7.186  0.4071  0.9379  2.9668
  137OSM   H10T14910   1.642   4.067   7.205 -0.3228 -1.5789  0.9054
  137OSM   C11S14911   1.510   4.124   7.372 -0.1923  0.4425  0.4115
  137OSM   H11S14912   1.401   4.134   7.391 -0.0649 -1.2971  2.1954
  137OSM   H11T14913   1.557   4.218   7.409 -0.4112  0.8876 -0.4189
  137OSM   C12S14914   1.537   3.999   7.459  0.2899 -0.5785 -0.8546
  137OSM   H12S14915   1.467   3.916   7.435  0.5838 -0.9049 -0.5825
  137OSM   H12T14916   1.501   4.034   7.558 -0.9373  0.8768 -1.7855
  137OSM   C13S14917   1.684   3.961   7.456 -0.0010 -0.2252  0.3101
  137OSM   H13S14918   1.746   4.051   7.473 -1.1727  0.1320  2.8419
  137OSM   H13T14919   1.716   3.941   7.351  1.4484 -1.8342  1.0245
  137OSM   C14S14920   1.715   3.844   7.550  0.3401 -0.1017  0.3094
  137OSM   H14S14921   1.662   3.748   7.529 -1.1052  1.0912 -1.7177
  137OSM   H14T14922   1.656   3.875   7.639  1.6033  1.5841  0.5739
  137OSM   C15S14923   1.858   3.823   7.583 -0.1553 -0.0590  0.2568
  137OSM   H15S14924   1.895   3.923   7.614  0.2820 -0.5652  1.4059
  137OSM   H15T14925   1.911   3.797   7.489 -1.2058 -0.4230 -0.2406
  137OSM   C16S14926   1.889   3.719   7.689  0.4628  1.0203  0.5720
  137OSM   H16S14927   1.820   3.752   7.770  0.1269 -0.0429  0.7178
  137OSM   H16T14928   1.993   3.718   7.729  0.9486 -3.0214 -0.6636
  137OSM   C17S14929   1.863   3.564   7.659 -0.9022 -0.2194  0.0621
  137OSM   H17S14930   1.941   3.533   7.587  2.0809  1.7125  2.3391
  137OSM   H17T14931   1.764   3.570   7.609 -0.1563  0.8784 -1.3204
  137OSM   C18S14932   1.859   3.471   7.781  0.1093 -0.2064  0.1153
  137OSM   H18S14933   1.772   3.483   7.850  1.8836 -1.6516  2.6565
  137OSM   H18T14934   1.943   3.475   7.853 -0.3549  0.2129  0.6359
  137OSM   H18U14935   1.835   3.367   7.750 -0.1515  0.5808 -2.5285
  137OSM    C1F14936   1.389   4.590   6.898  1.2516 -0.6744 -0.5378
  137OSM     OF14937   1.271   4.600   6.865 -0.2504 -0.3820  0.2191
  137OSM    C2F14938   1.445   4.643   7.024 -0.2652 -0.1259  0.3645
  137OSM    H2F14939   1.439   4.754   7.024  0.7926 -0.0598  1.3718
  137OSM    H2G14940   1.551   4.613   7.040 -0.2945 -0.3700  0.1018
  137OSM    C3F14941   1.374   4.604   7.149  0.6039  0.2439 -0.6882
  137OSM    H3F14942   1.358   4.495   7.163 -0.0649  0.3657 -0.5048
  137OSM    H3G14943   1.268   4.635   7.149  0.6425  0.3711 -1.0662
  137OSM    C4F14944   1.448   4.645   7.274  0.6113  0.0097  0.0504
  137OSM    H4F14945   1.452   4.756   7.268 -2.0887  0.3289  2.8108
  137OSM    H4G14946   1.550   4.605   7.292 -0.0825 -1.1348  1.5805
  137OSM    C5F14947   1.360   4.616   7.399 -0.1221 -0.4854  1.0293
  137OSM    H5F14948   1.344   4.506   7.408  0.3707 -0.5074  1.6341
  137OSM    H5G14949   1.262   4.665   7.380  1.4969  1.6417 -2.3656
  137OSM    C6F14950   1.422   4.680   7.517 -0.4936  0.1080 -0.5385
  137OSM    H6F14951   1.430   4.790   7.516  1.4562 -0.0114 -1.6209
  137OSM    H6G14952   1.529   4.651   7.509 -0.4473  0.1673 -0.1662
  137OSM    C7F14953   1.363   4.639   7.658 -0.3760  0.0760 -0.1988
  137OSM    H7F14954   1.378   4.528   7.659 -1.8294 -0.1458 -1.4711
  137OSM    H7G14955   1.255   4.663   7.669 -0.6550 -0.7095 -1.1140
  137OSM    C8F14956   1.437   4.690   7.779 -0.5025  0.5182  0.4252
  137OSM    H8F14957   1.546   4.678   7.761 -0.7278 -0.5696 -0.2099
  137OSM    H8G14958   1.400   4.623   7.860 -3.3110  1.5645  0.0691
  137OSM    C9F14959   1.424   4.832   7.809 -0.1798  0.3684  0.2031
  137OSM    H9F14960   1.410   4.899   7.723 -0.4643 -0.0521 -0.0779
  137OSM   C10F14961   1.419   4.898   7.928  0.2988 -0.3155 -1.1153
  137OSM   H10F14962   1.396   5.005   7.930  0.9476 -0.1740 -1.1226
  137OSM   C11F14963   1.431   4.821   8.058  0.2968  0.3811 -0.5000
  137OSM   H11F14964   1.520   4.851   8.118 -1.3801 -0.4573  2.5253
  137OSM   H11G14965   1.436   4.711   8.041 -1.1685  0.3163 -0.5597
  137OSM   C12F14966   1.321   4.865   8.144 -0.3422  0.1129  0.6880
  137OSM   H12F14967   1.223   4.843   8.098  0.6895 -1.1120 -0.9722
  137OSM   H12G14968   1.320   4.975   8.157 -0.6582  0.1283  0.5285
  137OSM   C13F14969   1.333   4.825   8.297 -0.0080 -0.8953 -0.2430
  137OSM   H13F14970   1.426   4.866   8.342 -1.6970 -0.3900  2.9684
  137OSM   H13G14971   1.331   4.715   8.310 -1.0645 -1.0709 -1.7482
  137OSM   C14F14972   1.209   4.874   8.371  0.1499  0.7140 -0.4750
  137OSM   H14F14973   1.129   4.851   8.298  0.2548  2.2817 -1.0926
  137OSM   H14G14974   1.207   4.984   8.384  0.3326  0.4810  1.7217
  137OSM   C15F14975   1.170   4.801   8.502  0.0667  0.1086 -0.1459
  137OSM   H15F14976   1.242   4.831   8.581  0.8011 -1.1457 -0.3380
  137OSM   H15G14977   1.167   4.693   8.477  0.0145  0.1652 -0.3866
  137OSM   C16F14978   1.034   4.853   8.544 -0.8401 -0.2251 -0.2799
  137OSM   H16F14979   0.961   4.841   8.461 -0.3425  0.0579 -0.7593
  137OSM   H16G14980   1.051   4.963   8.548  0.9437 -0.5218  0.8773
  137OSM   C17F14981   0.981   4.788   8.664 -0.5915 -0.3477 -0.5051
  137OSM   H17F14982   1.049   4.806   8.750 -1.1102 -2.6854  0.4240
  137OSM   H17G14983   0.979   4.679   8.642  2.8509 -0.1939 -1.9823
  137OSM   C18F14984   0.842   4.831   8.698  0.2776 -0.2933 -0.0474
  137OSM   H18F14985   0.802   4.781   8.789 -0.2603  0.6214  0.2362
  137OSM   H18G14986   0.775   4.818   8.611  0.2900 -2.8745  0.3017
  137OSM   H18H14987   0.826   4.936   8.732 -0.5615 -0.2177 -0.6445
  138OSM      N14988   2.492   6.374   6.348 -0.1578  0.0395  0.3101
  138OSM    C1514989   2.353   6.349   6.300 -0.5269  0.2914  0.5152
  138OSM   H15A14990   2.280   6.373   6.376  0.8465 -0.2456  2.0252
  138OSM   H15B14991   2.336   6.246   6.271 -0.7361 -0.0860  1.9207
  138OSM   H15C14992   2.333   6.408   6.212 -0.8304  3.1265  2.3994
  138OSM    C1414993   2.497   6.339   6.496  1.0021  0.0149  0.3273
  138OSM   H14A14994   2.595   6.366   6.532  0.4578 -0.3027  2.0613
  138OSM   H14B14995   2.469   6.236   6.513  0.0118  0.0080 -1.2321
  138OSM   H14C14996   2.431   6.410   6.544  0.0410  0.6583 -1.8517
  138OSM    C1314997   2.591   6.286   6.274 -0.2646 -0.2208 -0.2469
  138OSM   H13A14998   2.575   6.284   6.168 -0.3746 -0.2511 -0.2293
  138OSM   H13B14999   2.588   6.185   6.313  0.1292 -0.2085 -0.1860
  138OSM   H13C15000   2.691   6.323   6.291  0.6695 -2.7684 -0.0703
  138OSM    C1215001   2.543   6.514   6.318 -0.0761  0.7081 -0.1036
  138OSM   H12A15002   2.641   6.531   6.360 -0.0772 -1.0385  0.6666
  138OSM   H12B15003   2.483   6.589   6.367  0.3505  2.1692 -1.7908
  138OSM    C1115004   2.527   6.565   6.167  0.5235  0.2766  0.7909
  138OSM   H11A15005   2.590   6.498   6.104 -0.1900 -1.6951  2.1225
  138OSM   H11B15006   2.586   6.659   6.163  2.9128 -1.2658 -1.8174
  138OSM      P15007   2.314   6.709   6.097 -0.3402  0.0931 -0.1228
  138OSM    O1315008   2.404   6.803   6.024  0.3042 -0.0379 -0.0625
  138OSM    O1415009   2.178   6.682   6.044  0.2226  0.1121 -0.0020
  138OSM    O1115010   2.299   6.757   6.250 -0.2331  0.5977 -0.1516
  138OSM    O1215011   2.396   6.571   6.116  0.1173 -0.3140  0.2093
  138OSM    C1S15012   2.226   6.683   6.344  0.1040 -0.4031  0.0575
  138OSM    H1S15013   2.269   6.585   6.374  0.4087 -0.4876 -0.6619
  138OSM    H1T15014   2.127   6.661   6.298 -0.0979 -0.0443  0.3171
  138OSM     NF15015   2.132   6.679   6.578  0.3449 -0.0243  0.6363
  138OSM    HNF15016   2.033   6.672   6.588  0.0732 -0.1644 -1.8278
  138OSM    C2S15017   2.193   6.769   6.473 -1.2645  0.1101 -0.1107
  138OSM    H2S15018   2.288   6.805   6.517 -1.2469 -0.3932  0.2700
  138OSM    C3S15019   2.116   6.896   6.437 -0.0217 -0.5415  0.0713
  138OSM    H3S15020   2.015   6.864   6.402  1.2003 -0.5556 -3.5668
  138OSM     O315021   2.185   6.969   6.338 -0.2671  0.3080  0.0792
  138OSM    HO315022   2.236   6.901   6.293 -0.7841  0.2953 -0.4988
  138OSM    C4S15023   2.085   6.983   6.558  0.0125 -0.3509 -0.0400
  138OSM    H4S15024   1.979   6.979   6.586 -0.2247  0.0981 -0.8638
  138OSM    C5S15025   2.162   7.076   6.619 -0.8775  0.5696 -0.0766
  138OSM    H5S15026   2.264   7.085   6.578 -0.9260  3.7406  0.3835
  138OSM    C6S15027   2.122   7.156   6.738  0.9061 -0.4887  0.3236
  138OSM    H6S15028   2.015   7.182   6.725  1.3916  1.6957  0.5559
  138OSM    H6T15029   2.170   7.256   6.735 -1.2687  0.5596 -1.0170
  138OSM    C7S15030   2.157   7.093   6.875  0.6765  0.2669 -0.9474
  138OSM    H7S15031   2.266   7.070   6.880  0.9194  0.9552 -2.6536
  138OSM    H7T15032   2.089   7.008   6.898  0.3549  0.6939 -0.2947
  138OSM    C8S15033   2.136   7.181   7.003 -0.0510 -0.3901 -0.4702
  138OSM    H8S15034   2.030   7.203   7.030  0.0925 -1.1541  0.7396
  138OSM    H8T15035   2.179   7.281   6.978  1.4105 -0.9623 -0.2740
  138OSM    C9S15036   2.211   7.125   7.116 -1.1980  0.1134 -0.5331
  138OSM    H9S15037   2.317   7.122   7.085 -1.5792 -1.2105 -1.7783
  138OSM    H9T15038   2.169   7.024   7.133 -0.0498 -0.0017  1.7345
  138OSM   C10S15039   2.174   7.207   7.244  0.0549 -0.2356 -0.2947
  138OSM   H10S15040   2.066   7.233   7.244  0.1927  0.3958  2.0213
  138OSM   H10T15041   2.234   7.300   7.242  1.2970 -1.0245 -0.2766
  138OSM   C11S15042   2.228   7.131   7.361 -0.3969 -0.3707 -0.8363
  138OSM   H11S15043   2.339   7.132   7.364 -0.3945 -0.7210 -0.8143
  138OSM   H11T15044   2.177   7.032   7.359 -1.1895 -0.1209  3.3201
  138OSM   C12S15045   2.186   7.208   7.488  0.2070  0.4307  0.1690
  138OSM   H12S15046   2.080   7.238   7.477  0.0926 -0.2740 -0.7154
  138OSM   H12T15047   2.249   7.299   7.477 -1.9003  1.6505 -2.2192
  138OSM   C13S15048   2.188   7.117   7.613  0.2325  0.0991 -0.3208
  138OSM   H13S15049   2.272   7.044   7.608  1.0040  1.0797 -2.2711
  138OSM   H13T15050   2.087   7.073   7.605  0.9653 -1.5013 -1.1056
  138OSM   C14S15051   2.195   7.205   7.739  0.1040  0.2604 -0.6770
  138OSM   H14S15052   2.114   7.282   7.743  0.2662  0.3876  0.5104
  138OSM   H14T15053   2.294   7.255   7.751 -0.6813  2.2657 -2.1872
  138OSM   C15S15054   2.180   7.123   7.865  0.2037  0.4126 -0.1065
  138OSM   H15S15055   2.279   7.083   7.895  1.2964  1.8337 -1.6942
  138OSM   H15T15056   2.119   7.031   7.853 -1.0998  1.4670 -1.8811
  138OSM   C16S15057   2.123   7.198   7.979  0.1417  0.3411 -0.4146
  138OSM   H16S15058   2.133   7.136   8.071  1.8084  1.5970  0.2767
  138OSM   H16T15059   2.017   7.217   7.951 -0.2240 -1.1449 -0.0810
  138OSM   C17S15060   2.191   7.339   7.993  0.2483 -0.7163  0.6941
  138OSM   H17S15061   2.172   7.405   7.906  1.8160 -0.4614  0.5345
  138OSM   H17T15062   2.299   7.318   8.003  0.5682  0.8745  0.6975
  138OSM   C18S15063   2.151   7.413   8.125 -0.1367 -0.3252  0.2091
  138OSM   H18S15064   2.172   7.356   8.218 -2.4636 -1.9740 -0.2272
  138OSM   H18T15065   2.045   7.447   8.119 -0.1182 -0.3262 -0.1162
  138OSM   H18U15066   2.198   7.511   8.148 -0.6249 -0.5045  2.1006
  138OSM    C1F15067   2.201   6.592   6.645 -0.3216 -0.0575  0.3582
  138OSM     OF15068   2.315   6.569   6.619  0.0713 -0.2610 -0.0787
  138OSM    C2F15069   2.124   6.512   6.749  0.4846 -0.5115  0.9357
  138OSM    H2F15070   2.022   6.504   6.707  0.4626  2.9590  0.1347
  138OSM    H2G15071   2.113   6.569   6.844  1.2379  1.8449 -0.3543
  138OSM    C3F15072   2.191   6.378   6.782 -0.2420 -1.1431  0.1517
  138OSM    H3F15073   2.274   6.412   6.849  1.3698  2.6166 -3.5293
  138OSM    H3G15074   2.231   6.321   6.696 -0.9041 -2.0190  0.4165
  138OSM    C4F15075   2.098   6.278   6.851  0.4474 -0.0233 -0.3573
  138OSM    H4F15076   2.169   6.197   6.880 -1.4410 -1.3730  0.5244
  138OSM    H4G15077   2.028   6.226   6.782 -1.1474  1.8936 -0.2033
  138OSM    C5F15078   2.018   6.336   6.976  0.5048  0.4060  0.2554
  138OSM    H5F15079   1.953   6.252   7.008  1.8125 -1.6218 -2.2481
  138OSM    H5G15080   1.962   6.423   6.934 -0.0213 -0.7406 -1.4686
  138OSM    C6F15081   2.100   6.388   7.088 -0.0673 -0.5010  0.0688
  138OSM    H6F15082   2.033   6.436   7.164 -0.2977  2.6120 -1.9855
  138OSM    H6G15083   2.159   6.470   7.040  0.5511 -0.1198  1.4430
  138OSM    C7F15084   2.185   6.282   7.163  0.1257 -0.2187  0.0805
  138OSM    H7F15085   2.255   6.224   7.098  2.2062  1.4503  0.7586
  138OSM    H7G15086   2.107   6.212   7.198 -0.6492  0.2859 -0.6290
  138OSM    C8F15087   2.261   6.346   7.282 -0.3568 -0.1849 -0.4652
  138OSM    H8F15088   2.300   6.444   7.249 -0.9628  0.3324  0.3161
  138OSM    H8G15089   2.349   6.284   7.308 -1.5838 -0.9039  2.2758
  138OSM    C9F15090   2.180   6.368   7.406 -0.0348  0.1823  0.3356
  138OSM    H9F15091   2.088   6.426   7.393 -0.1519 -0.1485 -0.3476
  138OSM   C10F15092   2.202   6.328   7.531 -0.0566  0.5998  0.3570
  138OSM   H10F15093   2.139   6.371   7.609  1.0902  1.8059  0.6432
  138OSM   C11F15094   2.327   6.249   7.575  0.0746  0.1341  0.9980
  138OSM   H11F15095   2.416   6.311   7.550  0.1507 -0.8367 -1.3819
  138OSM   H11G15096   2.338   6.159   7.510 -1.3238  1.1789 -0.7337
  138OSM   C12F15097   2.331   6.210   7.721  0.0107 -0.0865 -0.6715
  138OSM   H12F15098   2.430   6.160   7.731  0.6265  1.1082 -0.7933
  138OSM   H12G15099   2.248   6.139   7.744 -0.9306  0.8256 -1.1965
  138OSM   C13F15100   2.332   6.333   7.819 -0.1396  0.1811 -0.2681
  138OSM   H13F15101   2.247   6.404   7.815 -1.1195 -0.9256  0.6184
  138OSM   H13G15102   2.430   6.381   7.799  0.0012 -0.9271 -2.4001
  138OSM   C14F15103   2.328   6.292   7.965  0.4192 -0.2230 -0.0661
  138OSM   H14F15104   2.340   6.379   8.032  0.3989  0.5964 -1.1168
  138OSM   H14G15105   2.420   6.233   7.985 -0.1008 -0.2958  2.2484
  138OSM   C15F15106   2.203   6.224   8.017  0.4096  0.0103 -0.2994
  138OSM   H15F15107   2.151   6.199   7.923 -1.1003 -0.8629  0.7572
  138OSM   H15G15108   2.139   6.291   8.079  0.7919  0.9493 -0.9002
  138OSM   C16F15109   2.246   6.105   8.100  0.1697 -0.1532 -0.1189
  138OSM   H16F15110   2.312   6.145   8.180 -0.3711  0.2640  0.1221
  138OSM   H16G15111   2.300   6.036   8.033 -0.4903 -0.0329 -0.7850
  138OSM   C17F15112   2.120   6.028   8.162  0.2218  0.0089  0.2479
  138OSM   H17F15113   2.066   5.970   8.085 -0.4531  0.5946  0.2844
  138OSM   H17G15114   2.046   6.099   8.204  1.4018  1.3974  0.0079
  138OSM   C18F15115   2.159   5.923   8.272 -0.3717  0.2275  0.1159
  138OSM   H18F15116   2.216   5.977   8.352 -0.1397 -1.3700  1.0567
  138OSM   H18G15117   2.222   5.836   8.243  0.6520  1.2031 -0.6782
  138OSM   H18H15118   2.070   5.888   8.328 -0.1386 -0.4088  0.0897
  139OSM      N15119   1.092   0.802   5.926  0.0563 -0.1349  0.2967
  139OSM    C1515120   1.225   0.795   5.860  0.7174  0.2209  0.0131
  139OSM   H15A15121   1.302   0.768   5.930  1.4600  1.2222 -0.4023
  139OSM   H15B15122   1.263   0.885   5.814  1.0802 -0.6458 -1.4221
  139OSM   H15C15123   1.232   0.716   5.786 -0.5183  0.8375 -0.7790
  139OSM    C1415124   0.994   0.883   5.832  0.4273 -0.8750 -0.4869
  139OSM   H14A15125   1.038   0.978   5.805 -2.8375  0.7229 -0.3726
  139OSM   H14B15126   0.901   0.896   5.884  2.4296  1.1627  2.7326
  139OSM   H14C15127   0.966   0.830   5.742 -1.1699 -1.6646  0.4577
  139OSM    C1315128   1.039   0.668   5.933 -0.1804  0.1757 -0.3769
  139OSM   H13A15129   1.057   0.604   5.848  1.6372 -1.5616  1.2578
  139OSM   H13B15130   0.935   0.674   5.961  0.4806 -0.3907  2.4153
  139OSM   H13C15131   1.070   0.612   6.020  0.5949  1.7253  0.3685
  139OSM    C1215132   1.088   0.868   6.056  0.1900 -0.1096 -0.0391
  139OSM   H12A15133   0.986   0.884   6.090 -0.1170 -0.6634 -0.7043
  139OSM   H12B15134   1.144   0.960   6.054  2.1986 -1.2158  2.3493
  139OSM    C1115135   1.151   0.784   6.174 -0.1695 -0.0228  0.4272
  139OSM   H11A15136   1.180   0.858   6.251 -2.0515 -0.4171  1.5485
  139OSM   H11B15137   1.241   0.740   6.126  0.4991 -0.0425  1.6510
  139OSM      P15138   0.942   0.695   6.302  0.0984 -0.4887  0.5541
  139OSM    O1315139   0.872   0.815   6.248  0.2778  0.2712 -0.2932
  139OSM    O1415140   0.858   0.569   6.303  0.0234 -0.1250  0.4856
  139OSM    O1115141   0.987   0.720   6.449  0.2783  0.5123 -0.1479
  139OSM    O1215142   1.080   0.669   6.229 -0.1375 -0.8801 -0.0650
  139OSM    C1S15143   1.120   0.695   6.498  0.3052  0.3726  0.1456
  139OSM    H1S15144   1.192   0.754   6.439 -0.8683  3.1069  1.3666
  139OSM    H1T15145   1.143   0.588   6.483 -0.6652 -0.0158  1.2841
  139OSM     NF15146   1.288   0.725   6.681 -0.3792  0.4726  0.2249
  139OSM    HNF15147   1.335   0.644   6.715 -1.3317 -0.5338 -0.7657
  139OSM    C2S15148   1.143   0.718   6.651  0.0950 -0.0799  0.5283
  139OSM    H2S15149   1.100   0.815   6.685  0.2631 -0.0658  0.7038
  139OSM    C3S15150   1.061   0.608   6.727 -0.6280 -0.1273 -0.5949
  139OSM    H3S15151   1.098   0.509   6.691  0.9081  1.2378 -2.9605
  139OSM     O315152   0.927   0.608   6.684  0.1461  0.4698 -0.0948
  139OSM    HO315153   0.931   0.637   6.593  2.6642  0.8862  0.1155
  139OSM    C4S15154   1.081   0.610   6.884  0.2459  0.4789  0.1109
  139OSM    H4S15155   1.178   0.568   6.914  0.8127  0.2299 -2.0268
  139OSM    C5S15156   0.990   0.651   6.978 -0.9411  0.1630  0.1396
  139OSM    H5S15157   0.886   0.675   6.950 -1.1988 -0.0547  0.9034
  139OSM    C6S15158   1.030   0.642   7.117 -0.2931 -0.2030  0.1861
  139OSM    H6S15159   1.138   0.649   7.145  0.2854  0.8469 -2.2129
  139OSM    H6T15160   1.001   0.544   7.162 -1.2367 -0.3835 -0.8119
  139OSM    C7S15161   0.945   0.755   7.200 -0.9059  0.0536 -0.7619
  139OSM    H7S15162   0.839   0.758   7.164 -0.7928 -1.5452 -1.3025
  139OSM    H7T15163   0.987   0.854   7.171 -1.9352  0.0958 -2.2016
  139OSM    C8S15164   0.956   0.739   7.353  0.1388  1.0921  0.6168
  139OSM    H8S15165   1.062   0.766   7.373  0.6284 -1.6142  1.8441
  139OSM    H8T15166   0.937   0.636   7.392  1.9427  0.5635  0.1081
  139OSM    C9S15167   0.881   0.837   7.447 -0.4148 -0.0968 -0.3963
  139OSM    H9S15168   0.773   0.817   7.432 -0.3855 -3.0591  2.7156
  139OSM    H9T15169   0.907   0.939   7.410  1.2705 -0.0401  0.8650
  139OSM   C10S15170   0.921   0.830   7.600  0.4419  0.3656 -0.2646
  139OSM   H10S15171   0.886   0.734   7.644 -0.9076  1.4794  1.1600
  139OSM   H10T15172   0.869   0.913   7.652  1.2048 -0.5878  2.1320
  139OSM   C11S15173   1.079   0.837   7.617  0.6521 -0.3612  0.2279
  139OSM   H11S15174   1.111   0.923   7.553  0.8425 -0.9934 -0.5321
  139OSM   H11T15175   1.119   0.742   7.575  2.9256  0.8020 -0.2984
  139OSM   C12S15176   1.117   0.871   7.759  0.8719  0.3821  0.3734
  139OSM   H12S15177   1.050   0.952   7.795 -0.7598 -1.6334  1.9972
  139OSM   H12T15178   1.227   0.890   7.759  0.6789  1.6588 -1.9993
  139OSM   C13S15179   1.087   0.749   7.846 -0.5063  0.4427  0.0498
  139OSM   H13S15180   1.145   0.661   7.813 -1.8852 -0.2319 -0.5951
  139OSM   H13T15181   0.978   0.728   7.839 -0.2549 -0.3696 -1.6043
  139OSM   C14S15182   1.111   0.759   8.001 -0.3705 -0.3630 -0.3331
  139OSM   H14S15183   1.211   0.805   8.016 -1.3592  2.1404 -1.1784
  139OSM   H14T15184   1.120   0.652   8.029 -0.7424 -0.9914 -2.5494
  139OSM   C15S15185   0.994   0.804   8.078 -0.6962  0.0111  0.1525
  139OSM   H15S15186   0.904   0.749   8.041 -0.2721 -1.6387  1.5187
  139OSM   H15T15187   0.978   0.908   8.044  3.3193  0.0470 -1.8960
  139OSM   C16S15188   1.005   0.805   8.235  0.0346  0.1366  0.5354
  139OSM   H16S15189   1.002   0.702   8.277  1.0358 -0.3172 -0.4828
  139OSM   H16T15190   0.910   0.854   8.265  0.3013  1.0386 -0.0805
  139OSM   C17S15191   1.134   0.869   8.284  0.2985  0.1099 -0.2454
  139OSM   H17S15192   1.161   0.950   8.212  0.4405 -0.5873 -0.9824
  139OSM   H17T15193   1.211   0.790   8.269  1.4629  1.5185 -1.9482
  139OSM   C18S15194   1.136   0.924   8.423 -0.0659 -0.0923 -0.0284
  139OSM   H18S15195   1.236   0.954   8.460  0.6554 -1.5477 -0.7193
  139OSM   H18T15196   1.100   0.849   8.498 -4.2741 -0.8542 -2.6049
  139OSM   H18U15197   1.061   1.005   8.434 -0.8917 -0.8562  0.1243
  139OSM    C1F15198   1.354   0.833   6.646  0.2144 -0.3085 -0.7437
  139OSM     OF15199   1.289   0.938   6.629 -0.1015  0.5102 -0.1101
  139OSM    C2F15200   1.499   0.820   6.639  0.1908 -0.2552 -0.1458
  139OSM    H2F15201   1.532   0.826   6.533  1.4148  0.3915  0.2700
  139OSM    H2G15202   1.531   0.720   6.674 -0.6766 -0.6349 -0.4055
  139OSM    C3F15203   1.572   0.938   6.712 -0.3590 -0.8453 -0.9757
  139OSM    H3F15204   1.520   1.033   6.686  0.2292  0.1735  1.3856
  139OSM    H3G15205   1.672   0.942   6.663  1.5937  0.3075  2.8899
  139OSM    C4F15206   1.598   0.915   6.859 -0.5147  0.0127 -0.2509
  139OSM    H4F15207   1.676   0.987   6.892 -1.8157  0.4477  1.9706
  139OSM    H4G15208   1.641   0.813   6.878 -2.0659 -0.4091  1.1080
  139OSM    C5F15209   1.481   0.978   6.953  0.3585  0.2128  0.6196
  139OSM    H5F15210   1.388   0.919   6.937 -0.3735  1.7379 -0.8626
  139OSM    H5G15211   1.458   1.075   6.905 -0.5759 -0.1851  0.2311
  139OSM    C6F15212   1.504   1.012   7.100 -0.2496  0.1783 -0.2525
  139OSM    H6F15213   1.520   0.926   7.169 -1.9130 -0.0945 -0.1940
  139OSM    H6G15214   1.412   1.066   7.131  0.3295  0.9832  0.0640
  139OSM    C7F15215   1.633   1.098   7.124 -0.0055  0.3510 -0.6604
  139OSM    H7F15216   1.630   1.183   7.053  1.8788 -0.7104 -2.0258
  139OSM    H7G15217   1.718   1.034   7.095  0.3502 -0.9376  2.9090
  139OSM    C8F15218   1.644   1.168   7.262 -0.1432  0.5487  0.0060
  139OSM    H8F15219   1.555   1.234   7.271 -1.4163 -1.1460  0.0315
  139OSM    H8G15220   1.735   1.232   7.264  0.0502  0.3493 -1.5653
  139OSM    C9F15221   1.643   1.062   7.368  0.4521  0.6836 -0.2159
  139OSM    H9F15222   1.735   1.003   7.375 -0.7801 -1.1971  0.8572
  139OSM   C10F15223   1.547   1.038   7.457 -0.4833 -0.4701 -0.3430
  139OSM   H10F15224   1.565   0.965   7.538 -1.3763 -0.0696  0.2226
  139OSM   C11F15225   1.416   1.109   7.470  0.0107  0.8274  0.3361
  139OSM   H11F15226   1.333   1.075   7.404 -1.2065  2.8382  0.7923
  139OSM   H11G15227   1.438   1.217   7.456  0.4275  0.6262 -0.5711
  139OSM   C12F15228   1.364   1.089   7.616  0.1994 -0.5005 -1.3897
  139OSM   H12F15229   1.359   0.985   7.655  1.8872 -0.7983 -1.9289
  139OSM   H12G15230   1.256   1.114   7.613 -0.0185 -1.2660 -0.0216
  139OSM   C13F15231   1.437   1.185   7.705 -0.1439 -0.3816  0.0356
  139OSM   H13F15232   1.428   1.287   7.662 -0.4284 -0.1581  0.6222
  139OSM   H13G15233   1.544   1.154   7.706  0.1944  0.7650 -0.0084
  139OSM   C14F15234   1.378   1.154   7.844  0.4878 -0.6374  0.5334
  139OSM   H14F15235   1.394   1.045   7.860  1.9663 -0.2492  1.8681
  139OSM   H14G15236   1.272   1.187   7.841  0.8569  0.3913 -2.7177
  139OSM   C15F15237   1.432   1.230   7.971 -0.3485 -0.3756 -0.2297
  139OSM   H15F15238   1.416   1.339   7.956  0.8445 -0.4159 -1.8572
  139OSM   H15G15239   1.540   1.207   7.980 -0.5457 -1.4857 -0.6971
  139OSM   C16F15240   1.368   1.174   8.100 -0.1427  0.1555  0.4255
  139OSM   H16F15241   1.358   1.064   8.096 -3.1732  0.4655 -3.8441
  139OSM   H16G15242   1.264   1.204   8.125  0.5086  0.3239  3.1412
  139OSM   C17F15243   1.445   1.222   8.223 -0.0238 -0.2813 -0.0594
  139OSM   H17F15244   1.465   1.331   8.218 -1.3324 -0.1314 -2.5631
  139OSM   H17G15245   1.541   1.164   8.218 -0.6772 -1.5900  1.6997
  139OSM   C18F15246   1.375   1.171   8.348  0.0270 -0.7586  0.4247
  139OSM   H18F15247   1.353   1.062   8.360  1.6019 -1.1109  0.1536
  139OSM   H18G15248   1.281   1.229   8.363  1.6236  2.1337 -0.3506
  139OSM   H18H15249   1.431   1.199   8.439 -3.0232 -0.4079  2.2475
  140OSM      N15250   1.772   3.049   6.395  0.1381  0.1865  0.1844
  140OSM    C1515251   1.822   3.013   6.259  0.2084  0.1646  0.3332
  140OSM   H15A15252   1.794   3.087   6.186  1.2152 -0.8531 -1.1322
  140OSM   H15B15253   1.784   2.919   6.223 -2.8504  0.6552  2.1094
  140OSM   H15C15254   1.929   2.997   6.270  0.3217  1.2569  0.9223
  140OSM    C1415255   1.740   3.196   6.397 -0.1615  0.4718 -0.2659
  140OSM   H14A15256   1.700   3.230   6.491  0.6878 -0.8597  0.6047
  140OSM   H14B15257   1.662   3.215   6.325 -1.4931  0.0809  1.0499
  140OSM   H14C15258   1.815   3.262   6.354  0.0394  1.0584  0.9508
  140OSM    C1315259   1.658   2.971   6.443  0.2481  0.0683  1.0752
  140OSM   H13A15260   1.577   2.976   6.371  1.6304 -2.9087 -0.7838
  140OSM   H13B15261   1.629   3.000   6.542  0.0047 -0.4375  1.1498
  140OSM   H13C15262   1.676   2.865   6.453  0.5115 -0.0852 -0.7067
  140OSM    C1215263   1.896   3.026   6.488 -0.5695 -0.4334  0.3311
  140OSM   H12A15264   1.916   2.920   6.489 -1.4042 -0.5988  0.2046
  140OSM   H12B15265   1.863   3.039   6.590 -0.0587 -0.5307  0.5108
  140OSM    C1115266   2.022   3.114   6.460 -0.2114  0.0863  0.3289
  140OSM   H11A15267   2.086   3.124   6.550  0.0906 -1.2065  0.2650
  140OSM   H11B15268   1.999   3.222   6.445 -2.1110 -0.4632 -0.9217
  140OSM      P15269   2.187   2.939   6.346  0.3140 -0.0285 -0.1960
  140OSM    O1315270   2.133   2.841   6.251 -0.4977 -0.1411  0.0131
  140OSM    O1415271   2.326   2.974   6.328  0.3259  0.0322 -0.1100
  140OSM    O1115272   2.170   2.870   6.491 -0.2327  0.0955  0.3664
  140OSM    O1215273   2.098   3.073   6.345 -0.5461 -0.3893 -0.3604
  140OSM    C1S15274   2.293   2.822   6.554  0.0873 -0.5367  0.1277
  140OSM    H1S15275   2.378   2.894   6.549 -0.0479 -0.2786  1.3295
  140OSM    H1T15276   2.332   2.738   6.493  0.4137  1.2010 -2.1467
  140OSM     NF15277   2.401   2.769   6.763 -0.0295 -0.2493 -0.9454
  140OSM    HNF15278   2.439   2.680   6.787  0.0220  0.6350  2.5167
  140OSM    C2S15279   2.273   2.788   6.703 -0.1478 -0.4278 -0.7910
  140OSM    H2S15280   2.223   2.879   6.743  0.8970 -0.9047  1.6462
  140OSM    C3S15281   2.186   2.657   6.709  0.6391  0.2761 -0.3602
  140OSM    H3S15282   2.245   2.569   6.676 -1.1769 -0.7980 -0.8017
  140OSM     O315283   2.066   2.680   6.626  0.1056 -0.7179 -0.5651
  140OSM    HO315284   2.096   2.737   6.555  1.1147 -0.2274  0.2600
  140OSM    C4S15285   2.144   2.630   6.854  0.6919  0.1357 -0.0162
  140OSM    H4S15286   2.078   2.705   6.900  0.8582  0.6381 -0.5886
  140OSM    C5S15287   2.172   2.509   6.912 -0.5560 -0.3136 -0.3076
  140OSM    H5S15288   2.229   2.430   6.860 -0.4652  0.8597 -1.9881
  140OSM    C6S15289   2.134   2.481   7.052  0.5380  0.3581  0.4890
  140OSM    H6S15290   2.129   2.371   7.071 -0.1371  0.3025  0.0227
  140OSM    H6T15291   2.039   2.521   7.094  1.1216  0.9599  1.2496
  140OSM    C7S15292   2.241   2.531   7.147 -0.4298 -0.7982 -0.2361
  140OSM    H7S15293   2.274   2.628   7.104  0.8923 -0.1448  2.1509
  140OSM    H7T15294   2.340   2.481   7.135  1.4224  3.1863 -2.6878
  140OSM    C8S15295   2.193   2.563   7.291 -0.9801  0.3784  0.1672
  140OSM    H8S15296   2.105   2.629   7.276 -0.7107  0.7197  0.0827
  140OSM    H8T15297   2.257   2.627   7.355 -0.3872 -1.2869  1.2786
  140OSM    C9S15298   2.156   2.437   7.366 -0.1225  0.3967 -0.5909
  140OSM    H9S15299   2.242   2.368   7.353  2.2034  3.0928 -0.0806
  140OSM    H9T15300   2.068   2.398   7.312 -1.9117  2.1718  0.9523
  140OSM   C10S15301   2.129   2.450   7.518  0.0890 -0.6044  1.0635
  140OSM   H10S15302   2.117   2.349   7.564  1.9427 -1.3369  0.0148
  140OSM   H10T15303   2.034   2.501   7.543  0.1932 -0.6973  1.6507
  140OSM   C11S15304   2.245   2.516   7.596 -0.0868  0.1900 -0.2300
  140OSM   H11S15305   2.276   2.618   7.564 -1.8400  0.0688 -2.4688
  140OSM   H11T15306   2.326   2.453   7.555 -3.1468 -3.3381 -1.1376
  140OSM   C12S15307   2.236   2.477   7.746  0.1548 -0.1809 -0.1639
  140OSM   H12S15308   2.208   2.370   7.756 -3.4871  0.6356 -0.7349
  140OSM   H12T15309   2.156   2.542   7.788 -0.6220 -2.9289  2.8095
  140OSM   C13S15310   2.363   2.509   7.817  0.2811  0.2521 -0.2479
  140OSM   H13S15311   2.404   2.611   7.808 -0.2924  0.4854 -0.2788
  140OSM   H13T15312   2.438   2.439   7.776 -0.5703 -0.7790 -0.0692
  140OSM   C14S15313   2.342   2.476   7.967 -0.3786  0.4365 -0.4241
  140OSM   H14S15314   2.303   2.372   7.966 -0.2461  0.3939 -2.0860
  140OSM   H14T15315   2.269   2.547   8.012 -0.7318 -0.1846  0.0002
  140OSM   C15S15316   2.464   2.501   8.051 -0.4075  0.1486 -0.2580
  140OSM   H15S15317   2.514   2.598   8.032  0.6056 -0.4829 -0.9131
  140OSM   H15T15318   2.542   2.424   8.031 -1.1784 -0.7145  0.0457
  140OSM   C16S15319   2.445   2.503   8.200  0.4886  0.0009  0.0869
  140OSM   H16S15320   2.418   2.398   8.223 -1.6208  0.0278 -1.9307
  140OSM   H16T15321   2.362   2.573   8.226 -0.1892 -1.3557  1.6626
  140OSM   C17S15322   2.582   2.541   8.264  0.2196  0.1820  0.2567
  140OSM   H17S15323   2.603   2.647   8.242 -0.1051 -0.0763 -1.3850
  140OSM   H17T15324   2.661   2.476   8.220 -0.8709 -1.2589  0.3625
  140OSM   C18S15325   2.587   2.500   8.411  0.1337  0.3340  0.2401
  140OSM   H18S15326   2.675   2.549   8.457  1.1795  0.1248 -1.4767
  140OSM   H18T15327   2.592   2.391   8.434  1.1233  0.2828 -0.1486
  140OSM   H18U15328   2.499   2.529   8.471 -0.2314  0.0739 -0.1618
  140OSM    C1F15329   2.477   2.866   6.794  0.1750 -0.0380  0.1293
  140OSM     OF15330   2.434   2.977   6.811 -0.7902  0.1655 -0.1879
  140OSM    C2F15331   2.623   2.847   6.812 -0.3386  0.1716 -0.0901
  140OSM    H2F15332   2.660   2.817   6.712 -0.6230  0.4098 -0.2684
  140OSM    H2G15333   2.644   2.758   6.875 -3.5639 -0.7677 -0.2255
  140OSM    C3F15334   2.709   2.961   6.870  0.1443  0.7016 -0.0712
  140OSM    H3F15335   2.694   3.044   6.798  0.5168  0.9176  0.1000
  140OSM    H3G15336   2.816   2.930   6.866 -0.5953 -2.1171  0.8236
  140OSM    C4F15337   2.669   3.014   7.012 -0.1046  0.2960 -0.3923
  140OSM    H4F15338   2.571   3.068   7.013  0.1870  0.8241  0.9327
  140OSM    H4G15339   2.747   3.087   7.044  2.4828 -2.0978 -1.0480
  140OSM    C5F15340   2.661   2.900   7.111  0.1658 -0.2467 -0.0373
  140OSM    H5F15341   2.744   2.828   7.094  0.5219  0.1141  0.1669
  140OSM    H5G15342   2.568   2.844   7.086  0.8171 -1.7676  0.9358
  140OSM    C6F15343   2.644   2.944   7.257  0.0023  0.5408 -0.2662
  140OSM    H6F15344   2.560   3.014   7.273 -0.3095  0.2027 -0.4159
  140OSM    H6G15345   2.737   2.993   7.293  0.6436  0.7314 -2.1300
  140OSM    C7F15346   2.615   2.821   7.346 -0.0879 -0.8238 -0.6127
  140OSM    H7F15347   2.694   2.744   7.337  0.4189 -0.3420 -0.3426
  140OSM    H7G15348   2.518   2.781   7.311 -0.4287  0.5286 -1.2682
  140OSM    C8F15349   2.604   2.862   7.495 -0.6152 -0.1383  0.8200
  140OSM    H8F15350   2.515   2.928   7.502 -0.5443  0.0473 -0.0203
  140OSM    H8G15351   2.699   2.914   7.519  0.7807 -1.3237 -1.9081
  140OSM    C9F15352   2.588   2.746   7.584  0.1626 -0.1578  0.0888
  140OSM    H9F15353   2.515   2.673   7.547 -0.1204  1.6531 -3.0520
  140OSM   C10F15354   2.636   2.733   7.712  0.7396  0.0672 -0.3760
  140OSM   H10F15355   2.617   2.644   7.773  0.0833 -0.5112 -1.4089
  140OSM   C11F15356   2.731   2.827   7.780  0.5137 -0.1743  0.5658
  140OSM   H11F15357   2.719   2.932   7.747 -0.9354 -1.3015 -2.6902
  140OSM   H11G15358   2.835   2.789   7.766  1.1646  1.4959  0.8192
  140OSM   C12F15359   2.707   2.837   7.930  0.2618  0.3460  0.2367
  140OSM   H12F15360   2.702   2.733   7.968  0.3292  0.0422 -0.5784
  140OSM   H12G15361   2.611   2.891   7.946  0.8543  1.0926  1.3039
  140OSM   C13F15362   2.820   2.914   8.006  0.0232 -0.3327  0.4531
  140OSM   H13F15363   2.770   2.955   8.096 -1.0252 -0.8163  0.1005
  140OSM   H13G15364   2.871   2.989   7.942 -1.0104  1.1748  1.3584
  140OSM   C14F15365   2.917   2.812   8.064 -0.2399  0.0630  0.3033
  140OSM   H14F15366   2.954   2.742   7.986 -0.4989 -1.7361  1.7658
  140OSM   H14G15367   2.865   2.750   8.140  0.6443 -1.1657 -0.0852
  140OSM   C15F15368   3.033   2.886   8.141  0.2916  0.2523  1.0449
  140OSM   H15F15369   2.981   2.929   8.230  0.2487  0.5074  0.8967
  140OSM   H15G15370   3.071   2.969   8.078 -0.1552  0.5525  1.1697
  140OSM   C16F15371   3.151   2.801   8.183  0.6691 -0.6269 -0.0101
  140OSM   H16F15372   3.208   2.851   8.265  0.4868 -2.1365  1.0399
  140OSM   H16G15373   3.210   2.767   8.095  0.2010 -0.8819 -0.2263
  140OSM   C17F15374   3.092   2.670   8.237  0.3891  0.6603 -0.1485
  140OSM   H17F15375   3.041   2.615   8.156  2.1869 -0.9300 -0.2333
  140OSM   H17G15376   3.007   2.686   8.307 -0.4223  0.6570 -1.1231
  140OSM   C18F15377   3.192   2.583   8.305 -0.5720  0.9459  0.1523
  140OSM   H18F15378   3.207   2.494   8.240  1.3642  0.1917  1.5721
  140OSM   H18G15379   3.154   2.551   8.404  0.0967 -0.2919  0.0234
  140OSM   H18H15380   3.280   2.646   8.333  1.7013 -1.3314 -1.6177
  141OSM      N15381   0.945   4.272   6.143  0.4147  0.6507 -0.6590
  141OSM    C1515382   1.033   4.155   6.103 -0.0028  0.9424 -0.0783
  141OSM   H15A15383   1.061   4.101   6.192 -1.5144  1.0267  0.4655
  141OSM   H15B15384   1.123   4.189   6.055 -0.3551  2.6316  0.4156
  141OSM   H15C15385   0.991   4.083   6.035 -0.9859  2.0396 -0.6424
  141OSM    C1415386   1.037   4.379   6.196 -0.4540  0.6329  0.2356
  141OSM   H14A15387   1.080   4.351   6.292  0.6308  0.1932 -0.3686
  141OSM   H14B15388   0.979   4.469   6.211 -4.1669 -1.3774 -1.5017
  141OSM   H14C15389   1.116   4.381   6.123  2.1823 -1.6249  2.8689
  141OSM    C1315390   0.893   4.319   6.014  0.5974 -0.1421 -0.3142
  141OSM   H13A15391   0.826   4.403   6.028 -0.1754 -0.9101  0.6598
  141OSM   H13B15392   0.838   4.256   5.947  0.7365  0.2238 -0.7770
  141OSM   H13C15393   0.973   4.348   5.947  1.0300 -2.5471 -0.8825
  141OSM    C1215394   0.833   4.250   6.234  0.2707 -0.0032  0.6124
  141OSM   H12A15395   0.787   4.343   6.265  0.0587  0.1889 -0.2679
  141OSM   H12B15396   0.880   4.212   6.324 -0.2783 -0.2039  0.8161
  141OSM    C1115397   0.716   4.162   6.191  0.5048 -0.6330  0.3248
  141OSM   H11A15398   0.663   4.216   6.109  1.2965  1.0628  0.9009
  141OSM   H11B15399   0.647   4.169   6.278  1.5410  1.1948  1.0188
  141OSM      P15400   0.671   3.898   6.207  0.3004  0.2336  0.2712
  141OSM    O1315401   0.531   3.904   6.158 -0.4580  0.0683  0.0724
  141OSM    O1415402   0.744   3.774   6.175  0.9060  0.1025  0.4748
  141OSM    O1115403   0.670   3.910   6.375 -0.1657 -0.1826  0.2052
  141OSM    O1215404   0.752   4.026   6.160  0.2552 -0.2593  0.4044
  141OSM    C1S15405   0.799   3.929   6.434 -0.5473  0.0857 -0.3337
  141OSM    H1S15406   0.866   3.994   6.374 -1.7362  2.5516  0.9714
  141OSM    H1T15407   0.845   3.829   6.451  1.1582  0.9690  0.2668
  141OSM     NF15408   0.918   4.013   6.629  0.1132  0.1262 -0.3697
  141OSM    HNF15409   0.943   3.937   6.688 -0.6857  1.8602  2.3283
  141OSM    C2S15410   0.789   3.996   6.577 -0.3709 -0.1447 -0.2894
  141OSM    H2S15411   0.749   4.099   6.566  0.3363  0.2107  0.4110
  141OSM    C3S15412   0.692   3.913   6.665 -0.2547 -0.3896 -0.0327
  141OSM    H3S15413   0.743   3.818   6.694  0.2034 -0.9927 -2.6203
  141OSM     O315414   0.570   3.874   6.603 -0.8398  0.2183  0.1891
  141OSM    HO315415   0.583   3.912   6.515 -1.2178  2.4271  1.0565
  141OSM    C4S15416   0.664   3.986   6.791  0.3897  0.2616  0.1457
  141OSM    H4S15417   0.735   3.956   6.870 -0.4231  0.2678  0.8865
  141OSM    C5S15418   0.572   4.083   6.813  0.1869  0.3775 -0.0605
  141OSM    H5S15419   0.504   4.111   6.731  0.1840 -1.4848 -0.7397
  141OSM    C6S15420   0.543   4.144   6.948 -0.2177  0.3022  0.2694
  141OSM    H6S15421   0.436   4.140   6.977 -1.1201  0.3974 -2.8556
  141OSM    H6T15422   0.562   4.252   6.934 -0.6843  0.1261 -1.8345
  141OSM    C7S15423   0.635   4.091   7.069 -0.0498  0.7092  0.0579
  141OSM    H7S15424   0.739   4.102   7.031  0.2240 -0.9382  0.2859
  141OSM    H7T15425   0.608   3.984   7.081  0.6580  0.7252  1.8138
  141OSM    C8S15426   0.610   4.175   7.192 -0.5354 -0.9226 -0.0469
  141OSM    H8S15427   0.502   4.152   7.207 -1.3144 -0.3081 -4.1747
  141OSM    H8T15428   0.605   4.284   7.174 -0.4442 -0.8103  0.6196
  141OSM    C9S15429   0.707   4.134   7.301 -0.5442  0.3783 -0.8138
  141OSM    H9S15430   0.813   4.150   7.273 -0.1250  0.4775  0.7580
  141OSM    H9T15431   0.692   4.026   7.321  1.7810 -0.3263 -2.6804
  141OSM   C10S15432   0.684   4.197   7.439 -0.0221  0.1738  0.1881
  141OSM   H10S15433   0.575   4.198   7.464  0.0222 -2.9735  0.7401
  141OSM   H10T15434   0.723   4.300   7.433 -1.3088  0.6692  0.2482
  141OSM   C11S15435   0.759   4.119   7.544  0.3638 -0.4127  0.1790
  141OSM   H11S15436   0.866   4.113   7.516  0.9101  0.5159  2.0354
  141OSM   H11T15437   0.707   4.021   7.552  0.6213 -0.4511  1.3951
  141OSM   C12S15438   0.750   4.184   7.681 -0.0803 -0.1542  1.7210
  141OSM   H12S15439   0.645   4.216   7.692 -0.6524 -1.6367  0.7762
  141OSM   H12T15440   0.825   4.265   7.671  1.6107 -1.9081 -0.5343
  141OSM   C13S15441   0.779   4.093   7.807 -0.7647 -0.4737 -1.4777
  141OSM   H13S15442   0.884   4.061   7.792 -1.6601 -4.2545 -0.2450
  141OSM   H13T15443   0.715   4.004   7.789 -0.0637 -0.7747 -2.5073
  141OSM   C14S15444   0.758   4.169   7.936  0.1425 -0.2082  0.3197
  141OSM   H14S15445   0.647   4.181   7.933  0.1574 -0.1945 -0.3163
  141OSM   H14T15446   0.821   4.260   7.941  0.8749 -0.4543 -2.8717
  141OSM   C15S15447   0.778   4.086   8.061  0.4217 -0.0808  0.4821
  141OSM   H15S15448   0.875   4.033   8.050  0.0172 -1.1169  1.7208
  141OSM   H15T15449   0.706   4.001   8.059  0.7832 -0.3948  0.7224
  141OSM   C16S15450   0.758   4.160   8.188 -0.5080  0.0219  0.3758
  141OSM   H16S15451   0.827   4.247   8.185 -1.3003  0.6322 -0.1099
  141OSM   H16T15452   0.786   4.098   8.276 -0.7644 -1.0600 -0.3041
  141OSM   C17S15453   0.613   4.205   8.222  0.7906  0.1588  0.5065
  141OSM   H17S15454   0.535   4.127   8.239 -2.6333  3.5207  0.6570
  141OSM   H17T15455   0.580   4.274   8.143  1.9138  0.5933  0.4012
  141OSM   C18S15456   0.615   4.287   8.355 -0.3647  0.4879  0.4932
  141OSM   H18S15457   0.509   4.317   8.368 -0.1926  1.6475 -0.6541
  141OSM   H18T15458   0.670   4.384   8.354 -0.8327  0.7561  0.1683
  141OSM   H18U15459   0.636   4.222   8.442 -0.3414 -0.1216  0.0353
  141OSM    C1F15460   1.008   4.102   6.588  0.1135 -0.2293 -0.2543
  141OSM     OF15461   0.981   4.185   6.504  0.1780 -0.3024  0.3041
  141OSM    C2F15462   1.142   4.083   6.653  0.0251  0.1974 -0.8005
  141OSM    H2F15463   1.232   4.083   6.589  1.2998  1.4170  0.9423
  141OSM    H2G15464   1.144   3.979   6.694 -2.1907  0.2353 -0.5305
  141OSM    C3F15465   1.174   4.186   6.764 -0.3969  0.6151 -0.6467
  141OSM    H3F15466   1.143   4.287   6.728 -2.5314 -0.3091 -1.5088
  141OSM    H3G15467   1.282   4.173   6.783 -0.0866  2.8141 -0.7481
  141OSM    C4F15468   1.093   4.161   6.893 -0.5043  0.3603 -0.2109
  141OSM    H4F15469   1.142   4.069   6.932 -0.6840  0.1488 -0.4929
  141OSM    H4G15470   0.987   4.134   6.875 -0.3550  0.0186 -0.5859
  141OSM    C5F15471   1.093   4.275   7.001 -0.5769 -0.1062  0.3523
  141OSM    H5F15472   1.017   4.349   6.968  0.4510  2.3075  3.1884
  141OSM    H5G15473   1.190   4.331   7.006 -0.5965 -0.2365  2.6331
  141OSM    C6F15474   1.046   4.224   7.139  0.3736  1.0317 -0.2409
  141OSM    H6F15475   1.062   4.114   7.146 -3.3826  0.3768 -0.9259
  141OSM    H6G15476   0.938   4.244   7.153 -0.3978 -1.6896 -1.9940
  141OSM    C7F15477   1.126   4.300   7.249  0.0326 -0.0598  0.6568
  141OSM    H7F15478   1.085   4.403   7.240  2.1540  0.8758  1.4149
  141OSM    H7G15479   1.235   4.302   7.226 -0.2778 -1.0947 -1.0012
  141OSM    C8F15480   1.094   4.249   7.391  1.2256  0.4419 -0.5497
  141OSM    H8F15481   1.119   4.142   7.398 -0.8177 -0.0953 -0.9781
  141OSM    H8G15482   0.983   4.250   7.393  1.2061  0.5516 -1.2860
  141OSM    C9F15483   1.136   4.341   7.503  0.3508 -0.1660  0.0239
  141OSM    H9F15484   1.124   4.449   7.482 -1.4605 -0.6278 -1.4546
  141OSM   C10F15485   1.196   4.297   7.618 -0.1448  0.2543 -0.1256
  141OSM   H10F15486   1.246   4.366   7.687  3.3135 -0.9486 -1.3081
  141OSM   C11F15487   1.229   4.153   7.648  0.9391  0.9012  0.3776
  141OSM   H11F15488   1.264   4.099   7.558 -1.1897  1.2951 -0.7175
  141OSM   H11G15489   1.131   4.110   7.678  0.3592  2.9658  1.5944
  141OSM   C12F15490   1.330   4.135   7.769  0.5998  0.2232  0.3735
  141OSM   H12F15491   1.429   4.162   7.728 -0.6548  1.8406 -1.6312
  141OSM   H12G15492   1.335   4.027   7.795  0.6643  0.2352  0.4070
  141OSM   C13F15493   1.300   4.212   7.902  0.0542 -0.1822  0.5087
  141OSM   H13F15494   1.329   4.319   7.890  0.1368 -0.1031  1.4256
  141OSM   H13G15495   1.378   4.172   7.970  0.1801 -2.0495 -0.6965
  141OSM   C14F15496   1.160   4.202   7.966  0.1588  0.2609 -0.1605
  141OSM   H14F15497   1.148   4.104   8.016 -2.2692 -0.2997 -1.7663
  141OSM   H14G15498   1.080   4.211   7.890 -1.1940 -1.6696  1.0212
  141OSM   C15F15499   1.128   4.319   8.061  0.9064 -0.1616 -0.3095
  141OSM   H15F15500   1.023   4.302   8.093  1.1476 -0.9612  0.0517
  141OSM   H15G15501   1.133   4.424   8.023 -1.4266  0.1719  0.2215
  141OSM   C16F15502   1.209   4.322   8.196 -0.0897 -0.0707  0.3979
  141OSM   H16F15503   1.315   4.335   8.167  0.6914  1.4331  3.6257
  141OSM   H16G15504   1.197   4.221   8.241 -0.5369 -0.7218 -1.1623
  141OSM   C17F15505   1.166   4.427   8.287 -0.4240 -1.0654  0.3378
  141OSM   H17F15506   1.057   4.430   8.306 -0.0428  1.3337  2.6034
  141OSM   H17G15507   1.193   4.527   8.247  1.7194 -0.8262  2.2831
  141OSM   C18F15508   1.240   4.408   8.418 -0.4371 -0.0709  0.9119
  141OSM   H18F15509   1.350   4.425   8.417 -0.8273  3.0268  2.7401
  141OSM   H18G15510   1.215   4.306   8.454  0.8674 -0.7319 -0.0230
  141OSM   H18H15511   1.197   4.463   8.504  3.2744 -0.7351  3.3367
  142OSM      N15512   0.921   6.231   5.920  0.2617  0.0078  0.5379
  142OSM    C1515513   0.872   6.319   5.805  0.9828 -0.4491  0.5508
  142OSM   H15A15514   0.921   6.414   5.818  1.4346 -0.9666  2.7988
  142OSM   H15B15515   0.767   6.344   5.800  1.6553  2.0902 -1.9220
  142OSM   H15C15516   0.906   6.283   5.709  1.0248 -0.1535  0.4576
  142OSM    C1415517   0.852   6.094   5.916  0.1409  0.1953 -0.2202
  142OSM   H14A15518   0.744   6.106   5.916  0.1946  0.7639  0.6967
  142OSM   H14B15519   0.871   6.038   6.006  0.9978  1.4051  0.3655
  142OSM   H14C15520   0.877   6.042   5.825 -0.8336  2.4815 -1.8540
  142OSM    C1315521   1.064   6.200   5.893  0.5068  0.6940  0.1720
  142OSM   H13A15522   1.120   6.292   5.909 -0.1654  0.9412  1.1608
  142OSM   H13B15523   1.072   6.155   5.796  3.4592 -1.7413  1.4748
  142OSM   H13C15524   1.102   6.124   5.960  0.5526  1.2601  0.8059
  142OSM    C1215525   0.898   6.296   6.056 -0.3865 -0.2364  0.3005
  142OSM   H12A15526   0.796   6.329   6.069 -0.0412  1.7115 -1.7833
  142OSM   H12B15527   0.964   6.381   6.055 -1.3137  0.5283  2.1990
  142OSM    C1115528   0.934   6.206   6.179  0.5642 -0.5575 -0.2710
  142OSM   H11A15529   0.860   6.123   6.178 -0.1676  0.0813  0.2598
  142OSM   H11B15530   0.906   6.256   6.274  1.2915 -0.1665 -0.2595
  142OSM      P15531   1.193   6.230   6.250 -0.0416 -0.1845 -0.1566
  142OSM    O1315532   1.309   6.136   6.261 -0.0740 -0.2603  0.5833
  142OSM    O1415533   1.211   6.367   6.195  0.4980 -0.0256  0.8189
  142OSM    O1115534   1.127   6.252   6.393 -0.2651 -0.6402  0.2493
  142OSM    O1215535   1.068   6.156   6.172 -0.2415 -0.5714 -0.0146
  142OSM    C1S15536   1.216   6.289   6.495 -0.5159  0.3954  0.5293
  142OSM    H1S15537   1.237   6.398   6.491  3.1097 -0.1155  3.1778
  142OSM    H1T15538   1.315   6.240   6.491 -0.8946 -0.5730  2.4416
  142OSM     NF15539   1.257   6.330   6.747 -0.7180 -0.0144 -0.3587
  142OSM    HNF15540   1.307   6.268   6.806 -1.6325  0.7866  1.2757
  142OSM    C2S15541   1.164   6.274   6.647 -0.4356  0.3607 -0.5591
  142OSM    H2S15542   1.066   6.324   6.657 -1.8547 -2.5180  0.6186
  142OSM    C3S15543   1.133   6.117   6.668 -0.0468  0.0306  0.7837
  142OSM    H3S15544   1.228   6.062   6.651  0.2610  1.2604 -1.6888
  142OSM     O315545   1.032   6.058   6.586  0.5583 -0.1448  0.3792
  142OSM    HO315546   1.029   6.106   6.503  1.9364  1.5256  1.2853
  142OSM    C4S15547   1.105   6.095   6.812  0.4086  0.0246 -0.2295
  142OSM    H4S15548   1.192   6.050   6.862  0.8084  0.3331 -0.6389
  142OSM    C5S15549   0.986   6.097   6.875 -0.9684 -0.1190 -0.0744
  142OSM    H5S15550   0.899   6.115   6.809 -0.0636 -1.0913 -1.5647
  142OSM    C6S15551   0.970   6.066   7.023  0.0743  0.2366  0.4908
  142OSM    H6S15552   1.011   5.965   7.044  1.6915  0.6580 -0.5362
  142OSM    H6T15553   0.862   6.060   7.051  0.2334  1.4756  1.4399
  142OSM    C7S15554   1.057   6.159   7.106 -0.1873 -0.0233 -0.8319
  142OSM    H7S15555   1.011   6.260   7.097 -2.6758 -0.9776  0.5887
  142OSM    H7T15556   1.161   6.173   7.070  0.6442 -2.7649  0.3366
  142OSM    C8S15557   1.049   6.109   7.258 -0.0942 -0.3624  0.3826
  142OSM    H8S15558   1.083   6.003   7.258 -2.1593 -1.0494 -1.6833
  142OSM    H8T15559   0.939   6.106   7.274 -0.4142  1.5746 -1.3171
  142OSM    C9S15560   1.119   6.207   7.357  0.1816 -0.2551  0.2813
  142OSM    H9S15561   1.096   6.307   7.314 -0.4481 -0.1918  0.7709
  142OSM    H9T15562   1.229   6.192   7.361 -0.2009 -3.7846 -0.5982
  142OSM   C10S15563   1.057   6.183   7.496 -0.3162 -0.1788 -0.6353
  142OSM   H10S15564   1.066   6.079   7.534  0.1753 -0.4092 -1.3598
  142OSM   H10T15565   0.947   6.195   7.490 -0.4432 -0.4477  0.9106
  142OSM   C11S15566   1.115   6.284   7.602  0.1426 -0.2178  0.3516
  142OSM   H11S15567   1.069   6.383   7.582  0.3726  0.0258  1.0249
  142OSM   H11T15568   1.224   6.289   7.583 -0.0412  1.5724 -0.3750
  142OSM   C12S15569   1.085   6.253   7.748  0.0496  0.1543  0.2574
  142OSM   H12S15570   1.110   6.146   7.763  2.0663  0.4363 -0.9397
  142OSM   H12T15571   0.976   6.267   7.763  0.0169 -1.1200  1.3594
  142OSM   C13S15572   1.156   6.335   7.849 -0.3244  0.1088 -0.7069
  142OSM   H13S15573   1.130   6.443   7.839  1.7420  0.6836 -0.1812
  142OSM   H13T15574   1.266   6.323   7.844 -0.2067 -0.8315  2.5859
  142OSM   C14S15575   1.111   6.304   7.993  0.1488 -0.0450  0.1595
  142OSM   H14S15576   1.132   6.201   8.031  2.2609  0.6155  0.8914
  142OSM   H14T15577   1.003   6.317   8.014 -0.3349 -0.7929 -1.7977
  142OSM   C15S15578   1.180   6.396   8.096 -0.0129 -0.2621  0.1519
  142OSM   H15S15579   1.105   6.425   8.173  1.2354  2.3786  0.4099
  142OSM   H15T15580   1.211   6.492   8.050 -1.9618 -0.9863 -2.8251
  142OSM   C16S15581   1.300   6.322   8.161 -0.0088  0.0188  0.1250
  142OSM   H16S15582   1.370   6.287   8.082  0.8058 -0.1474  0.9093
  142OSM   H16T15583   1.263   6.232   8.215 -1.3318  1.7027  2.0831
  142OSM   C17S15584   1.379   6.416   8.257 -0.1807  0.6211  0.3661
  142OSM   H17S15585   1.406   6.510   8.204  0.6760 -0.6712 -1.5476
  142OSM   H17T15586   1.479   6.372   8.273  0.0466  1.7813  2.3246
  142OSM   C18S15587   1.315   6.437   8.388 -0.7064  0.5065  0.4886
  142OSM   H18S15588   1.317   6.331   8.422 -0.9339  0.2805 -0.2016
  142OSM   H18T15589   1.212   6.477   8.382  0.0468  2.9104  2.4416
  142OSM   H18U15590   1.362   6.509   8.459  2.2270 -0.3623 -0.4869
  142OSM    C1F15591   1.274   6.463   6.754  0.0252  0.6939 -0.1936
  142OSM     OF15592   1.212   6.540   6.675  0.1975 -0.6530 -0.1989
  142OSM    C2F15593   1.374   6.512   6.851  0.0264  0.1211  0.0988
  142OSM    H2F15594   1.404   6.609   6.806 -0.1569  0.6710  1.1477
  142OSM    H2G15595   1.470   6.458   6.866 -1.3563 -2.5089 -0.2507
  142OSM    C3F15596   1.301   6.524   6.984 -0.0495 -0.3226  0.1490
  142OSM    H3F15597   1.277   6.419   7.010  1.0873 -0.4139  0.8091
  142OSM    H3G15598   1.207   6.581   6.966  0.5081  0.8484  0.8822
  142OSM    C4F15599   1.382   6.591   7.091  0.5165 -0.2921  0.8603
  142OSM    H4F15600   1.428   6.680   7.043 -1.3698 -0.5041 -1.3968
  142OSM    H4G15601   1.454   6.525   7.144 -0.3315 -0.4830  1.7925
  142OSM    C5F15602   1.292   6.637   7.204 -1.3079  0.2998  0.1612
  142OSM    H5F15603   1.236   6.542   7.220 -3.2510  1.6340  1.3857
  142OSM    H5G15604   1.205   6.705   7.192 -0.9977  0.2984 -2.5264
  142OSM    C6F15605   1.379   6.674   7.328 -0.3472  0.7553 -0.0374
  142OSM    H6F15606   1.429   6.771   7.312 -0.9854  1.6438  2.9523
  142OSM    H6G15607   1.455   6.593   7.331 -1.5896 -0.3958  1.4720
  142OSM    C7F15608   1.309   6.649   7.464 -0.1029  0.0089 -0.3150
  142OSM    H7F15609   1.239   6.565   7.446  1.4118 -1.6945  1.5234
  142OSM    H7G15610   1.253   6.741   7.490  0.3350 -0.1523  1.2989
  142OSM    C8F15611   1.402   6.593   7.574  1.0777  0.4216  0.0791
  142OSM    H8F15612   1.447   6.501   7.531 -0.8160 -0.9398  0.9591
  142OSM    H8G15613   1.348   6.555   7.663  1.9958 -0.9656  0.0690
  142OSM    C9F15614   1.505   6.692   7.613 -0.1593  0.5503  0.2249
  142OSM    H9F15615   1.556   6.752   7.536  3.7798  0.3460  2.5614
  142OSM   C10F15616   1.532   6.717   7.740 -0.1599 -0.4928  0.0154
  142OSM   H10F15617   1.618   6.780   7.766  1.5728 -2.8302  0.1033
  142OSM   C11F15618   1.479   6.652   7.865 -0.0139  0.2733  0.5684
  142OSM   H11F15619   1.460   6.543   7.853  3.4580 -0.3411  0.3868
  142OSM   H11G15620   1.373   6.682   7.881  0.2145  1.4600 -0.0906
  142OSM   C12F15621   1.552   6.682   7.998  0.3239  0.6748 -0.1532
  142OSM   H12F15622   1.480   6.661   8.080 -1.2111  2.0071 -1.1264
  142OSM   H12G15623   1.582   6.789   8.006  1.4931  0.4163 -0.9389
  142OSM   C13F15624   1.671   6.590   8.028 -0.2268 -0.0446 -0.1525
  142OSM   H13F15625   1.728   6.572   7.935 -0.4612 -1.4944 -0.0157
  142OSM   H13G15626   1.631   6.493   8.064 -0.1468 -0.4402 -1.1253
  142OSM   C14F15627   1.773   6.638   8.131 -0.7591  0.7795 -0.9558
  142OSM   H14F15628   1.799   6.742   8.105  2.0867  0.5765  0.7347
  142OSM   H14G15629   1.859   6.567   8.132 -0.6646  0.8359  2.0720
  142OSM   C15F15630   1.710   6.640   8.270 -0.5225  0.2772  0.5810
  142OSM   H15F15631   1.685   6.539   8.310 -0.8072 -0.6100 -1.7784
  142OSM   H15G15632   1.618   6.703   8.271 -0.9221 -0.3009  3.1216
  142OSM   C16F15633   1.802   6.718   8.373  0.4505  0.3683 -0.0776
  142OSM   H16F15634   1.836   6.812   8.326  2.4894 -0.2816  0.0718
  142OSM   H16G15635   1.896   6.659   8.379  1.1143  0.8038 -4.4548
  142OSM   C17F15636   1.754   6.735   8.513  0.3489  0.1725 -0.0324
  142OSM   H17F15637   1.720   6.637   8.552  0.4850  0.4830  0.8716
  142OSM   H17G15638   1.667   6.803   8.505  1.5752  2.0992  2.4219
  142OSM   C18F15639   1.848   6.816   8.606  0.0095  0.2600 -0.2978
  142OSM   H18F15640   1.953   6.793   8.577 -0.3142 -0.1097 -1.1830
  142OSM   H18G15641   1.831   6.803   8.715  0.1599 -0.1103 -0.3152
  142OSM   H18H15642   1.836   6.922   8.575 -0.3796  0.1358 -0.5710
  143OSM      N15643   2.966   2.210   6.109  0.4092  0.2435 -0.0512
  143OSM    C1515644   2.983   2.152   6.237  0.3634 -0.1740 -0.5668
  143OSM   H15A15645   2.890   2.153   6.292  0.6810  3.2198 -0.0352
  143OSM   H15B15646   3.060   2.199   6.295  0.5021  0.4763 -1.2742
  143OSM   H15C15647   3.006   2.047   6.225  0.0069 -0.1659 -1.3793
  143OSM    C1415648   2.936   2.354   6.126 -0.0030 -0.0985 -0.2656
  143OSM   H14A15649   2.909   2.414   6.041  2.5964 -0.5998 -1.4701
  143OSM   H14B15650   3.022   2.402   6.169  2.3903 -2.3190 -2.4262
  143OSM   H14C15651   2.853   2.369   6.194 -0.3858  0.6737 -0.8983
  143OSM    C1315652   3.085   2.203   6.017  1.1628 -0.2573 -0.7901
  143OSM   H13A15653   3.166   2.259   6.063  1.8639 -2.6840  1.0158
  143OSM   H13B15654   3.058   2.250   5.923 -1.4460 -0.8583 -0.3740
  143OSM   H13C15655   3.117   2.102   6.001 -0.2338 -0.5518 -1.7927
  143OSM    C1215656   2.856   2.138   6.032 -0.6407  0.3604  0.0306
  143OSM   H12A15657   2.851   2.174   5.931 -2.4362  0.2748  0.0749
  143OSM   H12B15658   2.764   2.175   6.075 -0.5159  0.5624  0.1258
  143OSM    C1115659   2.856   1.979   6.034  0.1448 -0.1306  0.4940
  143OSM   H11A15660   2.776   1.952   5.962  2.2712 -0.8911 -1.6306
  143OSM   H11B15661   2.819   1.943   6.132 -0.5330  0.7179  0.5546
  143OSM      P15662   3.041   1.797   6.065 -0.2031 -0.4605  0.3276
  143OSM    O1315663   2.958   1.675   6.025 -0.0625 -0.2225  0.7222
  143OSM    O1415664   3.188   1.789   6.037 -0.5139 -0.0577 -0.2232
  143OSM    O1115665   3.021   1.823   6.217  0.0755  0.1915 -0.3322
  143OSM    O1215666   2.981   1.921   5.995 -0.1482 -0.1952  0.0560
  143OSM    C1S15667   3.112   1.769   6.322 -0.5587 -0.5973 -0.2388
  143OSM    H1S15668   3.211   1.819   6.316 -1.2383  0.6586 -1.2389
  143OSM    H1T15669   3.128   1.659   6.314 -1.7206 -0.7315 -0.7010
  143OSM     NF15670   3.159   1.744   6.565  0.1789  0.4234 -0.0775
  143OSM    HNF15671   3.150   1.648   6.592 -0.8974  0.0260 -1.7812
  143OSM    C2S15672   3.058   1.789   6.470 -0.5531 -0.4790 -0.2090
  143OSM    H2S15673   3.046   1.896   6.498 -1.9408 -1.2223  2.1402
  143OSM    C3S15674   2.923   1.717   6.480  0.2135  0.6424 -0.6302
  143OSM    H3S15675   2.959   1.613   6.468  0.2299  0.6036 -0.2492
  143OSM     O315676   2.828   1.727   6.366 -0.0499  0.5623 -0.2367
  143OSM    HO315677   2.885   1.756   6.294  0.8379 -0.7025 -0.0561
  143OSM    C4S15678   2.844   1.736   6.603 -0.5370  0.1902 -0.5117
  143OSM    H4S15679   2.831   1.841   6.631  1.4398  0.0781  0.8325
  143OSM    C5S15680   2.792   1.638   6.675  0.3228 -0.1023  0.0066
  143OSM    H5S15681   2.809   1.534   6.645 -1.5546 -0.2852 -0.4805
  143OSM    C6S15682   2.711   1.653   6.804  0.3973 -0.1789 -0.7670
  143OSM    H6S15683   2.607   1.629   6.774 -0.3513 -0.0494  1.6511
  143OSM    H6T15684   2.715   1.761   6.830 -0.6289  0.2296 -2.2450
  143OSM    C7S15685   2.741   1.570   6.935 -0.0201 -0.0687  0.0911
  143OSM    H7S15686   2.841   1.598   6.976  0.3137 -0.3543 -0.5204
  143OSM    H7T15687   2.743   1.465   6.900  2.7492 -0.0790  0.1705
  143OSM    C8S15688   2.634   1.619   7.038  0.7436 -0.2365  0.0949
  143OSM    H8S15689   2.534   1.611   6.990  0.1469 -0.8623  1.4047
  143OSM    H8T15690   2.645   1.729   7.051  0.0002 -0.4219  2.7300
  143OSM    C9S15691   2.629   1.551   7.175 -0.4894 -0.3941 -0.2267
  143OSM    H9S15692   2.729   1.548   7.223 -0.5752 -0.3563 -0.0441
  143OSM    H9T15693   2.594   1.447   7.157 -2.9212  0.5764 -1.3937
  143OSM   C10S15694   2.529   1.602   7.279  0.5245 -0.5073 -0.6274
  143OSM   H10S15695   2.424   1.592   7.242  0.3060 -2.9944  0.6008
  143OSM   H10T15696   2.560   1.705   7.307 -0.8848 -0.2144 -0.1066
  143OSM   C11S15697   2.519   1.546   7.422  0.4401  0.7764  0.1568
  143OSM   H11S15698   2.527   1.436   7.412  3.3862  0.9437  0.1524
  143OSM   H11T15699   2.422   1.575   7.467 -0.7043 -1.5230 -0.7795
  143OSM   C12S15700   2.618   1.602   7.523 -0.2211 -0.6229  0.1644
  143OSM   H12S15701   2.599   1.709   7.546 -1.5337 -0.4806 -1.4752
  143OSM   H12T15702   2.722   1.587   7.490  0.5172  1.6381  1.3518
  143OSM   C13S15703   2.617   1.529   7.660 -0.3308 -0.0347  0.2314
  143OSM   H13S15704   2.720   1.548   7.699  0.3902  1.1009 -2.1196
  143OSM   H13T15705   2.597   1.420   7.653 -0.2121 -0.2156  2.4784
  143OSM   C14S15706   2.521   1.586   7.766  0.1119  0.1637  0.9793
  143OSM   H14S15707   2.414   1.570   7.740  0.5174  1.1237 -1.3515
  143OSM   H14T15708   2.542   1.692   7.788  0.4507  0.9170 -2.6629
  143OSM   C15S15709   2.555   1.515   7.903 -0.6362  0.1486 -0.4566
  143OSM   H15S15710   2.659   1.543   7.930  0.3705 -1.9752 -1.9887
  143OSM   H15T15711   2.543   1.405   7.893 -0.1334  0.2248 -2.0004
  143OSM   C16S15712   2.464   1.555   8.020  1.0180 -0.1582  0.3570
  143OSM   H16S15713   2.357   1.558   7.992  1.4232  1.0912 -1.1090
  143OSM   H16T15714   2.492   1.659   8.046 -3.2427  1.0429  0.4111
  143OSM   C17S15715   2.496   1.468   8.143  0.2481 -0.0533  0.2920
  143OSM   H17S15716   2.606   1.464   8.155  0.2152  1.5414  1.2113
  143OSM   H17T15717   2.463   1.364   8.120  1.4810 -1.0386  2.7421
  143OSM   C18S15718   2.448   1.517   8.281 -0.7397 -0.5927 -0.0565
  143OSM   H18S15719   2.480   1.435   8.348 -2.3295  1.2637  3.0971
  143OSM   H18T15720   2.337   1.521   8.292 -0.5892 -0.1636  1.2926
  143OSM   H18U15721   2.488   1.614   8.318 -0.3230 -0.9483  0.4250
  143OSM    C1F15722   3.269   1.813   6.600  0.0733  0.1026  0.3659
  143OSM     OF15723   3.304   1.914   6.538 -0.3794  0.2993  0.2490
  143OSM    C2F15724   3.350   1.754   6.707  0.0260  0.7710 -0.8091
  143OSM    H2F15725   3.403   1.663   6.673 -0.8880  0.4394 -1.3710
  143OSM    H2G15726   3.274   1.722   6.781  0.9836  1.4356  0.4731
  143OSM    C3F15727   3.445   1.846   6.786  0.6497 -0.0434  1.2037
  143OSM    H3F15728   3.373   1.916   6.834  1.1385  0.5614  1.0634
  143OSM    H3G15729   3.507   1.909   6.718 -1.0662  1.1892  0.7408
  143OSM    C4F15730   3.531   1.790   6.894 -0.1081  0.3740  0.0548
  143OSM    H4F15731   3.624   1.847   6.917  0.6912 -1.3429  1.2241
  143OSM    H4G15732   3.566   1.690   6.863  0.5219 -0.0704  2.1190
  143OSM    C5F15733   3.471   1.792   7.035 -0.2314  0.2472  0.4273
  143OSM    H5F15734   3.368   1.752   7.021 -0.6293  1.0857  0.9542
  143OSM    H5G15735   3.466   1.897   7.070 -0.8555 -0.1201  1.4676
  143OSM    C6F15736   3.545   1.698   7.129  0.6635 -0.1171 -0.2020
  143OSM    H6F15737   3.640   1.749   7.155 -0.7116  1.8898  0.9339
  143OSM    H6G15738   3.552   1.593   7.091  0.2020 -0.5048  0.7613
  143OSM    C7F15739   3.483   1.683   7.270 -0.7141 -0.8738 -0.4433
  143OSM    H7F15740   3.535   1.600   7.322  0.1217 -0.5788 -0.8103
  143OSM    H7G15741   3.377   1.663   7.243 -0.6234 -0.4167 -1.1628
  143OSM    C8F15742   3.486   1.808   7.357  0.7698 -0.1886  0.2307
  143OSM    H8F15743   3.404   1.787   7.429  0.5866 -0.6495 -0.1073
  143OSM    H8G15744   3.452   1.900   7.306 -0.0670  0.2226  1.5155
  143OSM    C9F15745   3.618   1.819   7.423 -0.1197  0.7219  0.0056
  143OSM    H9F15746   3.699   1.855   7.358 -0.2541  1.5347  0.2837
  143OSM   C10F15747   3.650   1.784   7.547 -0.8237  0.4335  0.3010
  143OSM   H10F15748   3.747   1.801   7.596 -1.8444  5.1871  0.9118
  143OSM   C11F15749   3.557   1.710   7.645 -0.9684  0.4825  0.3517
  143OSM   H11F15750   3.590   1.605   7.662  0.2109  1.0721  1.7729
  143OSM   H11G15751   3.452   1.693   7.612 -0.4746 -0.0884 -0.9546
  143OSM   C12F15752   3.560   1.766   7.784 -0.4970 -0.0398 -0.3979
  143OSM   H12F15753   3.509   1.865   7.786 -1.2570 -0.4402  1.0242
  143OSM   H12G15754   3.659   1.792   7.828 -1.1025 -3.0973  3.0637
  143OSM   C13F15755   3.485   1.672   7.880  1.0722 -0.9185 -0.2079
  143OSM   H13F15756   3.482   1.569   7.838 -1.8517 -0.0801 -2.2834
  143OSM   H13G15757   3.378   1.704   7.877  1.5493  0.7085 -0.2788
  143OSM   C14F15758   3.531   1.665   8.023  0.5254 -1.2322  0.1404
  143OSM   H14F15759   3.507   1.763   8.069  2.4157 -0.9305  0.5421
  143OSM   H14G15760   3.642   1.656   8.020  0.4189 -2.2325 -1.0676
  143OSM   C15F15761   3.475   1.552   8.113  0.2231  0.4291 -0.0533
  143OSM   H15F15762   3.515   1.457   8.071 -1.4310 -0.9971  1.5228
  143OSM   H15G15763   3.364   1.557   8.104  0.1844 -1.4230 -0.8908
  143OSM   C16F15764   3.523   1.564   8.258 -1.0375 -0.2908  0.2038
  143OSM   H16F15765   3.481   1.655   8.306 -0.3081 -0.1158  0.5142
  143OSM   H16G15766   3.634   1.559   8.267 -0.9986  2.8673  2.5194
  143OSM   C17F15767   3.477   1.438   8.337 -0.4766 -0.2727 -0.3138
  143OSM   H17F15768   3.519   1.342   8.301 -1.3046 -1.9103  2.8383
  143OSM   H17G15769   3.367   1.439   8.324 -0.2143 -0.3566 -2.6954
  143OSM   C18F15770   3.499   1.433   8.490 -0.4549 -1.0317 -0.3837
  143OSM   H18F15771   3.496   1.332   8.536  1.2482 -0.4639  1.0722
  143OSM   H18G15772   3.427   1.498   8.545 -0.2872 -1.0843 -0.0980
  143OSM   H18H15773   3.600   1.468   8.521 -0.3050 -3.1519  1.6783
  144OSM      N15774   2.212   1.182   6.064  0.0837  0.3289 -0.3845
  144OSM    C1515775   2.330   1.155   5.980  0.5874 -0.0687 -0.5656
  144OSM   H15A15776   2.304   1.166   5.876 -0.5166  0.1105 -0.2749
  144OSM   H15B15777   2.372   1.058   6.000  1.9331  0.3973 -1.0575
  144OSM   H15C15778   2.416   1.220   5.992 -0.0843  0.5378  1.0856
  144OSM    C1415779   2.139   1.306   6.014  0.0454 -0.0396  0.1748
  144OSM   H14A15780   2.046   1.314   6.069 -0.4251 -2.4105 -0.2548
  144OSM   H14B15781   2.124   1.302   5.907 -2.1660 -1.8274  0.5092
  144OSM   H14C15782   2.196   1.397   6.028 -0.5829  0.7462 -2.1778
  144OSM    C1315783   2.128   1.072   6.035  0.3251  0.9899 -0.1063
  144OSM   H13A15784   2.089   1.084   5.935 -0.4478  0.4558  0.1327
  144OSM   H13B15785   2.044   1.067   6.102 -0.8185 -1.1228 -1.6672
  144OSM   H13C15786   2.193   0.987   6.052 -1.1785 -0.0416  0.5361
  144OSM    C1215787   2.244   1.187   6.208  0.0941  1.0119 -0.1495
  144OSM   H12A15788   2.309   1.271   6.224 -0.1581  1.0767  0.5299
  144OSM   H12B15789   2.301   1.096   6.226  0.1004  0.8806 -0.8051
  144OSM    C1115790   2.139   1.204   6.318 -0.1617  0.2954  0.1285
  144OSM   H11A15791   2.197   1.226   6.410 -0.6678 -1.9275  1.0107
  144OSM   H11B15792   2.083   1.110   6.337 -1.2183  0.7645 -0.5317
  144OSM      P15793   1.885   1.303   6.274  0.3241 -0.1941 -0.1236
  144OSM    O1315794   1.833   1.442   6.258  0.1253 -0.1003 -0.9333
  144OSM    O1415795   1.856   1.200   6.174  0.2303 -0.2414 -0.5658
  144OSM    O1115796   1.843   1.255   6.417 -0.1049 -0.4362 -0.0139
  144OSM    O1215797   2.041   1.309   6.290 -0.6128  0.0938  0.3872
  144OSM    C1S15798   1.873   1.337   6.535 -0.4774  0.6017  0.9222
  144OSM    H1S15799   1.808   1.427   6.539  1.1323  1.8332  0.1444
  144OSM    H1T15800   1.981   1.363   6.535  0.0540 -1.5182 -0.4363
  144OSM     NF15801   1.882   1.336   6.778 -0.0116 -0.0795  0.1389
  144OSM    HNF15802   1.970   1.329   6.825  0.5435 -2.2920 -1.1889
  144OSM    C2S15803   1.860   1.252   6.663 -0.0344  0.3762 -1.0102
  144OSM    H2S15804   1.760   1.205   6.674  0.0650  0.5144  0.6167
  144OSM    C3S15805   1.960   1.128   6.656  0.7718 -0.0384  0.5111
  144OSM    H3S15806   2.061   1.169   6.635 -0.0219  1.7320  0.0980
  144OSM     O315807   1.942   1.046   6.541 -0.0411 -0.4741  0.2734
  144OSM    HO315808   1.902   1.099   6.472  0.6038 -2.7234 -1.9248
  144OSM    C4S15809   1.968   1.037   6.771 -0.0091 -0.5948  0.2877
  144OSM    H4S15810   1.863   1.028   6.804 -0.6018 -1.3556 -1.7067
  144OSM    C5S15811   2.085   1.000   6.834  0.2429  0.3086 -0.1612
  144OSM    H5S15812   2.186   1.030   6.800  0.2841 -1.0285 -1.2589
  144OSM    C6S15813   2.097   0.909   6.953  0.6663 -0.8946 -0.6601
  144OSM    H6S15814   2.160   0.964   7.027 -0.9056  1.7125 -1.1688
  144OSM    H6T15815   2.143   0.816   6.914  1.4668 -1.2545  1.0677
  144OSM    C7S15816   1.965   0.877   7.024 -0.3732  0.0724 -0.6380
  144OSM    H7S15817   1.894   0.839   6.947 -1.5870  1.5003 -0.2661
  144OSM    H7T15818   1.934   0.980   7.050  0.1820 -0.1984  1.1847
  144OSM    C8S15819   1.966   0.776   7.132  0.4819 -0.0350  0.0037
  144OSM    H8S15820   2.040   0.698   7.105  2.1498  2.6253 -3.5159
  144OSM    H8T15821   1.867   0.725   7.123  0.7697 -0.4818 -0.6325
  144OSM    C9S15822   1.991   0.841   7.272 -0.3219 -0.6507  0.7090
  144OSM    H9S15823   1.918   0.921   7.298  0.3468  1.2004 -2.7117
  144OSM    H9T15824   2.083   0.903   7.276 -0.2188 -0.5401 -1.9494
  144OSM   C10S15825   1.997   0.740   7.378  0.1253  0.4621 -0.3508
  144OSM   H10S15826   2.085   0.674   7.360  0.9733  0.6607  2.7768
  144OSM   H10T15827   1.913   0.669   7.360  0.8545 -0.7008  0.7480
  144OSM   C11S15828   2.012   0.781   7.517 -0.1172 -0.1105  0.0186
  144OSM   H11S15829   2.094   0.855   7.527 -1.3621  1.2975  0.0028
  144OSM   H11T15830   2.042   0.699   7.585 -0.0737  1.6908  2.1960
  144OSM   C12S15831   1.885   0.854   7.575 -0.4758 -0.6644  0.3004
  144OSM   H12S15832   1.791   0.795   7.565  0.8994 -3.2840  2.3917
  144OSM   H12T15833   1.870   0.951   7.522  1.6930 -0.4101  0.1134
  144OSM   C13S15834   1.898   0.892   7.724 -0.5687  0.0953 -0.1556
  144OSM   H13S15835   1.994   0.940   7.753 -0.2371  1.0254 -2.6040
  144OSM   H13T15836   1.898   0.799   7.785 -0.3000 -0.2736 -0.7106
  144OSM   C14S15837   1.786   0.981   7.774  1.1197  0.1964  0.5282
  144OSM   H14S15838   1.687   0.935   7.751  1.5408  1.5152 -4.5817
  144OSM   H14T15839   1.806   1.072   7.714  0.2983 -1.0170 -1.6481
  144OSM   C15S15840   1.795   1.020   7.925  0.0917  0.1300 -0.0650
  144OSM   H15S15841   1.717   1.097   7.943  0.0551 -0.2661  1.4695
  144OSM   H15T15842   1.896   1.052   7.959 -1.5984  3.2900  2.2418
  144OSM   C16S15843   1.763   0.899   8.016  0.4047 -0.4693  0.4640
  144OSM   H16S15844   1.832   0.811   8.018  1.6451  0.4972  1.1680
  144OSM   H16T15845   1.660   0.869   7.989 -0.3822  2.9072 -0.4652
  144OSM   C17S15846   1.758   0.945   8.167 -0.5923 -0.2838  0.7405
  144OSM   H17S15847   1.697   1.037   8.172  0.6633  0.7278 -1.5592
  144OSM   H17T15848   1.856   0.977   8.210  0.3420  0.0004 -1.5481
  144OSM   C18S15849   1.697   0.840   8.248 -0.6871 -0.2402 -0.0710
  144OSM   H18S15850   1.593   0.820   8.215 -1.9742  2.0372  2.3252
  144OSM   H18T15851   1.679   0.878   8.351 -2.6923  0.8646 -0.8185
  144OSM   H18U15852   1.758   0.748   8.257  3.5211  2.1655 -2.2725
  144OSM    C1F15853   1.811   1.442   6.805 -0.0778  0.1618  0.0620
  144OSM     OF15854   1.693   1.448   6.777  0.3010 -0.3455 -0.1512
  144OSM    C2F15855   1.878   1.557   6.874 -0.7138 -0.0275  0.4872
  144OSM    H2F15856   1.862   1.652   6.820  0.7976 -0.2019 -0.2693
  144OSM    H2G15857   1.987   1.539   6.867 -0.8029 -1.0408  1.4996
  144OSM    C3F15858   1.832   1.584   7.021  0.3519 -0.0632 -0.2789
  144OSM    H3F15859   1.856   1.488   7.071 -2.0078  0.0470  1.1825
  144OSM    H3G15860   1.721   1.582   7.016  0.1660  1.3915  2.2301
  144OSM    C4F15861   1.885   1.705   7.078 -0.6017 -0.6601 -0.8581
  144OSM    H4F15862   1.863   1.797   7.019 -0.4666 -0.3943 -0.5000
  144OSM    H4G15863   1.995   1.688   7.082 -0.4228  0.8877  1.8934
  144OSM    C5F15864   1.849   1.734   7.228 -0.2718 -0.1539 -0.3839
  144OSM    H5F15865   1.743   1.713   7.255 -0.3281 -0.9354 -1.1917
  144OSM    H5G15866   1.871   1.840   7.252  2.5024 -1.0897  1.3469
  144OSM    C6F15867   1.945   1.647   7.313 -0.4109  0.5439  0.5419
  144OSM    H6F15868   2.045   1.666   7.269 -0.5285  0.9203  0.4339
  144OSM    H6G15869   1.936   1.541   7.281  1.8670  0.0683  1.4200
  144OSM    C7F15870   1.953   1.692   7.456  0.3117 -0.1368 -0.1665
  144OSM    H7F15871   1.974   1.801   7.461  0.9108 -0.2439 -0.3885
  144OSM    H7G15872   2.019   1.623   7.514  1.5918  0.4634 -0.8945
  144OSM    C8F15873   1.816   1.677   7.537 -0.4567  0.3145 -0.1978
  144OSM    H8F15874   1.744   1.748   7.492 -0.7961  0.6800  0.9134
  144OSM    H8G15875   1.833   1.716   7.639  1.4242 -1.2031  0.1071
  144OSM    C9F15876   1.767   1.538   7.538 -0.2892 -0.3303 -0.2638
  144OSM    H9F15877   1.736   1.500   7.439 -1.9205 -0.0285  0.1117
  144OSM   C10F15878   1.772   1.454   7.642 -0.0976  0.2383 -0.2611
  144OSM   H10F15879   1.718   1.359   7.634  0.3739 -0.1598  1.1324
  144OSM   C11F15880   1.805   1.495   7.786 -0.2797  0.5673  0.4781
  144OSM   H11F15881   1.785   1.603   7.801  1.7215  1.1067 -0.4961
  144OSM   H11G15882   1.912   1.487   7.814 -1.2334 -3.1586  3.5201
  144OSM   C12F15883   1.727   1.417   7.887 -0.7253  0.2235  0.1387
  144OSM   H12F15884   1.748   1.308   7.890 -2.4954 -0.1459 -0.6586
  144OSM   H12G15885   1.621   1.445   7.871 -0.2388  2.0632 -0.0707
  144OSM   C13F15886   1.749   1.467   8.026  0.3253  0.1335 -0.1759
  144OSM   H13F15887   1.673   1.438   8.101 -1.1564 -2.3302 -2.5530
  144OSM   H13G15888   1.749   1.578   8.029 -1.6853  0.1465 -0.0305
  144OSM   C14F15889   1.882   1.439   8.086  0.1729  0.3599  0.1244
  144OSM   H14F15890   1.956   1.488   8.020  0.4797  0.4582  0.5416
  144OSM   H14G15891   1.905   1.330   8.086  0.5233  0.4316  1.0350
  144OSM   C15F15892   1.916   1.493   8.225  0.0013  0.0491  1.1059
  144OSM   H15F15893   1.893   1.600   8.245  1.2799  0.0917  2.3441
  144OSM   H15G15894   2.027   1.493   8.227  0.0175 -0.5580  0.3638
  144OSM   C16F15895   1.852   1.411   8.338  0.4914  1.0071 -0.4863
  144OSM   H16F15896   1.891   1.307   8.329 -2.4033 -0.2458  0.6602
  144OSM   H16G15897   1.745   1.404   8.307  0.7457 -1.0956 -0.9696
  144OSM   C17F15898   1.860   1.475   8.478 -0.2750  0.5726 -1.1327
  144OSM   H17F15899   1.816   1.577   8.479 -1.4423  0.1089  2.2833
  144OSM   H17G15900   1.970   1.477   8.487 -0.5084  2.1476  2.0510
  144OSM   C18F15901   1.797   1.384   8.582 -0.3283 -0.7144  0.1866
  144OSM   H18F15902   1.835   1.279   8.585 -0.2745 -0.6988  0.0486
  144OSM   H18G15903   1.686   1.374   8.580 -0.4723  0.6920  0.9753
  144OSM   H18H15904   1.804   1.428   8.683 -0.5493 -1.6901  0.6385
  145SAPE     N15905   0.896   2.329  10.973 -0.1593  0.0166  0.2340
  145SAPE   HN115906   0.909   2.372  10.879  1.0793  0.6772  0.6894
  145SAPE   HN215907   0.809   2.360  11.021 -0.2870 -0.0786  0.0634
  145SAPE   HN315908   0.977   2.364  11.028  0.7750 -1.2601 -0.2915
  145SAPE   C1215909   0.907   2.181  10.967  0.2003 -0.5706  0.1470
  145SAPE  H12A15910   0.834   2.134  11.037 -0.7197  1.1597  0.3687
  145SAPE  H12B15911   1.012   2.148  10.987 -0.0240 -1.3984  0.0001
  145SAPE   C1115912   0.873   2.133  10.822 -0.0123 -0.2451 -0.2501
  145SAPE  H11A15913   0.769   2.154  10.789  0.6326  1.9322 -0.9694
  145SAPE  H11B15914   0.882   2.023  10.808  0.6079 -0.1213 -0.8765
  145SAPE     P15915   1.113   2.178  10.718 -0.5394 -0.2337 -0.0676
  145SAPE   O1315916   1.184   2.290  10.783 -0.0998 -0.9007  0.0827
  145SAPE   O1415917   1.146   2.041  10.754  0.1693  0.5049 -0.5590
  145SAPE   O1215918   0.960   2.196  10.731 -0.0307 -0.5572  0.2693
  145SAPE   O1115919   1.148   2.195  10.565  0.0506  0.3011 -0.3330
  145SAPE    C115920   1.100   2.313  10.495 -0.3976  0.4594 -0.4306
  145SAPE    HA15921   0.989   2.313  10.505 -0.3756 -2.0172  0.1196
  145SAPE    HB15922   1.135   2.405  10.546  1.5533 -0.3578 -0.2635
  145SAPE    C215923   1.141   2.318  10.343 -0.5171 -0.0645 -0.1483
  145SAPE    HS15924   1.252   2.316  10.340 -0.5669 -1.4375 -1.5191
  145SAPE   O2115925   1.075   2.434  10.282  0.3062  0.1096  0.0865
  145SAPE   C2115926   1.147   2.496  10.190 -0.0948  0.1304 -0.3563
  145SAPE   O2215927   1.257   2.459  10.160 -0.9024  0.4536  0.1147
  145SAPE   C2215928   1.102   2.632  10.145 -0.0230  0.1265 -0.3039
  145SAPE   H2R15929   0.992   2.644  10.144 -0.0079  0.4405  0.9004
  145SAPE   H2S15930   1.133   2.709  10.219 -0.6960  0.7432 -0.6550
  145SAPE    C315931   1.096   2.178  10.283  0.1921  0.5675 -0.3721
  145SAPE    HX15932   0.987   2.175  10.304  0.3494  0.1600  0.4227
  145SAPE    HY15933   1.157   2.099  10.332 -2.3515 -0.9602  0.4240
  145SAPE   O3115934   1.106   2.185  10.138 -0.1942 -0.3465  0.1783
  145SAPE   C3115935   1.224   2.158  10.080 -1.1083 -0.1313 -0.0068
  145SAPE   O3215936   1.322   2.119  10.143  0.3205  0.6111  0.2463
  145SAPE   C3215937   1.213   2.173   9.930 -0.6544 -0.0652  0.0138
  145SAPE   H2X15938   1.231   2.280   9.910 -1.3332  0.0042 -0.2423
  145SAPE   H2Y15939   1.109   2.142   9.909 -0.4228 -0.4855 -0.5487
  145SAPE   C2315940   1.173   2.663  10.008  0.5326 -0.0003 -0.5545
  145SAPE   H3R15941   1.163   2.578   9.937 -3.1824 -0.2868  0.2074
  145SAPE   H3S15942   1.280   2.686  10.024  0.2699  0.3914  0.6620
  145SAPE   C2415943   1.108   2.790   9.946  0.1681  0.5724  0.0256
  145SAPE   H4R15944   0.997   2.787   9.955 -0.0353  4.1053 -0.5625
  145SAPE   H4S15945   1.145   2.799   9.841 -2.0672 -0.9230 -0.9267
  145SAPE   C2515946   1.156   2.897  10.040 -0.2544  0.3395 -0.2779
  145SAPE   H5R15947   1.088   2.900  10.127  0.8844  0.3956  0.6192
  145SAPE   C2615948   1.245   2.993  10.033 -0.2981  0.3242 -0.1771
  145SAPE   H6R15949   1.244   3.069  10.112 -1.3445  2.3233 -2.0432
  145SAPE   C2715950   1.338   3.011   9.906  0.0246 -0.0150  0.0932
  145SAPE   H7R15951   1.344   3.120   9.881  1.3887  0.1733  1.1718
  145SAPE   H7S15952   1.292   2.960   9.819  0.8807 -0.2496 -0.2227
  145SAPE   C2815953   1.477   2.959   9.932 -0.4081 -0.0800 -0.1588
  145SAPE   H8R15954   1.493   2.900  10.023  1.4742 -0.5779 -0.7850
  145SAPE   C2915955   1.588   2.981   9.860 -0.7615  0.6837 -0.3448
  145SAPE   H9R15956   1.683   2.935   9.891 -1.1008  1.2063  1.5070
  145SAPE  C21015957   1.602   3.065   9.740  0.5348  0.2251  0.6962
  145SAPE  H10R15958   1.499   3.085   9.701  0.8363 -0.5431 -0.5295
  145SAPE  H10S15959   1.664   3.004   9.672 -1.7831  0.1585 -1.4390
  145SAPE  C21115960   1.684   3.191   9.762 -0.7135 -0.3488  0.1128
  145SAPE  H11R15961   1.753   3.189   9.847  0.4477 -2.0440 -0.8501
  145SAPE  C21215962   1.674   3.294   9.679 -0.2392 -0.0216 -0.6975
  145SAPE  H12R15963   1.737   3.382   9.699 -0.1831  0.1784 -1.7293
  145SAPE  C21315964   1.586   3.310   9.554  0.0520  0.2185 -0.1846
  145SAPE  H13R15965   1.517   3.395   9.576  1.7029  0.9861  2.2274
  145SAPE  H13S15966   1.520   3.223   9.538  0.1612  0.2306 -0.6996
  145SAPE  C21415967   1.669   3.355   9.435  0.2726  0.2885  0.0172
  145SAPE  H14R15968   1.766   3.400   9.464  0.5821 -1.6700  2.1687
  145SAPE  C21515969   1.620   3.359   9.302  0.1015  0.4669  0.1259
  145SAPE  H15R15970   1.681   3.395   9.218  0.3274  0.0296  0.1020
  145SAPE  C21615971   1.481   3.310   9.266  0.9234  0.1316 -0.1038
  145SAPE  H16R15972   1.434   3.369   9.184 -1.8208 -1.6286  0.0967
  145SAPE  H16S15973   1.412   3.337   9.349  2.0074  1.0141  0.5203
  145SAPE  C21715974   1.489   3.156   9.241  0.1062 -0.2049 -0.3853
  145SAPE  H17R15975   1.545   3.103   9.321 -2.0076 -1.1397  0.5033
  145SAPE  H17S15976   1.547   3.149   9.146  1.6170 -2.2472  0.6461
  145SAPE  C21815977   1.350   3.094   9.222 -0.0648 -0.1576  0.2641
  145SAPE  H18R15978   1.288   3.107   9.313  0.5763  0.4017  0.6225
  145SAPE  H18S15979   1.356   2.984   9.209 -0.1663 -0.3757  2.0065
  145SAPE  C21915980   1.276   3.167   9.103 -0.8377 -0.3407 -0.6646
  145SAPE  H19R15981   1.249   3.270   9.134 -0.8045 -1.1495  2.2252
  145SAPE  H19S15982   1.173   3.129   9.088 -0.7941 -0.0689 -1.6230
  145SAPE  C22015983   1.345   3.164   8.971 -0.2020  0.4480 -0.4872
  145SAPE  H20R15984   1.369   3.062   8.934 -1.6826 -0.0830 -0.0081
  145SAPE  H20S15985   1.441   3.220   8.971  0.0827 -0.0255 -1.1303
  145SAPE  H20T15986   1.274   3.217   8.905 -0.2029  1.7859  0.5682
  145SAPE   C3315987   1.316   2.084   9.849  0.1320 -0.3857 -0.2188
  145SAPE   H3X15988   1.301   1.978   9.879 -0.6532  0.0001  0.7950
  145SAPE   H3Y15989   1.419   2.108   9.884 -0.3875 -0.4022  1.3969
  145SAPE   C3415990   1.322   2.108   9.702  0.4914 -0.5374 -0.5922
  145SAPE   H4X15991   1.412   2.053   9.667 -1.3626 -1.8239 -3.6015
  145SAPE   H4Y15992   1.323   2.215   9.671 -3.0163 -0.1040  0.5169
  145SAPE   C3515993   1.213   2.037   9.628  0.7371  0.3191  0.6224
  145SAPE   H5X15994   1.125   2.105   9.629 -0.9324 -1.7703 -0.1418
  145SAPE   H5Y15995   1.177   1.948   9.683  1.5098  0.1715  0.8963
  145SAPE   C3615996   1.234   2.000   9.483  0.2250 -0.5086 -0.2532
  145SAPE   H6X15997   1.320   1.930   9.494 -0.0902 -0.8679 -0.0540
  145SAPE   H6Y15998   1.265   2.091   9.427  2.7493 -1.9895 -1.3668
  145SAPE   C3715999   1.110   1.934   9.415  0.5642  0.3489 -0.8778
  145SAPE   H7X16000   1.039   2.018   9.399 -0.1450  0.4821  2.6015
  145SAPE   H7Y16001   1.073   1.873   9.501  2.0294 -0.1027 -0.5574
  145SAPE   C3816002   1.142   1.851   9.294 -0.0773 -0.3179  0.1494
  145SAPE   H8X16003   1.192   1.756   9.319  1.7635 -0.0236 -2.1574
  145SAPE   H8Y16004   1.216   1.908   9.233 -0.0532 -0.7495 -0.2255
  145SAPE   C3916005   1.028   1.807   9.205 -0.8849  0.5157  0.6104
  145SAPE   H9X16006   0.957   1.892   9.189 -2.3370 -0.5736  1.1239
  145SAPE   H9Y16007   0.981   1.726   9.265 -0.7544  1.3047  1.8033
  145SAPE  C31016008   1.066   1.761   9.068 -0.1377  0.1647  0.4430
  145SAPE  H10X16009   0.979   1.699   9.038 -0.5766  0.9896 -0.0180
  145SAPE  H10Y16010   1.147   1.685   9.078 -1.4834 -1.2455  0.7696
  145SAPE  C31116011   1.104   1.876   8.966 -0.4221  0.8227 -0.0106
  145SAPE  H11X16012   1.192   1.938   8.993  1.2080 -1.7214  0.7485
  145SAPE  H11Y16013   1.025   1.953   8.980 -2.9454 -1.6966  0.2178
  145SAPE  C31216014   1.114   1.829   8.821 -0.6016  0.1667  0.2944
  145SAPE  H12X16015   1.018   1.777   8.801  0.6372 -2.4664  0.9661
  145SAPE  H12Y16016   1.194   1.755   8.796  0.0821  1.5088 -1.7069
  145SAPE  C31316017   1.120   1.947   8.724  0.2060  0.0752 -0.2258
  145SAPE  H13X16018   1.033   2.009   8.755  0.2659 -1.6413  3.6527
  145SAPE  H13Y16019   1.100   1.913   8.620 -2.2647 -2.3578  0.9728
  145SAPE  C31416020   1.245   2.032   8.746  0.1119 -0.8687 -0.6964
  145SAPE  H14X16021   1.325   1.960   8.720 -0.2652 -1.9976  1.1871
  145SAPE  H14Y16022   1.266   2.063   8.850 -0.6643 -0.7803 -0.5674
  145SAPE  C31516023   1.252   2.165   8.657 -0.5118  0.2620  0.1865
  145SAPE  H15X16024   1.266   2.117   8.558 -0.4555 -1.0859  0.8381
  145SAPE  H15Y16025   1.347   2.217   8.685 -1.1027  1.5360 -0.1111
  145SAPE  C31616026   1.124   2.251   8.654 -0.1366 -0.1528  0.2450
  145SAPE  H16X16027   1.100   2.280   8.759  2.1677  0.5135  0.6126
  145SAPE  H16Y16028   1.032   2.193   8.632 -0.3833  0.1976  0.3459
  145SAPE  C31716029   1.140   2.377   8.567  0.2171  0.2727  0.1459
  145SAPE  H17X16030   1.147   2.338   8.463  3.7663  0.5989  0.2005
  145SAPE  H17Y16031   1.232   2.431   8.598 -1.0488  0.4422  3.9208
  145SAPE  C31816032   1.013   2.473   8.558 -0.5157 -0.1313 -0.1605
  145SAPE  H18X16033   1.024   2.537   8.467  0.4245  0.6638  0.4988
  145SAPE  H18Y16034   1.005   2.537   8.649 -0.1336  0.7715 -0.7525
  145SAPE  H18Z16035   0.926   2.405   8.547 -0.1045 -0.4220 -1.7481
  146SAPE     N16036   0.681   3.255  10.736 -0.1986  0.4642 -0.3222
  146SAPE   HN116037   0.782   3.258  10.760 -0.6227  0.3044  1.5585
  146SAPE   HN216038   0.641   3.350  10.753  0.6607  0.9212 -0.7894
  146SAPE   HN316039   0.638   3.186  10.801 -2.0239  1.4216 -0.4718
  146SAPE   C1216040   0.667   3.223  10.588  0.1991  0.4152 -0.5402
  146SAPE  H12A16041   0.662   3.113  10.573 -0.9469  0.0995  1.8100
  146SAPE  H12B16042   0.744   3.270  10.524  0.5224 -0.2159 -0.6093
  146SAPE   C1116043   0.541   3.293  10.524  0.2730 -0.2142 -0.1761
  146SAPE  H11A16044   0.450   3.278  10.586 -0.0677 -0.4213 -0.7216
  146SAPE  H11B16045   0.533   3.236  10.429 -1.3190 -1.4384  0.6666
  146SAPE     P16046   0.530   3.539  10.592  0.1130  0.3378 -0.5009
  146SAPE   O1316047   0.423   3.618  10.519  0.0781 -0.3964 -0.3978
  146SAPE   O1416048   0.499   3.485  10.726 -0.8219  0.1168 -0.2703
  146SAPE   O1216049   0.579   3.423  10.499 -0.5251 -0.3867 -0.7053
  146SAPE   O1116050   0.664   3.618  10.610 -0.1330  0.5587 -0.7161
  146SAPE    C116051   0.781   3.607  10.537 -0.2271  0.7408  0.8473
  146SAPE    HA16052   0.854   3.672  10.589  0.6004  2.2921 -2.1426
  146SAPE    HB16053   0.817   3.502  10.524 -2.9281 -0.0299 -0.8655
  146SAPE    C216054   0.779   3.686  10.400 -0.5788 -0.3525 -0.0546
  146SAPE    HS16055   0.736   3.788  10.415  0.9496  0.8347 -3.2409
  146SAPE   O2116056   0.710   3.606  10.309 -0.4987 -0.1731 -0.0557
  146SAPE   C2116057   0.603   3.649  10.247 -0.0936 -0.6392  0.1320
  146SAPE   O2216058   0.567   3.765  10.247  0.3179 -0.5056 -0.7822
  146SAPE   C2216059   0.526   3.545  10.176  0.6263 -0.6342 -0.8493
  146SAPE   H2R16060   0.452   3.503  10.247  0.5529  1.3884  0.3295
  146SAPE   H2S16061   0.458   3.591  10.101  0.4715  1.1931  0.3847
  146SAPE    C316062   0.922   3.706  10.345  0.1654  0.3547 -0.0262
  146SAPE    HX16063   0.971   3.607  10.332 -0.2576  0.4240 -2.3270
  146SAPE    HY16064   0.978   3.759  10.425  1.1387  1.8054 -1.6250
  146SAPE   O3116065   0.916   3.782  10.220 -0.5142 -0.0620  0.1535
  146SAPE   C3116066   1.033   3.817  10.176 -0.2511  0.3053  0.6630
  146SAPE   O3216067   1.141   3.782  10.213  0.5157 -0.3132 -0.3166
  146SAPE   C3216068   1.005   3.903  10.056 -0.8787 -0.5419 -0.1248
  146SAPE   H2X16069   0.999   4.008  10.090  1.4208 -0.4477  0.0823
  146SAPE   H2Y16070   0.908   3.885  10.005  0.5465  0.6305 -3.4207
  146SAPE   C2316071   0.614   3.445  10.109  0.3692  0.1672  0.0813
  146SAPE   H3R16072   0.682   3.404  10.187 -0.8959  1.8848  2.1602
  146SAPE   H3S16073   0.672   3.495  10.027 -1.2620  1.6916 -0.1712
  146SAPE   C2416074   0.543   3.318  10.046 -0.6524 -0.2937  0.4965
  146SAPE   H4R16075   0.443   3.347  10.008  0.0131  1.8603  0.3258
  146SAPE   H4S16076   0.529   3.240  10.125  0.5115 -1.1811 -0.1479
  146SAPE   C2516077   0.623   3.262   9.933 -0.1736  0.3164  0.1208
  146SAPE   H5R16078   0.723   3.222   9.957 -1.3736 -1.6411  2.0683
  146SAPE   C2616079   0.590   3.245   9.806 -0.7970  0.5859  0.0952
  146SAPE   H6R16080   0.668   3.191   9.751  0.4826  0.7634  1.7146
  146SAPE   C2716081   0.468   3.280   9.730  0.7641  0.1629  0.1702
  146SAPE   H7R16082   0.384   3.316   9.794  0.5137  0.8233 -0.5329
  146SAPE   H7S16083   0.421   3.190   9.686  1.9413  0.0816 -0.9510
  146SAPE   C2816084   0.501   3.374   9.618 -0.4820  0.3535  0.6191
  146SAPE   H8R16085   0.471   3.479   9.634  0.4904  0.6393  0.5574
  146SAPE   C2916086   0.549   3.341   9.499 -0.4389 -0.1890 -0.0004
  146SAPE   H9R16087   0.576   3.416   9.423 -2.0107  1.1926  0.7897
  146SAPE  C21016088   0.575   3.200   9.458 -0.6271  0.1885 -0.2864
  146SAPE  H10R16089   0.515   3.184   9.365  0.1504 -0.9174 -0.6106
  146SAPE  H10S16090   0.551   3.122   9.533  0.0529 -0.9543 -1.2355
  146SAPE  C21116091   0.720   3.175   9.424 -0.5334  0.0306 -0.2171
  146SAPE  H11R16092   0.773   3.163   9.520  0.1309  0.2133 -0.5652
  146SAPE  C21216093   0.782   3.171   9.302  0.2886 -0.3580  0.6553
  146SAPE  H12R16094   0.892   3.160   9.299  0.3133 -0.1414 -6.5252
  146SAPE  C21316095   0.712   3.193   9.168 -0.3777  0.3616  0.2522
  146SAPE  H13R16096   0.630   3.119   9.169  1.0042 -1.2001  2.2433
  146SAPE  H13S16097   0.784   3.147   9.096 -2.1708 -0.2305 -1.1849
  146SAPE  C21416098   0.667   3.324   9.105 -0.7188 -0.6865  0.3927
  146SAPE  H14R16099   0.599   3.382   9.169  1.1998 -0.0168  1.8705
  146SAPE  C21516100   0.706   3.372   8.980  0.9832  0.2105  0.0073
  146SAPE  H15R16101   0.654   3.460   8.939 -0.3035 -0.6896 -0.3226
  146SAPE  C21616102   0.810   3.308   8.884  0.8743 -0.5659  0.5667
  146SAPE  H16R16103   0.754   3.262   8.799  0.6221 -0.0339  0.4432
  146SAPE  H16S16104   0.859   3.224   8.938  0.5320 -0.4288  1.0920
  146SAPE  C21716105   0.919   3.407   8.842 -0.3826  0.2520  0.1934
  146SAPE  H17R16106   0.876   3.500   8.799  2.3040  2.1125  1.3518
  146SAPE  H17S16107   0.980   3.358   8.764 -2.8320  0.7458 -2.1027
  146SAPE  C21816108   1.014   3.446   8.961  0.4714 -0.2374 -0.1211
  146SAPE  H18R16109   1.068   3.356   8.997  0.5019  0.4190  1.4980
  146SAPE  H18S16110   0.956   3.478   9.050 -0.0122  0.5675 -0.7199
  146SAPE  C21916111   1.113   3.557   8.915 -0.2687 -0.2790 -0.2233
  146SAPE  H19R16112   1.167   3.599   9.003  0.4566 -2.1451  0.2449
  146SAPE  H19S16113   1.048   3.636   8.871  1.7332  0.9830 -1.0254
  146SAPE  C22016114   1.226   3.518   8.811  0.6694  0.4741 -0.6176
  146SAPE  H20R16115   1.306   3.459   8.860  1.5798  2.3742  0.2492
  146SAPE  H20S16116   1.281   3.606   8.770  0.2552  0.7137 -0.6617
  146SAPE  H20T16117   1.175   3.466   8.728 -2.1770 -0.9024  1.9081
  146SAPE   C3316118   1.109   3.900   9.942 -0.6039  0.5939 -0.6538
  146SAPE   H3X16119   1.129   3.794   9.915 -2.9658 -0.2592  0.8104
  146SAPE   H3Y16120   1.207   3.927   9.988 -0.9380 -1.7328  1.5159
  146SAPE   C3416121   1.062   3.976   9.825 -0.1904 -0.5474 -0.1578
  146SAPE   H4X16122   1.048   4.084   9.849  3.3027 -0.3675  1.3758
  146SAPE   H4Y16123   0.958   3.941   9.803 -0.5958  1.0882 -0.9388
  146SAPE   C3516124   1.150   3.963   9.701  0.0742  0.3928  0.1209
  146SAPE   H5X16125   1.191   3.860   9.690 -0.9915  0.0274 -0.4765
  146SAPE   H5Y16126   1.239   4.030   9.702  2.9516 -3.2251 -1.1596
  146SAPE   C3616127   1.081   3.990   9.571  0.1019 -0.0150 -0.0406
  146SAPE   H6X16128   1.054   4.098   9.577 -0.6985 -0.2243  0.0765
  146SAPE   H6Y16129   0.985   3.936   9.559  0.8167 -1.3015 -0.0828
  146SAPE   C3716130   1.165   3.956   9.454 -0.5910 -0.5308 -0.4759
  146SAPE   H7X16131   1.179   3.847   9.441  0.4603 -0.3372 -1.0174
  146SAPE   H7Y16132   1.264   4.008   9.451 -0.9384  0.1800  0.2554
  146SAPE   C3816133   1.104   3.994   9.317  0.0061  0.5091 -0.2963
  146SAPE   H8X16134   1.092   4.104   9.318 -1.6228  0.3487  0.6141
  146SAPE   H8Y16135   1.003   3.954   9.292  0.3128 -0.3963 -0.1230
  146SAPE   C3916136   1.198   3.961   9.202  0.2147 -0.3418 -0.0838
  146SAPE   H9X16137   1.201   3.850   9.198 -2.1991 -0.4317  0.1361
  146SAPE   H9Y16138   1.294   4.002   9.239  0.2061  0.4447 -0.9120
  146SAPE  C31016139   1.159   4.028   9.067 -0.3160  0.4633 -0.2247
  146SAPE  H10X16140   1.177   4.137   9.080 -0.1770  0.5904 -1.4050
  146SAPE  H10Y16141   1.056   4.013   9.028  0.5885  0.7588 -2.8213
  146SAPE  C31116142   1.249   3.988   8.949 -0.2437  0.0582 -0.5460
  146SAPE  H11X16143   1.233   3.883   8.917 -1.8416 -0.0451  0.5696
  146SAPE  H11Y16144   1.354   4.011   8.980  0.2329 -0.3904 -1.8112
  146SAPE  C31216145   1.224   4.071   8.825  0.4060  0.4377  0.3143
  146SAPE  H12X16146   1.229   4.175   8.864  0.3226  0.4882  0.1874
  146SAPE  H12Y16147   1.117   4.057   8.799  1.0466 -1.7514 -1.2915
  146SAPE  C31316148   1.317   4.066   8.709  0.0102  0.0878  0.3373
  146SAPE  H13X16149   1.414   4.051   8.760 -0.7577  0.3462  1.9120
  146SAPE  H13Y16150   1.317   4.155   8.643  1.3220  0.5857  0.9867
  146SAPE  C31416151   1.293   3.935   8.629 -0.2496 -0.2807 -0.6762
  146SAPE  H14X16152   1.306   3.847   8.696 -0.8322 -0.3656 -0.6757
  146SAPE  H14Y16153   1.369   3.924   8.548  1.5267 -1.0805  1.0486
  146SAPE  C31516154   1.153   3.927   8.557  0.5478 -0.1799  0.2428
  146SAPE  H15X16155   1.129   3.989   8.468 -0.2599 -0.7400  0.0679
  146SAPE  H15Y16156   1.072   3.957   8.627 -1.4804 -0.4886 -1.9193
  146SAPE  C31616157   1.125   3.783   8.501  0.5678 -0.1753  0.3201
  146SAPE  H16X16158   1.114   3.721   8.593  0.6898 -0.2083  0.3138
  146SAPE  H16Y16159   1.217   3.747   8.448  0.5752  0.0063  0.2105
  146SAPE  C31716160   1.004   3.755   8.402  0.4995 -0.4006 -0.8127
  146SAPE  H17X16161   0.907   3.785   8.447 -0.2533 -1.1770 -1.8692
  146SAPE  H17Y16162   1.011   3.644   8.399  4.3486 -0.4242  3.5489
  146SAPE  C31816163   1.015   3.818   8.263 -0.2055  1.2882  0.9387
  146SAPE  H18X16164   0.930   3.785   8.200  0.3564  2.6902 -0.5698
  146SAPE  H18Y16165   1.106   3.780   8.212 -0.4184 -0.5250  1.8392
  146SAPE  H18Z16166   1.034   3.927   8.264  1.7960  0.9789 -0.4358
  147SAPE     N16167   1.781   0.300  11.097  0.4683 -0.2853  0.0865
  147SAPE   HN116168   1.791   0.347  11.190  0.2458  1.8361 -0.9232
  147SAPE   HN216169   1.783   0.368  11.018  0.2820 -1.3597 -0.8431
  147SAPE   HN316170   1.685   0.262  11.098 -0.2720  1.5135  0.1962
  147SAPE   C1216171   1.865   0.180  11.088  0.1943  0.2974  0.0873
  147SAPE  H12A16172   1.828   0.134  11.182  1.5100 -1.5778 -0.2845
  147SAPE  H12B16173   1.972   0.208  11.100  0.1858  0.5681 -0.4234
  147SAPE   C1116174   1.856   0.096  10.962 -0.4960 -0.1891  0.5849
  147SAPE  H11A16175   1.750   0.065  10.959 -0.3473 -0.6696  0.2835
  147SAPE  H11B16176   1.924   0.009  10.972 -0.3630 -0.2326 -0.5988
  147SAPE     P16177   1.812   0.134  10.701 -0.3164 -0.0190 -0.2229
  147SAPE   O1316178   1.701   0.234  10.685 -0.4686  0.3555 -0.0855
  147SAPE   O1416179   1.917   0.128  10.600  0.2934 -0.5727  0.0611
  147SAPE   O1216180   1.892   0.160  10.840 -0.1675 -0.1539  0.3873
  147SAPE   O1116181   1.743  -0.004  10.730  0.1004  0.1697 -0.5318
  147SAPE    C116182   1.807  -0.129  10.716 -0.2309 -0.8811 -0.6011
  147SAPE    HA16183   1.917  -0.121  10.707  0.0152  0.4821  2.8810
  147SAPE    HB16184   1.784  -0.189  10.807 -0.2300  1.3169  0.8626
  147SAPE    C216185   1.739  -0.218  10.603 -0.2177 -0.3606 -0.0118
  147SAPE    HS16186   1.781  -0.319  10.619 -1.1708 -0.9375 -1.0735
  147SAPE   O2116187   1.779  -0.171  10.473  0.2420 -0.0137  0.2954
  147SAPE   C2116188   1.906  -0.195  10.440  0.3257 -1.3949 -0.6537
  147SAPE   O2216189   1.977  -0.271  10.503 -0.9313 -0.0063 -0.6801
  147SAPE   C2216190   1.940  -0.122  10.311  0.5489 -0.4059  0.5508
  147SAPE   H2R16191   1.841  -0.096  10.267  1.9724 -0.0270 -2.5034
  147SAPE   H2S16192   1.997  -0.032  10.339 -1.4277  1.0067  0.1423
  147SAPE    C316193   1.584  -0.231  10.618  0.7847  0.3371  0.0305
  147SAPE    HX16194   1.534  -0.148  10.564  0.1838 -0.1250 -0.1288
  147SAPE    HY16195   1.552  -0.224  10.724  1.3588 -0.8133  0.2872
  147SAPE   O3116196   1.527  -0.349  10.558 -0.2649 -0.1063 -0.6223
  147SAPE   C3116197   1.561  -0.460  10.610 -0.2228 -0.4683  0.5801
  147SAPE   O3216198   1.624  -0.467  10.714  0.0902 -0.1751 -0.3625
  147SAPE   C3216199   1.526  -0.580  10.529 -0.0347  0.1872  0.1592
  147SAPE   H2X16200   1.472  -0.553  10.435 -0.1148 -3.1794 -0.8302
  147SAPE   H2Y16201   1.449  -0.640  10.582 -0.3075 -1.7573 -2.3447
  147SAPE   C2316202   2.019  -0.211  10.209  0.3643 -0.1982  0.1687
  147SAPE   H3R16203   1.959  -0.302  10.190  0.2025 -0.2211  0.7993
  147SAPE   H3S16204   2.113  -0.244  10.259 -0.6198 -1.1045  1.4398
  147SAPE   C2416205   2.056  -0.135  10.077  0.2750 -0.2542 -0.3530
  147SAPE   H4R16206   2.112  -0.044  10.106 -2.2184  1.6496 -1.2793
  147SAPE   H4S16207   1.964  -0.105  10.022 -0.2266  1.5302  1.3950
  147SAPE   C2516208   2.166  -0.199   9.991 -0.1477  0.0352  0.3139
  147SAPE   H5R16209   2.253  -0.241  10.044 -0.6542 -0.8799  0.4484
  147SAPE   C2616210   2.165  -0.223   9.858 -0.1131  0.2318 -1.3744
  147SAPE   H6R16211   2.254  -0.271   9.814 -0.2150 -1.9248  0.6788
  147SAPE   C2716212   2.047  -0.199   9.766 -0.0052  0.2663 -0.7098
  147SAPE   H7R16213   2.044  -0.104   9.709 -0.4807  0.5381 -0.2330
  147SAPE   H7S16214   1.952  -0.199   9.823  0.4765 -0.1459  0.1062
  147SAPE   C2816215   2.046  -0.322   9.674 -0.0209  0.1838 -0.6430
  147SAPE   H8R16216   2.028  -0.417   9.726  2.5440 -0.0597 -0.1025
  147SAPE   C2916217   2.061  -0.325   9.536  0.4171  0.3032  0.3747
  147SAPE   H9R16218   2.069  -0.425   9.491  0.3477  0.7738 -0.7105
  147SAPE  C21016219   2.091  -0.199   9.453 -0.2333 -0.4978 -0.3168
  147SAPE  H10R16220   2.195  -0.205   9.415  0.7916 -0.4912  2.3902
  147SAPE  H10S16221   2.082  -0.103   9.508  2.1225  0.0267 -0.7860
  147SAPE  C21116222   1.995  -0.223   9.342 -0.4793 -0.2967 -0.4826
  147SAPE  H11R16223   1.892  -0.215   9.378 -0.3124 -1.5363  0.3018
  147SAPE  C21216224   2.007  -0.250   9.210  0.0781 -0.5318 -0.2395
  147SAPE  H12R16225   1.918  -0.260   9.146 -0.9752  0.2479  1.1044
  147SAPE  C21316226   2.134  -0.260   9.131  0.1655 -0.1917 -0.3113
  147SAPE  H13R16227   2.116  -0.347   9.063 -0.9365 -1.2330  1.2567
  147SAPE  H13S16228   2.207  -0.291   9.209  0.3927  0.7156 -0.1683
  147SAPE  C21416229   2.189  -0.134   9.072 -0.1606  0.2155  1.0392
  147SAPE  H14R16230   2.144  -0.037   9.098 -1.9237 -0.2340 -0.2063
  147SAPE  C21516231   2.280  -0.136   8.972 -0.2700  0.8230 -0.8013
  147SAPE  H15R16232   2.308  -0.043   8.922  0.2821  0.6159 -0.8761
  147SAPE  C21616233   2.350  -0.256   8.907 -0.5165 -0.0675 -0.0695
  147SAPE  H16R16234   2.338  -0.342   8.978 -1.4493  0.0391 -0.0922
  147SAPE  H16S16235   2.459  -0.243   8.889 -1.0901  0.9784 -3.0306
  147SAPE  C21716236   2.282  -0.300   8.775  0.3054  0.1536  1.0583
  147SAPE  H17R16237   2.173  -0.311   8.786 -0.3170  2.7375 -1.8020
  147SAPE  H17S16238   2.316  -0.402   8.749 -0.5875  0.0763  0.1593
  147SAPE  C21816239   2.305  -0.199   8.655 -0.1529 -0.0069  0.5223
  147SAPE  H18R16240   2.415  -0.190   8.641  0.1627 -3.0215  0.6695
  147SAPE  H18S16241   2.272  -0.094   8.669 -1.6637 -0.1068 -2.0364
  147SAPE  C21916242   2.245  -0.248   8.526 -0.5114 -0.2248  0.7509
  147SAPE  H19R16243   2.283  -0.176   8.450 -3.3517 -0.8029 -1.3316
  147SAPE  H19S16244   2.135  -0.254   8.541 -0.3880 -0.9978  1.3446
  147SAPE  C22016245   2.292  -0.373   8.466 -0.1925  0.0189 -0.4004
  147SAPE  H20R16246   2.274  -0.464   8.526 -5.2439  0.6698 -0.7236
  147SAPE  H20S16247   2.401  -0.369   8.446 -0.0393 -1.6790  0.0389
  147SAPE  H20T16248   2.236  -0.398   8.373  0.9166 -1.7681 -0.6048
  147SAPE   C3316249   1.648  -0.662  10.486  0.4850 -0.7046  0.9352
  147SAPE   H3X16250   1.605  -0.741  10.419 -0.9609 -2.1547  3.4814
  147SAPE   H3Y16251   1.692  -0.704  10.579  1.4940  1.2714  1.3710
  147SAPE   C3416252   1.750  -0.583  10.405 -0.3552 -0.6259 -0.3880
  147SAPE   H4X16253   1.826  -0.652  10.361 -1.9752 -1.5218 -1.8753
  147SAPE   H4Y16254   1.807  -0.515  10.472 -1.8886  0.8166 -0.5281
  147SAPE   C3516255   1.704  -0.499  10.281 -0.5561 -0.3166 -0.1957
  147SAPE   H5X16256   1.788  -0.436  10.246  0.2226 -0.0383  2.1358
  147SAPE   H5Y16257   1.625  -0.430  10.317 -0.2147 -1.1731  2.2627
  147SAPE   C3616258   1.660  -0.584  10.164  0.2073 -0.7514 -0.4985
  147SAPE   H6X16259   1.549  -0.577  10.164  0.2313 -0.2234 -1.2944
  147SAPE   H6Y16260   1.687  -0.691  10.162 -0.1622 -0.8664  0.3936
  147SAPE   C3716261   1.719  -0.518  10.036  0.0559  0.3872  0.3481
  147SAPE   H7X16262   1.829  -0.525  10.024 -0.0931  1.8253 -2.2412
  147SAPE   H7Y16263   1.705  -0.408  10.032 -2.0331  0.1784  1.2136
  147SAPE   C3816264   1.653  -0.579   9.904  0.5779 -0.1761 -0.1571
  147SAPE   H8X16265   1.544  -0.558   9.896  0.3455 -1.1097  0.4980
  147SAPE   H8Y16266   1.656  -0.689   9.917  2.0650 -0.1655 -0.2424
  147SAPE   C3916267   1.733  -0.528   9.779  0.0919 -0.3166  0.1368
  147SAPE   H9X16268   1.834  -0.571   9.795  0.3266  0.3125  0.3866
  147SAPE   H9Y16269   1.717  -0.418   9.790  1.5757 -0.0375 -0.3695
  147SAPE  C31016270   1.681  -0.585   9.648  0.3631  0.2549 -0.2015
  147SAPE  H10X16271   1.571  -0.572   9.638  0.1826 -1.8760 -1.3291
  147SAPE  H10Y16272   1.701  -0.693   9.633  1.0179  0.4952 -1.0967
  147SAPE  C31116273   1.743  -0.521   9.528  0.2020 -0.0111  0.3445
  147SAPE  H11X16274   1.854  -0.518   9.538  0.3328  1.4337 -1.3339
  147SAPE  H11Y16275   1.701  -0.418   9.524  2.4007  0.9672  1.8341
  147SAPE  C31216276   1.687  -0.592   9.406 -0.1088 -0.0769 -0.0447
  147SAPE  H12X16277   1.578  -0.573   9.398  0.3196  2.1151 -0.9894
  147SAPE  H12Y16278   1.695  -0.702   9.422  0.0276 -0.9131 -4.8257
  147SAPE  C31316279   1.771  -0.552   9.291  0.6424 -0.3888 -0.8878
  147SAPE  H13X16280   1.871  -0.598   9.307  0.9363  0.7962  0.8234
  147SAPE  H13Y16281   1.786  -0.444   9.271  0.4822  0.1125  1.5683
  147SAPE  C31416282   1.722  -0.611   9.152 -0.1322  0.4044 -0.4142
  147SAPE  H14X16283   1.777  -0.545   9.081  0.9765  2.8623  2.6415
  147SAPE  H14Y16284   1.613  -0.587   9.148  0.0891  1.5919  0.5538
  147SAPE  C31516285   1.754  -0.757   9.126  0.3953  0.3037  0.2879
  147SAPE  H15X16286   1.711  -0.818   9.208  2.1535  1.4152  2.0851
  147SAPE  H15Y16287   1.863  -0.777   9.139  0.4352  0.7265  0.6310
  147SAPE  C31616288   1.704  -0.817   8.997 -0.2947  0.9399 -0.4240
  147SAPE  H16X16289   1.604  -0.860   9.018  1.0122 -1.1206  1.8298
  147SAPE  H16Y16290   1.776  -0.895   8.964 -3.3434 -2.3083  0.3164
  147SAPE  C31716291   1.709  -0.723   8.875 -0.3426  0.4048 -0.2143
  147SAPE  H17X16292   1.816  -0.695   8.863 -0.8220  0.6139 -5.0952
  147SAPE  H17Y16293   1.645  -0.635   8.897  3.0656  2.1935  3.0341
  147SAPE  C31816294   1.664  -0.792   8.743 -0.0656  0.4827 -0.2095
  147SAPE  H18X16295   1.649  -0.718   8.662 -2.5744 -0.9086 -1.0740
  147SAPE  H18Y16296   1.567  -0.846   8.755  0.2375 -0.2606 -1.1322
  147SAPE  H18Z16297   1.743  -0.862   8.710  0.5650  1.8751 -1.7309
  148SAPE     N16298   3.128   2.395  10.667  0.4517 -0.1743  0.5818
  148SAPE   HN116299   3.117   2.380  10.769 -1.0245 -0.7827  0.3422
  148SAPE   HN216300   3.201   2.328  10.636 -1.2137 -1.2349 -1.1923
  148SAPE   HN316301   3.170   2.488  10.650  0.0126  0.3998  2.5451
  148SAPE   C1216302   3.001   2.352  10.592  0.5322 -0.0068 -0.5220
  148SAPE  H12A16303   2.988   2.413  10.500 -2.8004 -0.5839 -0.4835
  148SAPE  H12B16304   2.914   2.365  10.659  2.1882 -0.3223  1.7335
  148SAPE   C1116305   3.010   2.202  10.542 -0.0602 -0.0691 -0.1334
  148SAPE  H11A16306   3.038   2.203  10.435 -0.5099 -0.0042 -0.2545
  148SAPE  H11B16307   2.904   2.166  10.548  0.0561 -0.2254  1.3064
  148SAPE     P16308   3.236   2.091  10.622  0.5365  0.0696 -0.2478
  148SAPE   O1316309   3.310   2.213  10.587 -0.5843 -0.0472 -0.1605
  148SAPE   O1416310   3.259   2.015  10.744  0.3273  0.1395 -0.0888
  148SAPE   O1216311   3.083   2.120  10.633 -0.3945  0.2260  0.1854
  148SAPE   O1116312   3.238   1.985  10.507 -0.3984  0.1936 -0.0080
  148SAPE    C116313   3.204   1.848  10.520 -0.0676 -0.9362  0.3820
  148SAPE    HA16314   3.119   1.834  10.591 -0.3295  1.0461  0.4943
  148SAPE    HB16315   3.168   1.823  10.418 -0.2401  2.0788 -0.3497
  148SAPE    C216316   3.326   1.755  10.555  0.5192 -0.1646  0.1590
  148SAPE    HS16317   3.391   1.791  10.638  1.3245  0.1647 -0.6102
  148SAPE   O2116318   3.406   1.730  10.445 -0.3471  0.4722 -1.2545
  148SAPE   C2116319   3.509   1.811  10.418  0.0199  0.6352  0.0321
  148SAPE   O2216320   3.557   1.892  10.494  0.6008  0.3244 -0.6790
  148SAPE   C2216321   3.555   1.782  10.277  0.3174 -0.3304  0.1519
  148SAPE   H2R16322   3.666   1.778  10.277  0.3300 -0.0696  1.1783
  148SAPE   H2S16323   3.512   1.684  10.244 -2.5693  0.6439  0.8571
  148SAPE    C316324   3.277   1.620  10.613 -0.1029 -0.1227  0.0357
  148SAPE    HX16325   3.222   1.624  10.709  0.2555  0.7430  0.2063
  148SAPE    HY16326   3.372   1.566  10.631 -0.3141 -0.2803  0.6905
  148SAPE   O3116327   3.188   1.555  10.519  0.0491  0.1492  0.4258
  148SAPE   C3116328   3.248   1.479  10.428 -0.7497 -0.1711 -0.4873
  148SAPE   O3216329   3.360   1.442  10.421  0.0050  0.9888 -0.4993
  148SAPE   C3216330   3.140   1.464  10.320  0.1355  0.1030 -0.0247
  148SAPE   H2X16331   3.045   1.506  10.359 -0.5097 -1.0034 -0.3800
  148SAPE   H2Y16332   3.131   1.354  10.306  0.7169  0.1276 -0.6160
  148SAPE   C2316333   3.500   1.902  10.190  0.0329 -0.3440  0.4263
  148SAPE   H3R16334   3.564   1.893  10.100 -0.5299  1.6135 -0.1842
  148SAPE   H3S16335   3.538   1.997  10.233  3.7038 -0.7302 -1.7009
  148SAPE   C2416336   3.349   1.898  10.160  0.5253  0.1765 -0.6443
  148SAPE   H4R16337   3.300   1.896  10.259  0.8408 -0.6950 -0.4984
  148SAPE   H4S16338   3.321   1.802  10.110 -1.3189  0.1715  0.3550
  148SAPE   C2516339   3.301   2.012  10.073 -0.0550  0.1307 -0.4010
  148SAPE   H5R16340   3.288   2.091  10.149 -3.3606  0.4490 -1.2242
  148SAPE   C2616341   3.240   2.006   9.954 -0.0649 -0.0444  0.4136
  148SAPE   H6R16342   3.186   2.096   9.921 -2.6727 -1.3320  1.0516
  148SAPE   C2716343   3.213   1.886   9.865 -0.2076 -0.3740 -0.3824
  148SAPE   H7R16344   3.107   1.887   9.831 -0.3078  0.2798 -0.0523
  148SAPE   H7S16345   3.234   1.786   9.908  0.3005 -1.0672 -2.1694
  148SAPE   C2816346   3.304   1.891   9.742  0.7366 -0.3432  0.3011
  148SAPE   H8R16347   3.412   1.878   9.760  0.9416  2.4910  1.3917
  148SAPE   C2916348   3.261   1.919   9.610  0.5521  0.4959 -0.3076
  148SAPE   H9R16349   3.349   1.931   9.545 -0.0094  1.8694 -0.8375
  148SAPE  C21016350   3.123   1.950   9.553  0.0015  0.3564 -0.4495
  148SAPE  H10R16351   3.133   1.986   9.448  1.6226 -1.0314 -0.7925
  148SAPE  H10S16352   3.079   2.029   9.618 -1.3610 -1.3320  0.7196
  148SAPE  C21116353   3.036   1.825   9.556 -0.1614  0.6492  0.2304
  148SAPE  H11R16354   3.020   1.769   9.649 -3.1664  2.1954  0.7131
  148SAPE  C21216355   2.971   1.764   9.451  0.0041  0.4857  0.4371
  148SAPE  H12R16356   2.911   1.675   9.477  1.3117 -0.5650 -0.1116
  148SAPE  C21316357   2.982   1.795   9.310 -0.2209 -0.6409  0.5064
  148SAPE  H13R16358   2.939   1.897   9.296  2.6351  0.6411  0.6621
  148SAPE  H13S16359   2.930   1.716   9.251 -1.6348 -1.0249  2.2191
  148SAPE  C21416360   3.120   1.786   9.253 -0.7370 -0.0347 -0.7465
  148SAPE  H14R16361   3.170   1.692   9.282  0.2681  1.0397  1.0875
  148SAPE  C21516362   3.186   1.867   9.169 -0.0144 -0.6543 -0.4140
  148SAPE  H15R16363   3.285   1.841   9.127  0.5459 -0.0429  0.5166
  148SAPE  C21616364   3.117   1.984   9.105 -0.8169 -1.0720 -0.2686
  148SAPE  H16R16365   3.138   2.078   9.161 -1.3930  0.3162 -2.3048
  148SAPE  H16S16366   3.006   1.975   9.099 -0.8175 -0.3909 -1.5507
  148SAPE  C21716367   3.157   2.022   8.961  0.5358  0.2205 -0.0045
  148SAPE  H17R16368   3.268   2.024   8.949  0.4674  0.3802 -0.6409
  148SAPE  H17S16369   3.132   2.129   8.949 -1.5716 -0.1348  1.0620
  148SAPE  C21816370   3.086   1.940   8.855 -0.1582  0.0815 -0.0057
  148SAPE  H18R16371   3.074   2.009   8.769  1.5501  1.0231  0.4959
  148SAPE  H18S16372   2.983   1.911   8.887 -0.7475  2.3799  0.2902
  148SAPE  C21916373   3.158   1.811   8.818  0.3566 -0.9312 -0.7522
  148SAPE  H19R16374   3.077   1.763   8.759 -0.9848  2.1779 -1.5381
  148SAPE  H19S16375   3.184   1.738   8.898 -0.5963  0.5655  0.9362
  148SAPE  C22016376   3.278   1.818   8.735 -0.1793 -0.2880  0.6323
  148SAPE  H20R16377   3.265   1.885   8.647 -0.0115 -0.3115  0.5900
  148SAPE  H20S16378   3.302   1.716   8.700  0.7143 -0.3976  1.5614
  148SAPE  H20T16379   3.370   1.848   8.789 -0.1719  0.2153  0.3545
  148SAPE   C3316380   3.182   1.500  10.181  0.0182 -0.3238  0.3180
  148SAPE   H3X16381   3.292   1.508  10.171  0.0248 -1.2114 -0.4145
  148SAPE   H3Y16382   3.126   1.592  10.154 -1.6054 -1.9603 -2.1692
  148SAPE   C3416383   3.135   1.402  10.079 -0.6301 -0.4440 -0.0209
  148SAPE   H4X16384   3.030   1.370  10.093 -1.4355  1.5755 -1.1495
  148SAPE   H4Y16385   3.189   1.307  10.095  1.5625  1.3377  3.9391
  148SAPE   C3516386   3.136   1.467   9.940  0.5516 -0.3391 -0.2242
  148SAPE   H5X16387   3.226   1.532   9.931  1.3043 -1.4435 -0.8389
  148SAPE   H5Y16388   3.047   1.532   9.952 -0.9041 -2.0830 -1.2458
  148SAPE   C3616389   3.126   1.376   9.818  0.0869  0.2352 -0.2271
  148SAPE   H6X16390   3.029   1.324   9.833  1.1351 -0.9318  2.9371
  148SAPE   H6Y16391   3.219   1.315   9.823 -0.1943 -0.0522  1.5843
  148SAPE   C3716392   3.112   1.449   9.680 -0.1261 -0.0723 -0.0862
  148SAPE   H7X16393   3.177   1.538   9.673 -0.3795  0.2828  1.6984
  148SAPE   H7Y16394   3.009   1.489   9.668 -0.4566 -1.0116 -0.4436
  148SAPE   C3816395   3.141   1.357   9.557 -0.1102  0.9726 -0.4273
  148SAPE   H8X16396   3.080   1.266   9.578 -0.4786  1.3324  0.0642
  148SAPE   H8Y16397   3.249   1.334   9.562 -0.7986 -2.1876  2.3317
  148SAPE   C3916398   3.111   1.415   9.426  0.9265 -0.0277 -0.3843
  148SAPE   H9X16399   3.106   1.525   9.439 -3.0443 -0.4061  1.8853
  148SAPE   H9Y16400   3.008   1.385   9.397  0.4961  0.7622  0.3247
  148SAPE  C31016401   3.217   1.385   9.321  0.3349  0.0814 -0.2445
  148SAPE  H10X16402   3.249   1.279   9.330  2.1401  0.7972  1.8873
  148SAPE  H10Y16403   3.308   1.440   9.350 -2.1300  3.6065  1.1910
  148SAPE  C31116404   3.177   1.415   9.175 -0.2928  0.2891  0.2530
  148SAPE  H11X16405   3.125   1.514   9.174 -0.1855  0.4266  3.5229
  148SAPE  H11Y16406   3.095   1.342   9.155 -0.7593  0.7161  0.5842
  148SAPE  C31216407   3.289   1.396   9.069  0.3635 -0.2736 -0.6344
  148SAPE  H12X16408   3.335   1.296   9.084  0.4869 -0.2486 -0.8438
  148SAPE  H12Y16409   3.379   1.461   9.070  1.3676 -1.6224 -1.3415
  148SAPE  C31316410   3.229   1.418   8.933  0.0789 -0.2852  0.3785
  148SAPE  H13X16411   3.175   1.515   8.930 -1.0572 -0.9090  0.1172
  148SAPE  H13Y16412   3.137   1.355   8.935 -1.2685  1.6653  1.2158
  148SAPE  C31416413   3.302   1.375   8.809  0.8158  0.3326  0.6519
  148SAPE  H14X16414   3.355   1.282   8.839 -0.8415 -1.7359 -2.5387
  148SAPE  H14Y16415   3.372   1.451   8.769 -0.3605  1.2394  0.2973
  148SAPE  C31516416   3.211   1.338   8.693 -1.0314  0.6073 -0.0798
  148SAPE  H15X16417   3.145   1.258   8.733  0.7160 -0.6443  0.3680
  148SAPE  H15Y16418   3.272   1.300   8.608 -1.5966 -0.7662  0.1208
  148SAPE  C31616419   3.119   1.453   8.653  0.3017  0.4045 -0.0078
  148SAPE  H16X16420   3.155   1.548   8.700 -1.4366  1.1386 -0.1211
  148SAPE  H16Y16421   3.024   1.439   8.710  0.6931  0.1865  0.5982
  148SAPE  C31716422   3.098   1.487   8.509  0.2391  0.7028 -0.3165
  148SAPE  H17X16423   3.023   1.412   8.476  1.8971 -0.8435 -0.6677
  148SAPE  H17Y16424   3.190   1.474   8.448  0.2397 -2.2426  0.2033
  148SAPE  C31816425   3.044   1.623   8.495  0.2540 -0.5376 -0.0296
  148SAPE  H18X16426   3.122   1.692   8.534 -0.7603  1.0057 -0.6891
  148SAPE  H18Y16427   2.945   1.632   8.543 -1.4799  0.8651 -3.6805
  148SAPE  H18Z16428   3.030   1.650   8.388  0.1984  2.8043  0.7696
  149SAPE     N16429   5.670   3.204  11.229 -0.5388 -0.4695 -0.0232
  149SAPE   HN116430   5.577   3.185  11.271  0.1435  0.8542  2.1794
  149SAPE   HN216431   5.671   3.300  11.189 -1.1971 -0.9225 -1.1551
  149SAPE   HN316432   5.682   3.134  11.153  3.0257 -0.3907  0.3841
  149SAPE   C1216433   5.765   3.181  11.349  0.0853  0.2175 -0.0041
  149SAPE  H12A16434   5.753   3.074  11.377  2.3994 -0.9861 -3.2608
  149SAPE  H12B16435   5.736   3.244  11.436  0.4763  1.0929 -0.4966
  149SAPE   C1116436   5.915   3.200  11.313  0.4550  0.3598  0.4557
  149SAPE  H11A16437   5.948   3.138  11.227  1.3323  0.5391  0.6530
  149SAPE  H11B16438   5.958   3.164  11.410  2.1692 -0.7764 -0.6969
  149SAPE     P16439   5.960   3.382  11.133 -0.0379  0.4041 -0.6121
  149SAPE   O1316440   5.826   3.379  11.074  0.6042 -0.2266 -0.2329
  149SAPE   O1416441   6.016   3.515  11.138  0.2088 -0.3041 -0.1149
  149SAPE   O1216442   5.947   3.337  11.287 -0.2705  0.1020  0.5767
  149SAPE   O1116443   6.064   3.274  11.088  0.0069  0.9086 -0.1661
  149SAPE    C116444   6.039   3.198  10.968 -0.2091  0.3386 -0.2063
  149SAPE    HA16445   6.071   3.095  10.996 -2.3365  0.1228  1.5275
  149SAPE    HB16446   5.935   3.195  10.929 -0.4231 -1.1785  0.4544
  149SAPE    C216447   6.145   3.237  10.856 -0.2588  0.2578  0.6921
  149SAPE    HS16448   6.243   3.245  10.908 -1.0237  1.1723  2.0488
  149SAPE   O2116449   6.106   3.363  10.803 -0.1140 -0.7573  0.4756
  149SAPE   C2116450   6.211   3.441  10.791  0.7094  0.2177  0.3848
  149SAPE   O2216451   6.327   3.417  10.810  0.3164  0.3359 -0.0859
  149SAPE   C2216452   6.156   3.582  10.759  0.3125  0.2427  0.3957
  149SAPE   H2R16453   6.095   3.622  10.843 -0.0265  0.9839 -0.2054
  149SAPE   H2S16454   6.241   3.650  10.736  0.2060  0.2681  0.0795
  149SAPE    C316455   6.150   3.120  10.749 -0.4167  0.1459  0.3041
  149SAPE    HX16456   6.051   3.121  10.698 -0.1422 -1.1080 -0.2608
  149SAPE    HY16457   6.157   3.026  10.807 -2.0652  0.5079  1.1316
  149SAPE   O3116458   6.248   3.136  10.644  0.4713 -0.5918  0.0472
  149SAPE   C3116459   6.368   3.112  10.690  0.0365 -0.2740  0.4683
  149SAPE   O3216460   6.388   3.035  10.782 -0.1473 -0.0889 -0.2461
  149SAPE   C3216461   6.479   3.176  10.613 -0.0897 -0.3305  0.3546
  149SAPE   H2X16462   6.558   3.099  10.609  1.3844  1.0361  1.9585
  149SAPE   H2Y16463   6.512   3.264  10.673 -0.2114  0.0411 -0.1244
  149SAPE   C2316464   6.065   3.563  10.627  0.7919 -0.5434  0.1513
  149SAPE   H3R16465   5.979   3.632  10.639  3.1326  2.4558  0.5040
  149SAPE   H3S16466   6.036   3.459  10.600  2.8263 -1.1433  0.2215
  149SAPE   C2416467   6.143   3.608  10.496  0.7879  0.4506 -0.3372
  149SAPE   H4R16468   6.103   3.559  10.405 -0.0013  0.5891 -0.0676
  149SAPE   H4S16469   6.243   3.562  10.513 -0.3410 -2.3359 -1.0325
  149SAPE   C2516470   6.153   3.761  10.497  0.2999 -0.3044  0.1550
  149SAPE   H5R16471   6.202   3.817  10.578  1.0213  1.1657 -1.2725
  149SAPE   C2616472   6.095   3.847  10.414 -0.3910 -0.1052  0.1172
  149SAPE   H6R16473   6.108   3.955  10.427 -1.1012 -0.1993  1.7536
  149SAPE   C2716474   6.015   3.792  10.294 -0.4924 -0.4582 -0.1861
  149SAPE   H7R16475   5.940   3.871  10.270 -0.0071  0.6833  1.9312
  149SAPE   H7S16476   5.967   3.694  10.314 -0.9088 -0.2718 -0.2612
  149SAPE   C2816477   6.092   3.765  10.170 -0.3054  0.7088 -0.5293
  149SAPE   H8R16478   6.167   3.688  10.193 -2.0258 -0.3998  1.5341
  149SAPE   C2916479   6.083   3.819  10.044 -0.1221 -0.6962  0.6901
  149SAPE   H9R16480   6.131   3.776   9.955  1.5078  3.5714 -0.6126
  149SAPE  C21016481   5.991   3.928   9.999 -0.0532  0.1253  0.0515
  149SAPE  H10R16482   6.044   4.004   9.938  0.5564  0.7302  1.2954
  149SAPE  H10S16483   5.963   3.996  10.083  0.0088 -0.8252  0.8545
  149SAPE  C21116484   5.867   3.880   9.925 -0.5062  0.7337  0.4313
  149SAPE  H11R16485   5.774   3.885   9.985 -1.3113  1.7172 -0.8757
  149SAPE  C21216486   5.868   3.855   9.791  0.2912 -0.4649  0.3011
  149SAPE  H12R16487   5.776   3.807   9.756 -0.0625 -2.1009  3.2621
  149SAPE  C21316488   5.992   3.865   9.702 -0.0278  0.4276  0.0839
  149SAPE  H13R16489   6.089   3.874   9.754 -1.0942 -2.2614  2.7239
  149SAPE  H13S16490   5.976   3.957   9.643 -2.2976  0.3201  0.4685
  149SAPE  C21416491   5.987   3.739   9.618  0.4593 -0.6788 -0.1276
  149SAPE  H14R16492   5.978   3.647   9.677  0.2183 -1.0785 -0.7833
  149SAPE  C21516493   6.015   3.723   9.492 -0.3249  0.5080 -0.3901
  149SAPE  H15R16494   6.006   3.622   9.449  3.2446 -0.3097  0.5668
  149SAPE  C21616495   6.064   3.820   9.394  0.6316 -0.3331  0.0369
  149SAPE  H16R16496   6.147   3.781   9.331  0.9126  0.6335 -0.2173
  149SAPE  H16S16497   6.122   3.906   9.434  0.4605  0.3969 -1.2253
  149SAPE  C21716498   5.964   3.877   9.302  0.1964  0.3033  0.3825
  149SAPE  H17R16499   5.917   3.807   9.229 -0.0585 -0.4684  1.2619
  149SAPE  H17S16500   6.016   3.958   9.248  0.4237 -0.2940 -0.3062
  149SAPE  C21816501   5.853   3.956   9.367 -0.0072  0.6140  1.3778
  149SAPE  H18R16502   5.901   4.029   9.436 -0.4738  3.4539 -1.2150
  149SAPE  H18S16503   5.791   3.888   9.430 -0.8281  0.3522  0.3138
  149SAPE  C21916504   5.774   4.047   9.276 -0.1842 -0.1631  0.3651
  149SAPE  H19R16505   5.842   4.116   9.221 -1.5221 -0.3150 -1.5383
  149SAPE  H19S16506   5.712   4.110   9.343 -1.1903 -0.2906 -0.4350
  149SAPE  C22016507   5.687   3.974   9.170  0.4783  0.0650 -0.2572
  149SAPE  H20R16508   5.764   3.959   9.091 -0.7225  1.4748 -1.7286
  149SAPE  H20S16509   5.599   4.031   9.133 -0.5457 -1.6501 -0.5632
  149SAPE  H20T16510   5.654   3.870   9.192 -1.3122  0.7924  0.6213
  149SAPE   C3316511   6.463   3.220  10.462 -0.2714 -0.7129 -0.1823
  149SAPE   H3X16512   6.404   3.148  10.401  0.7154 -1.3556 -0.4033
  149SAPE   H3Y16513   6.564   3.231  10.417 -0.2161 -3.6454 -0.8666
  149SAPE   C3416514   6.394   3.350  10.444 -0.2512 -0.5589 -1.4517
  149SAPE   H4X16515   6.436   3.425  10.514 -0.9134 -0.6265 -0.9786
  149SAPE   H4Y16516   6.289   3.330  10.472  0.2808  3.4126  3.9602
  149SAPE   C3516517   6.392   3.401  10.301  0.0814 -0.3549 -0.6774
  149SAPE   H5X16518   6.486   3.378  10.247 -0.7927  0.6904 -2.6859
  149SAPE   H5Y16519   6.379   3.512  10.300 -2.0538 -0.5554  0.8841
  149SAPE   C3616520   6.280   3.348  10.210  0.4627  0.0820 -0.6148
  149SAPE   H6X16521   6.177   3.378  10.241 -0.3050 -0.7677 -2.2612
  149SAPE   H6Y16522   6.274   3.237  10.212  0.4296  0.0453 -1.9712
  149SAPE   C3716523   6.303   3.382  10.063 -0.1914  0.4361  0.2781
  149SAPE   H7X16524   6.383   3.312  10.030 -1.3773 -1.1276  0.6299
  149SAPE   H7Y16525   6.335   3.487  10.050 -1.7213  0.6176 -2.4285
  149SAPE   C3816526   6.174   3.355   9.991  0.2031 -0.4632 -0.0156
  149SAPE   H8X16527   6.094   3.404  10.049  1.8666  0.9518  1.1384
  149SAPE   H8Y16528   6.149   3.250   9.966 -0.6340 -0.2635 -0.0356
  149SAPE   C3916529   6.179   3.442   9.859 -0.5660 -0.0634  0.1450
  149SAPE   H9X16530   6.202   3.548   9.884  0.1167  0.2952 -1.9302
  149SAPE   H9Y16531   6.081   3.438   9.806 -1.7075 -1.2409  2.2421
  149SAPE  C31016532   6.282   3.379   9.768 -0.1015  0.0133 -0.1016
  149SAPE  H10X16533   6.288   3.268   9.779  0.8789  0.3190  3.2097
  149SAPE  H10Y16534   6.386   3.406   9.800  0.4133 -1.3068 -0.6237
  149SAPE  C31116535   6.258   3.425   9.625 -0.2644 -1.0034  0.5600
  149SAPE  H11X16536   6.242   3.534   9.629  1.8183 -0.5986 -0.8139
  149SAPE  H11Y16537   6.171   3.362   9.596  0.8755 -2.1122 -0.5928
  149SAPE  C31216538   6.377   3.406   9.526  0.3153 -0.0801  0.8915
  149SAPE  H12X16539   6.408   3.301   9.507  1.6507  0.2731  1.0568
  149SAPE  H12Y16540   6.461   3.442   9.590  0.4741  2.1696 -0.5585
  149SAPE  C31316541   6.367   3.487   9.403  0.4233 -0.8133  0.6301
  149SAPE  H13X16542   6.467   3.522   9.371 -0.2576  2.6245  2.0608
  149SAPE  H13Y16543   6.318   3.585   9.422  0.5055 -0.8898  1.2568
  149SAPE  C31416544   6.300   3.419   9.292  0.2871  0.2841  0.2815
  149SAPE  H14X16545   6.211   3.372   9.341 -0.5001 -0.4994 -1.8411
  149SAPE  H14Y16546   6.340   3.328   9.242 -2.2871 -0.7864  0.0970
  149SAPE  C31516547   6.275   3.524   9.176 -0.5536 -0.2069 -0.7777
  149SAPE  H15X16548   6.375   3.548   9.135  0.0990 -2.0529 -0.2993
  149SAPE  H15Y16549   6.232   3.615   9.224 -0.2025 -0.3549 -0.1767
  149SAPE  C31616550   6.167   3.487   9.066 -0.9305 -0.4544  0.0712
  149SAPE  H16X16551   6.080   3.452   9.125 -0.7941  2.3997  2.0201
  149SAPE  H16Y16552   6.206   3.396   9.015 -0.2711  0.8018 -1.7449
  149SAPE  C31716553   6.114   3.599   8.975  0.0225  0.0197 -0.7774
  149SAPE  H17X16554   6.084   3.688   9.035  0.9081  1.2872 -2.1733
  149SAPE  H17Y16555   6.025   3.564   8.919  0.5333 -0.8235 -1.0590
  149SAPE  C31816556   6.216   3.652   8.873  0.2300 -0.0897  0.0154
  149SAPE  H18X16557   6.167   3.731   8.812  1.8053  1.2926  0.4945
  149SAPE  H18Y16558   6.268   3.574   8.812  0.9511  0.0754  0.4111
  149SAPE  H18Z16559   6.299   3.709   8.919 -1.1667  1.5589  0.5326
  150SAPE     N16560   0.333   2.865  11.022 -0.2367 -0.2493  0.3924
  150SAPE   HN116561   0.259   2.860  11.096 -0.3369 -1.5869  0.2082
  150SAPE   HN216562   0.418   2.894  11.074 -0.1514 -0.7179  0.5200
  150SAPE   HN316563   0.299   2.948  10.969 -2.2634  0.5520  2.7865
  150SAPE   C1216564   0.338   2.745  10.941 -0.2885  0.1861 -0.5206
  150SAPE  H12A16565   0.247   2.731  10.878  1.3410 -1.6016 -2.5771
  150SAPE  H12B16566   0.354   2.661  11.012  1.5990 -0.0380 -1.1782
  150SAPE   C1116567   0.456   2.749  10.839  0.1766 -0.0636  0.0147
  150SAPE  H11A16568   0.427   2.819  10.758  0.2858  0.7060  0.6265
  150SAPE  H11B16569   0.460   2.646  10.798  1.0701 -1.2175  2.8295
  150SAPE     P16570   0.673   2.904  10.834  0.2941 -0.1555 -0.0641
  150SAPE   O1316571   0.619   3.038  10.867 -0.6112  0.2561 -0.0047
  150SAPE   O1416572   0.811   2.865  10.868  0.4682 -0.3588  0.3523
  150SAPE   O1216573   0.578   2.794  10.903  0.1106 -0.1457 -0.0312
  150SAPE   O1116574   0.660   2.882  10.678  0.4217  0.0513  1.1105
  150SAPE    C116575   0.714   2.777  10.597 -0.2928 -0.0919 -0.3814
  150SAPE    HA16576   0.823   2.786  10.573 -0.4533  2.2730 -0.2715
  150SAPE    HB16577   0.697   2.677  10.644 -3.1019  0.9689  0.9541
  150SAPE    C216578   0.635   2.788  10.459  0.0222  0.1210 -0.1771
  150SAPE    HS16579   0.623   2.891  10.420  0.4396  0.8882  1.6935
  150SAPE   O2116580   0.508   2.732  10.488 -0.1937 -0.1833  0.6403
  150SAPE   C2116581   0.395   2.794  10.473  0.1325 -0.3279 -0.1881
  150SAPE   O2216582   0.380   2.909  10.442  0.9232 -0.5252 -0.3253
  150SAPE   C2216583   0.275   2.693  10.482 -0.0001 -0.8531  0.0478
  150SAPE   H2R16584   0.280   2.648  10.584 -0.8123  2.0673  1.4258
  150SAPE   H2S16585   0.187   2.760  10.493 -1.3426 -2.5914  0.1157
  150SAPE    C316586   0.713   2.713  10.349  0.1879 -0.3047 -0.1273
  150SAPE    HX16587   0.716   2.612  10.396  1.5285 -0.3560 -0.2851
  150SAPE    HY16588   0.818   2.748  10.338 -0.2780  0.9714 -0.6202
  150SAPE   O3116589   0.640   2.712  10.228  0.3879  0.1270  0.2803
  150SAPE   C3116590   0.637   2.825  10.155  0.3261 -0.0504  0.3584
  150SAPE   O3216591   0.682   2.932  10.186 -0.3724 -0.2539 -0.0561
  150SAPE   C3216592   0.588   2.800  10.014  0.1536 -0.2667  0.5803
  150SAPE   H2X16593   0.487   2.842   9.994  1.0997  0.6039 -2.6172
  150SAPE   H2Y16594   0.572   2.692   9.997 -1.8839 -0.3394  2.7304
  150SAPE   C2316595   0.270   2.578  10.380  0.3330  0.6867  0.1354
  150SAPE   H3R16596   0.191   2.503  10.404  0.5774  0.6309  0.7737
  150SAPE   H3S16597   0.370   2.528  10.377  0.5093  1.1100 -1.2142
  150SAPE   C2416598   0.250   2.637  10.234 -0.8879 -0.4656 -0.1867
  150SAPE   H4R16599   0.243   2.551  10.164 -2.4451 -0.3957 -0.1220
  150SAPE   H4S16600   0.340   2.699  10.214 -0.7845 -0.8808 -1.0417
  150SAPE   C2516601   0.125   2.729  10.229 -0.1127  0.1357  0.2156
  150SAPE   H5R16602   0.042   2.718  10.299 -0.0838  1.4561  0.4745
  150SAPE   C2616603   0.109   2.821  10.136  0.6650 -0.0143  0.3080
  150SAPE   H6R16604   0.012   2.873  10.140  1.0313  0.5821  1.8670
  150SAPE   C2716605   0.199   2.853  10.017 -0.1205 -0.9681 -0.5529
  150SAPE   H7R16606   0.300   2.865  10.063 -0.1002 -1.3857 -0.4873
  150SAPE   H7S16607   0.173   2.951   9.970 -4.1227 -1.0317  1.3360
  150SAPE   C2816608   0.197   2.740   9.917  0.6795  0.4414 -1.1561
  150SAPE   H8R16609   0.174   2.643   9.965 -1.0931  0.6574 -1.5388
  150SAPE   C2916610   0.213   2.753   9.784  0.0370  0.1790  0.4549
  150SAPE   H9R16611   0.220   2.664   9.720  2.7824 -0.1195  1.1124
  150SAPE  C21016612   0.225   2.884   9.713  0.4486 -0.5677 -0.0110
  150SAPE  H10R16613   0.293   2.954   9.767 -2.3014  2.6293 -0.4935
  150SAPE  H10S16614   0.134   2.948   9.708  1.7405  1.2153 -1.3957
  150SAPE  C21116615   0.280   2.857   9.576  0.8130 -0.4045  0.1425
  150SAPE  H11R16616   0.367   2.789   9.578 -0.0958 -1.6015  0.0011
  150SAPE  C21216617   0.244   2.913   9.457 -0.4242  0.4843  0.6185
  150SAPE  H12R16618   0.305   2.884   9.370 -0.3972  0.9032  0.4983
  150SAPE  C21316619   0.130   3.003   9.419  0.3982 -0.2287  0.0675
  150SAPE  H13R16620   0.170   3.106   9.410  0.1043 -0.2786 -1.9657
  150SAPE  H13S16621   0.047   3.003   9.493  0.8387  0.7371  0.5758
  150SAPE  C21416622   0.068   2.955   9.288  0.1880  0.5681  0.4165
  150SAPE  H14R16623  -0.039   2.930   9.295  0.3413  0.2695  1.8040
  150SAPE  C21516624   0.128   2.967   9.169  0.7034 -0.1025  0.1021
  150SAPE  H15R16625   0.068   2.944   9.079 -1.5586  2.3341  0.9181
  150SAPE  C21616626   0.259   3.031   9.141 -0.1815  0.6233  0.2242
  150SAPE  H16R16627   0.335   2.954   9.116 -1.4059  0.0410 -1.7627
  150SAPE  H16S16628   0.286   3.090   9.231 -0.8207 -0.7206  1.3197
  150SAPE  C21716629   0.247   3.122   9.024  0.0601 -0.0094 -0.2231
  150SAPE  H17R16630   0.335   3.190   9.018  0.0127  0.0291 -0.5101
  150SAPE  H17S16631   0.149   3.173   9.019 -0.4065 -0.8561  0.0562
  150SAPE  C21816632   0.259   3.033   8.893 -0.6861  0.0124 -0.3967
  150SAPE  H18R16633   0.193   2.944   8.891 -0.0959 -0.5633  2.8628
  150SAPE  H18S16634   0.366   3.002   8.896 -0.4700  0.9166  1.2408
  150SAPE  C21916635   0.229   3.116   8.764  0.1676  0.0673  0.6443
  150SAPE  H19R16636   0.272   3.057   8.681 -1.9592  0.8333 -1.0325
  150SAPE  H19S16637   0.276   3.216   8.766 -0.7024  0.5377 -1.6313
  150SAPE  C22016638   0.082   3.124   8.727  0.1507 -0.0475 -0.7071
  150SAPE  H20R16639   0.067   3.175   8.629  0.2061 -2.8356 -2.2460
  150SAPE  H20S16640   0.023   3.176   8.805  1.5571 -2.1975  1.8665
  150SAPE  H20T16641   0.039   3.021   8.725  0.8990 -0.3845  0.6866
  150SAPE   C3316642   0.676   2.868   9.907  0.2874  0.1117  0.1187
  150SAPE   H3X16643   0.785   2.863   9.931 -0.0205  1.5894  1.9724
  150SAPE   H3Y16644   0.641   2.970   9.880 -0.9703  0.3454  2.4446
  150SAPE   C3416645   0.669   2.787   9.773  0.5085  0.0314 -0.1469
  150SAPE   H4X16646   0.565   2.783   9.735  0.7164  0.4606 -0.7528
  150SAPE   H4Y16647   0.705   2.684   9.795 -0.1153 -0.4543 -1.3784
  150SAPE   C3516648   0.762   2.850   9.672  0.5963  0.1425 -0.7687
  150SAPE   H5X16649   0.863   2.830   9.714 -0.8903  0.5067  3.2373
  150SAPE   H5Y16650   0.743   2.959   9.669  0.6347  0.2523  1.7409
  150SAPE   C3616651   0.749   2.776   9.541 -0.1599  0.1421  0.9646
  150SAPE   H6X16652   0.649   2.798   9.497 -0.6885 -1.0426  1.5400
  150SAPE   H6Y16653   0.759   2.666   9.549 -1.6035 -0.3490 -2.9471
  150SAPE   C3716654   0.866   2.832   9.453  0.1381  0.3371 -1.0075
  150SAPE   H7X16655   0.960   2.804   9.505 -1.1533  0.0491  1.2698
  150SAPE   H7Y16656   0.849   2.941   9.460  1.4153  0.4479  0.6622
  150SAPE   C3816657   0.852   2.779   9.309 -0.3110 -0.4657 -0.1588
  150SAPE   H8X16658   0.759   2.810   9.257 -0.1522  0.2428 -0.0313
  150SAPE   H8Y16659   0.837   2.669   9.312 -0.8696 -0.3654  0.5978
  150SAPE   C3916660   0.977   2.814   9.227  0.3121 -0.0354  0.0623
  150SAPE   H9X16661   1.063   2.774   9.285 -0.6414 -0.0380  1.5093
  150SAPE   H9Y16662   0.975   2.925   9.220 -1.1001 -0.0873 -0.6018
  150SAPE  C31016663   0.981   2.750   9.084 -0.3080  0.1575 -0.0221
  150SAPE  H10X16664   0.897   2.779   9.018 -0.0624 -0.9031 -0.8225
  150SAPE  H10Y16665   0.986   2.640   9.099 -1.1451 -0.2491 -2.4600
  150SAPE  C31116666   1.115   2.788   9.013  0.2545  0.3600  0.3022
  150SAPE  H11X16667   1.203   2.755   9.071 -0.5556  1.0148  1.9444
  150SAPE  H11Y16668   1.113   2.899   9.021  0.7892  0.4207 -0.3558
  150SAPE  C31216669   1.132   2.764   8.857  0.1416  0.0181 -0.1813
  150SAPE  H12X16670   1.048   2.816   8.806  1.5525  2.7132  0.1463
  150SAPE  H12Y16671   1.141   2.656   8.831 -1.9888 -0.3499  0.4637
  150SAPE  C31316672   1.255   2.844   8.807 -0.0416 -0.1077 -0.1452
  150SAPE  H13X16673   1.343   2.816   8.868 -0.4652 -0.2834  0.3825
  150SAPE  H13Y16674   1.227   2.951   8.802 -1.8680 -0.5305  0.5932
  150SAPE  C31416675   1.288   2.812   8.659 -0.5451 -0.1354 -0.8856
  150SAPE  H14X16676   1.281   2.701   8.650 -0.4469 -0.3439  1.4882
  150SAPE  H14Y16677   1.390   2.849   8.636  0.1358 -0.7151  1.0993
  150SAPE  C31516678   1.185   2.864   8.561  0.3382  0.0703 -0.3097
  150SAPE  H15X16679   1.138   2.956   8.601  0.4709  0.1802 -0.4105
  150SAPE  H15Y16680   1.097   2.796   8.554  1.0303 -1.0203  1.2009
  150SAPE  C31616681   1.227   2.896   8.423 -0.1631 -0.3242 -0.2902
  150SAPE  H16X16682   1.298   2.980   8.436  0.5619 -0.9281 -0.3091
  150SAPE  H16Y16683   1.134   2.934   8.376 -0.1124  0.0829 -0.0634
  150SAPE  C31716684   1.280   2.771   8.340 -0.2021  0.6502  0.4757
  150SAPE  H17X16685   1.234   2.691   8.401  2.5693 -0.7640  0.8095
  150SAPE  H17Y16686   1.388   2.746   8.344 -0.6467 -1.4490 -0.1905
  150SAPE  C31816687   1.233   2.755   8.194 -0.8458  0.0753 -0.1706
  150SAPE  H18X16688   1.125   2.780   8.200 -0.7011  0.2256  2.1649
  150SAPE  H18Y16689   1.242   2.653   8.150 -1.0347 -0.0411  0.0591
  150SAPE  H18Z16690   1.278   2.842   8.142 -0.7249  1.4308  2.1462
  151SAPE     N16691   4.425   6.258  10.516 -0.1379  0.8997 -0.6430
  151SAPE   HN116692   4.395   6.243  10.417 -1.5381  0.9167 -0.2451
  151SAPE   HN216693   4.514   6.213  10.544  1.6097  3.5192 -1.8121
  151SAPE   HN316694   4.341   6.218  10.564  0.5293  3.0558  2.4518
  151SAPE   C1216695   4.444   6.405  10.523  0.3454  0.7367  0.0775
  151SAPE  H12A16696   4.537   6.424  10.465 -0.3571  2.5705 -0.4751
  151SAPE  H12B16697   4.464   6.437  10.628 -2.2907  2.6634  0.0594
  151SAPE   C1116698   4.322   6.479  10.468 -0.0574  0.0724 -0.8969
  151SAPE  H11A16699   4.296   6.446  10.365 -0.2883  0.4661 -0.9624
  151SAPE  H11B16700   4.355   6.585  10.469  1.5535 -0.3897  1.9790
  151SAPE     P16701   4.104   6.565  10.556 -0.4172 -0.0184 -0.0422
  151SAPE   O1316702   3.982   6.502  10.611  0.4252 -0.7354 -0.3173
  151SAPE   O1416703   4.156   6.686  10.618  0.4563  0.2791  0.3997
  151SAPE   O1216704   4.215   6.457  10.555 -0.7821  0.5001 -0.1697
  151SAPE   O1116705   4.088   6.592  10.403  0.0178 -0.4391  0.5393
  151SAPE    C116706   4.077   6.732  10.371 -0.1767  0.4542 -0.6047
  151SAPE    HA16707   3.984   6.774  10.415 -0.4621 -1.2525  0.4758
  151SAPE    HB16708   4.166   6.785  10.409 -1.7091  2.9289 -0.3522
  151SAPE    C216709   4.075   6.752  10.217 -0.0512  0.2797  0.4044
  151SAPE    HS16710   4.055   6.857  10.188 -1.2614  0.1704  0.7845
  151SAPE   O2116711   3.970   6.665  10.169 -0.1388 -0.1059 -0.4122
  151SAPE   C2116712   3.903   6.710  10.065  0.0809 -0.2126 -0.2700
  151SAPE   O2216713   3.926   6.815  10.009  0.6515 -0.5222  0.5052
  151SAPE   C2216714   3.790   6.613  10.027  0.3056 -0.4129 -0.7916
  151SAPE   H2R16715   3.828   6.540   9.953  0.7131  1.1911 -2.1885
  151SAPE   H2S16716   3.748   6.568  10.120 -1.6449  0.1956 -1.3508
  151SAPE    C316717   4.209   6.712  10.151 -0.7625 -0.2506  0.6835
  151SAPE    HX16718   4.213   6.604  10.174 -1.9331 -0.7344 -1.2371
  151SAPE    HY16719   4.295   6.768  10.194  1.7244  0.4515 -4.6680
  151SAPE   O3116720   4.216   6.722  10.013  0.4811  0.0355 -0.2462
  151SAPE   C3116721   4.226   6.849   9.964 -0.3057  0.0690 -0.8429
  151SAPE   O3216722   4.226   6.947  10.036 -0.2213 -0.2209  0.5860
  151SAPE   C3216723   4.265   6.848   9.812  0.0303  0.0109 -0.8270
  151SAPE   H2X16724   4.224   6.764   9.753 -1.9382 -0.7564  1.5623
  151SAPE   H2Y16725   4.375   6.837   9.809 -0.0188 -1.0384  1.0417
  151SAPE   C2316726   3.660   6.673   9.958 -0.2376 -0.3459  0.5105
  151SAPE   H3R16727   3.681   6.690   9.850 -1.0358 -0.0501  0.3992
  151SAPE   H3S16728   3.643   6.773  10.003  0.3649 -0.6417  1.4124
  151SAPE   C2416729   3.543   6.582   9.963  0.9647 -0.6075 -0.0818
  151SAPE   H4R16730   3.529   6.535  10.063  0.5042 -0.1335  0.0786
  151SAPE   H4S16731   3.579   6.499   9.899  1.0574 -0.8377  0.2719
  151SAPE   C2516732   3.415   6.643   9.911  0.4502  0.0074  0.2026
  151SAPE   H5R16733   3.348   6.652   9.997  0.2148 -5.4662  0.8028
  151SAPE   C2616734   3.362   6.645   9.790 -0.3880  0.0689 -0.7839
  151SAPE   H6R16735   3.270   6.705   9.784 -0.7106 -0.2416  0.6902
  151SAPE   C2716736   3.422   6.601   9.659  0.0107  0.0669 -0.2639
  151SAPE   H7R16737   3.381   6.501   9.631 -0.6091  0.9119 -2.5070
  151SAPE   H7S16738   3.531   6.581   9.660 -0.0340 -0.3396  2.7571
  151SAPE   C2816739   3.388   6.691   9.541 -0.9999  0.1635 -0.3697
  151SAPE   H8R16740   3.318   6.772   9.567 -2.6299 -1.8037  1.4953
  151SAPE   C2916741   3.430   6.666   9.408  0.0838 -0.0678 -0.6901
  151SAPE   H9R16742   3.411   6.740   9.328  1.3007  2.7664  1.5280
  151SAPE  C21016743   3.511   6.554   9.357 -0.0330  0.0955 -0.0468
  151SAPE  H10R16744   3.550   6.497   9.443  0.7464  1.4555  0.5238
  151SAPE  H10S16745   3.609   6.586   9.316 -0.8857  3.0540  0.0437
  151SAPE  C21116746   3.434   6.469   9.259 -0.4749 -0.0390 -0.2603
  151SAPE  H11R16747   3.372   6.394   9.310 -1.3617  1.4265  0.8648
  151SAPE  C21216748   3.436   6.465   9.126  0.0226 -0.3464 -0.1788
  151SAPE  H12R16749   3.368   6.391   9.082 -0.2290  0.2769 -0.8466
  151SAPE  C21316750   3.514   6.547   9.025  0.2670 -0.6794 -0.1546
  151SAPE  H13R16751   3.568   6.474   8.962  0.3488 -0.5912 -0.1880
  151SAPE  H13S16752   3.590   6.606   9.081 -1.4912  1.3319  0.1621
  151SAPE  C21416753   3.438   6.639   8.936  0.1249 -0.0270 -0.4086
  151SAPE  H14R16754   3.403   6.719   9.002  2.1622  0.0737  0.5963
  151SAPE  C21516755   3.431   6.630   8.802 -0.0140 -0.2728 -0.6649
  151SAPE  H15R16756   3.390   6.723   8.759  1.3999  1.5849  1.9025
  151SAPE  C21616757   3.489   6.535   8.703 -0.2155 -0.3759 -0.2427
  151SAPE  H16R16758   3.404   6.502   8.639 -1.3662  0.6948  0.7028
  151SAPE  H16S16759   3.540   6.441   8.732 -0.9552 -0.9274 -0.6951
  151SAPE  C21716760   3.581   6.617   8.614 -0.3002 -0.1072  0.1271
  151SAPE  H17R16761   3.659   6.669   8.674 -0.2273  1.4789 -1.3159
  151SAPE  H17S16762   3.514   6.696   8.575 -2.0567 -0.7844  1.7027
  151SAPE  C21816763   3.641   6.526   8.509  0.1522 -1.1087 -0.9568
  151SAPE  H18R16764   3.676   6.589   8.425  0.4299  0.3765  0.2555
  151SAPE  H18S16765   3.564   6.461   8.462 -0.8257 -2.0561  1.8628
  151SAPE  C21916766   3.757   6.442   8.558 -0.5860 -0.3116 -0.1572
  151SAPE  H19R16767   3.800   6.377   8.479 -0.7481 -1.8201  0.9634
  151SAPE  H19S16768   3.718   6.374   8.637  0.0686 -0.9905 -0.4157
  151SAPE  C22016769   3.889   6.514   8.615  0.8254  0.0034 -0.0701
  151SAPE  H20R16770   3.877   6.537   8.723  2.4505 -0.1366  0.1514
  151SAPE  H20S16771   3.903   6.612   8.565  0.5543  0.0122 -0.1305
  151SAPE  H20T16772   3.980   6.451   8.602 -0.1546 -1.7415  1.2176
  151SAPE   C3316773   4.234   6.977   9.741  0.4275 -0.3363 -0.0025
  151SAPE   H3X16774   4.288   7.065   9.783  0.0947 -0.0421 -0.1825
  151SAPE   H3Y16775   4.125   7.000   9.748  0.2967 -1.0290  0.2214
  151SAPE   C3416776   4.264   6.970   9.590 -0.3251 -0.1832 -0.7845
  151SAPE   H4X16777   4.224   6.872   9.557 -0.9659 -0.4673  0.8208
  151SAPE   H4Y16778   4.374   6.959   9.582 -0.2556  1.0205 -1.7329
  151SAPE   C3516779   4.200   7.078   9.505  0.0549 -0.3504 -0.0804
  151SAPE   H5X16780   4.219   7.180   9.545  3.2275 -0.7406 -0.3895
  151SAPE   H5Y16781   4.092   7.057   9.502 -0.0159  0.2267 -1.9544
  151SAPE   C3616782   4.265   7.078   9.359 -0.7957  0.1885  0.3116
  151SAPE   H6X16783   4.262   6.974   9.320 -0.9355  0.3764 -0.1751
  151SAPE   H6Y16784   4.370   7.110   9.353  0.1377 -2.7329  0.0279
  151SAPE   C3716785   4.192   7.168   9.255  0.0650  0.2675 -0.0760
  151SAPE   H7X16786   4.177   7.273   9.289 -2.6528  0.3634 -1.3997
  151SAPE   H7Y16787   4.091   7.131   9.227 -0.2258  0.4960  0.6660
  151SAPE   C3816788   4.265   7.180   9.119  0.5965  0.0049 -0.2748
  151SAPE   H8X16789   4.299   7.087   9.068  0.1140 -1.0738  1.3472
  151SAPE   H8Y16790   4.359   7.237   9.136 -1.1678  2.7481  0.6547
  151SAPE   C3916791   4.187   7.257   9.020  0.4321 -0.5866  0.1765
  151SAPE   H9X16792   4.250   7.305   8.942 -0.7853 -0.3718 -0.6901
  151SAPE   H9Y16793   4.146   7.347   9.071  1.1994 -0.8346  1.2533
  151SAPE  C31016794   4.080   7.180   8.942  0.7678  0.2075 -0.9055
  151SAPE  H10X16795   4.023   7.113   9.011  2.2257 -0.1137  0.0162
  151SAPE  H10Y16796   4.140   7.121   8.870  3.8848  1.8282  0.2494
  151SAPE  C31116797   3.993   7.272   8.855  0.3721  0.0610  0.0841
  151SAPE  H11X16798   4.051   7.333   8.782 -1.7365  0.8324 -0.9933
  151SAPE  H11Y16799   3.937   7.339   8.923 -0.0661  1.2294 -1.4005
  151SAPE  C31216800   3.883   7.190   8.771  0.6566 -0.5133 -0.2956
  151SAPE  H12X16801   3.802   7.254   8.730  0.9115  1.2631  1.8477
  151SAPE  H12Y16802   3.838   7.125   8.850  1.6138  0.3334  0.9686
  151SAPE  C31316803   3.955   7.105   8.662 -0.1067  0.1393 -0.3298
  151SAPE  H13X16804   3.874   7.046   8.613  0.3967 -0.6317 -0.2551
  151SAPE  H13Y16805   4.043   7.047   8.697  0.1964  2.0493  2.2322
  151SAPE  C31416806   4.011   7.188   8.547  0.3596 -0.1635  0.3747
  151SAPE  H14X16807   4.046   7.116   8.469 -1.3334  0.4089 -0.9437
  151SAPE  H14Y16808   4.104   7.244   8.570  0.4528  0.1951 -0.8496
  151SAPE  C31516809   3.911   7.288   8.477 -0.5283 -0.2859 -0.2622
  151SAPE  H15X16810   3.890   7.367   8.553  0.3667  0.5888 -0.9082
  151SAPE  H15Y16811   3.819   7.238   8.443 -0.3156 -2.0602  1.6726
  151SAPE  C31616812   3.974   7.353   8.349 -0.1908 -0.4488 -0.1204
  151SAPE  H16X16813   4.024   7.267   8.299 -0.0679 -0.0136 -0.7521
  151SAPE  H16Y16814   4.051   7.425   8.383 -0.4589 -1.2822  2.3001
  151SAPE  C31716815   3.877   7.421   8.254 -0.6764  0.0452  0.1973
  151SAPE  H17X16816   3.831   7.515   8.291  0.8942  0.7287  0.4860
  151SAPE  H17Y16817   3.802   7.344   8.227 -0.0315  0.2933 -2.4123
  151SAPE  C31816818   3.957   7.478   8.138  0.5685  0.8727  1.0001
  151SAPE  H18X16819   4.028   7.557   8.170  1.4845  0.1869  0.6670
  151SAPE  H18Y16820   3.898   7.523   8.056  2.6249  1.2314 -0.3168
  151SAPE  H18Z16821   4.013   7.388   8.106  0.2857  0.2019  2.3515
  152SAPE     N16822   5.500   6.580  10.720 -0.1287  0.0302  0.2856
  152SAPE   HN116823   5.476   6.628  10.809  0.5971 -1.5795  1.3464
  152SAPE   HN216824   5.604   6.582  10.715 -0.1358 -1.1425 -0.5019
  152SAPE   HN316825   5.458   6.638  10.644  1.0770 -0.5493 -0.8513
  152SAPE   C1216826   5.451   6.436  10.716 -0.4585  0.6349 -0.2592
  152SAPE  H12A16827   5.345   6.437  10.751  0.0139  1.6350  1.1509
  152SAPE  H12B16828   5.510   6.378  10.790  1.2171  0.2610 -1.8711
  152SAPE   C1116829   5.434   6.385  10.569 -0.3637 -0.0283 -0.2161
  152SAPE  H11A16830   5.531   6.355  10.523 -0.4377 -1.6173  0.6564
  152SAPE  H11B16831   5.380   6.458  10.505 -2.2448 -0.9355  0.2837
  152SAPE     P16832   5.216   6.236  10.527  0.2652  0.4294  0.1974
  152SAPE   O1316833   5.191   6.092  10.535 -0.0126  0.1332 -0.7459
  152SAPE   O1416834   5.140   6.332  10.610  0.2607 -0.2902 -0.7092
  152SAPE   O1216835   5.368   6.257  10.570  0.6498 -0.0662 -0.5438
  152SAPE   O1116836   5.218   6.284  10.376  0.1488  0.4422  0.2968
  152SAPE    C116837   5.296   6.199  10.292 -0.6729 -0.1291  0.1458
  152SAPE    HA16838   5.400   6.237  10.290 -1.4798  2.5967  3.6744
  152SAPE    HB16839   5.302   6.094  10.326 -1.1817  0.4878  2.2215
  152SAPE    C216840   5.238   6.210  10.147  0.3334 -0.5847 -0.0362
  152SAPE    HS16841   5.298   6.141  10.084 -0.2252  0.7435 -2.1105
  152SAPE   O2116842   5.245   6.348  10.091  0.1660  0.1096 -0.1182
  152SAPE   C2116843   5.361   6.386  10.044  0.3401  0.0374 -0.0016
  152SAPE   O2216844   5.466   6.321  10.039 -0.0916 -0.2322  0.3398
  152SAPE   C2216845   5.338   6.524   9.973  0.0657 -0.2925 -0.1364
  152SAPE   H2R16846   5.247   6.562  10.025 -0.2418  0.7166 -1.3893
  152SAPE   H2S16847   5.422   6.593   9.994 -2.2244  2.7605 -0.7044
  152SAPE    C316848   5.085   6.159  10.137 -0.4125  0.2872  0.2019
  152SAPE    HX16849   5.031   6.226  10.208 -0.9424 -2.4587  2.4874
  152SAPE    HY16850   5.080   6.061  10.190  0.1885  1.0944  1.7902
  152SAPE   O3116851   5.033   6.165  10.002 -0.0031 -0.6541 -0.1262
  152SAPE   C3116852   5.087   6.081   9.916  0.7593 -0.6559 -0.1476
  152SAPE   O3216853   5.179   6.006   9.943  0.3706  0.3600  0.0223
  152SAPE   C3216854   5.024   6.105   9.776  0.3961  0.1347  0.1524
  152SAPE   H2X16855   4.973   6.203   9.760  0.7205 -0.0375 -2.1296
  152SAPE   H2Y16856   4.947   6.029   9.753  2.2736 -1.9619  0.6811
  152SAPE   C2316857   5.313   6.497   9.826  0.0461 -0.0662 -0.0969
  152SAPE   H3R16858   5.265   6.589   9.786 -1.3068 -0.7101  0.0010
  152SAPE   H3S16859   5.228   6.425   9.818  0.9449 -1.2402  0.6868
  152SAPE   C2416860   5.438   6.470   9.744  0.4906  0.8802  0.3739
  152SAPE   H4R16861   5.490   6.395   9.807 -0.2764 -1.2087 -1.4253
  152SAPE   H4S16862   5.499   6.563   9.747  1.1550  0.5225 -1.2655
  152SAPE   C2516863   5.411   6.417   9.603 -0.7105 -0.2360 -0.0443
  152SAPE   H5R16864   5.380   6.312   9.598  2.4579 -1.1390 -3.1537
  152SAPE   C2616865   5.424   6.490   9.488 -0.4979 -0.2231 -0.5257
  152SAPE   H6R16866   5.365   6.448   9.406 -2.6894 -0.3697  1.0684
  152SAPE   C2716867   5.460   6.640   9.474  0.9512  0.3899  0.5497
  152SAPE   H7R16868   5.569   6.632   9.458  0.8415 -0.2647  0.1121
  152SAPE   H7S16869   5.437   6.696   9.567 -0.4345  2.4310 -0.9864
  152SAPE   C2816870   5.394   6.721   9.359  0.1023 -0.9014 -0.5967
  152SAPE   H8R16871   5.351   6.810   9.408  0.9378 -0.7166 -0.1888
  152SAPE   C2916872   5.397   6.713   9.226  0.1958 -0.3524  0.7584
  152SAPE   H9R16873   5.344   6.789   9.166 -0.0536 -0.8908  0.3018
  152SAPE  C21016874   5.467   6.595   9.161  0.0114  0.5148  0.1589
  152SAPE  H10R16875   5.436   6.496   9.200  0.7601  1.1562  2.4350
  152SAPE  H10S16876   5.573   6.598   9.194  2.0454 -0.9639 -5.6548
  152SAPE  C21116877   5.451   6.602   9.007  0.7420 -0.4368  0.4671
  152SAPE  H11R16878   5.392   6.518   8.968  1.0791 -1.3017  1.7642
  152SAPE  C21216879   5.506   6.691   8.920 -0.3832  0.8616  0.1245
  152SAPE  H12R16880   5.470   6.687   8.816 -3.3500 -0.9261  1.1243
  152SAPE  C21316881   5.603   6.802   8.951 -0.0269 -0.3231 -0.6239
  152SAPE  H13R16882   5.665   6.823   8.862  0.4509  0.5164 -0.0937
  152SAPE  H13S16883   5.664   6.773   9.039  0.4847 -0.8839 -1.1634
  152SAPE  C21416884   5.535   6.928   8.982 -0.1905 -0.8215  0.4112
  152SAPE  H14R16885   5.436   6.947   8.937 -0.3146 -1.0050  0.6008
  152SAPE  C21516886   5.596   7.030   9.053 -0.2370 -0.3263  0.3426
  152SAPE  H15R16887   5.552   7.131   9.048 -1.4881 -0.7975  1.5202
  152SAPE  C21616888   5.726   7.039   9.124 -0.0494 -0.9738 -0.9528
  152SAPE  H16R16889   5.764   6.940   9.161  1.0325  0.3255  1.5729
  152SAPE  H16S16890   5.712   7.083   9.225 -1.5867 -0.7718 -1.2512
  152SAPE  C21716891   5.832   7.124   9.048  0.1114  0.3799 -0.4105
  152SAPE  H17R16892   5.909   7.162   9.118 -0.6082  0.8908  0.1224
  152SAPE  H17S16893   5.783   7.214   9.004 -2.3062 -0.3501  0.6736
  152SAPE  C21816894   5.887   7.061   8.920 -0.5776 -0.0714 -0.1451
  152SAPE  H18R16895   5.807   7.021   8.855 -2.4566  0.8699  1.5405
  152SAPE  H18S16896   5.940   6.971   8.959 -0.6460 -0.2424 -0.4460
  152SAPE  C21916897   5.974   7.150   8.840  0.2085  0.1305 -0.0287
  152SAPE  H19R16898   6.066   7.099   8.803  0.1331  0.7573 -1.1011
  152SAPE  H19S16899   6.005   7.237   8.901 -0.4931  1.3133 -1.3442
  152SAPE  C22016900   5.907   7.196   8.707 -0.0951  0.3368 -0.2196
  152SAPE  H20R16901   5.864   7.107   8.657  0.9856 -0.1736 -0.2652
  152SAPE  H20S16902   5.981   7.241   8.637  1.0520 -0.7868  0.2562
  152SAPE  H20T16903   5.822   7.265   8.721 -1.9404 -1.4352 -2.3800
  152SAPE   C3316904   5.125   6.087   9.666 -0.0839 -0.3096 -0.8166
  152SAPE   H3X16905   5.168   5.985   9.677 -1.8996 -0.7119  3.8858
  152SAPE   H3Y16906   5.209   6.159   9.678  0.9803 -1.4762 -1.1688
  152SAPE   C3416907   5.075   6.099   9.517  0.2458  0.2309 -0.3907
  152SAPE   H4X16908   5.012   6.190   9.510 -0.9423 -0.4765  0.8751
  152SAPE   H4Y16909   5.000   6.019   9.504  0.6628 -0.6416  2.2594
  152SAPE   C3516910   5.182   6.083   9.412  0.4273  0.4498  0.5300
  152SAPE   H5X16911   5.197   5.975   9.431 -0.8699  0.4675  1.7863
  152SAPE   H5Y16912   5.277   6.132   9.441  0.2427  1.2981 -0.2721
  152SAPE   C3616913   5.151   6.121   9.271 -0.4931 -0.3640  0.4238
  152SAPE   H6X16914   5.053   6.077   9.240 -0.2920  0.7280 -1.8393
  152SAPE   H6Y16915   5.234   6.074   9.214 -0.9102  0.8049 -1.1919
  152SAPE   C3716916   5.158   6.269   9.237 -0.9668 -0.2249  0.3383
  152SAPE   H7X16917   5.253   6.310   9.276 -0.0778 -0.9624 -1.0105
  152SAPE   H7Y16918   5.069   6.309   9.291 -1.0122  0.2078 -0.0499
  152SAPE   C3816919   5.149   6.292   9.090 -0.2136  0.5060  0.3909
  152SAPE   H8X16920   5.069   6.236   9.039 -0.3753  1.1097 -0.0331
  152SAPE   H8Y16921   5.250   6.269   9.049  1.1396  4.0716  1.4430
  152SAPE   C3916922   5.123   6.440   9.050  0.8853  0.0760 -0.2766
  152SAPE   H9X16923   5.211   6.502   9.077 -0.7101  1.7149  1.3435
  152SAPE   H9Y16924   5.029   6.476   9.098  0.0515 -0.8210 -1.2208
  152SAPE  C31016925   5.093   6.457   8.901 -0.0086  0.1868  0.1378
  152SAPE  H10X16926   5.118   6.558   8.863  0.2582  0.1995  0.3533
  152SAPE  H10Y16927   4.983   6.442   8.887 -0.5653  2.4861  1.7879
  152SAPE  C31116928   5.169   6.359   8.808  0.1317  0.4955 -0.1591
  152SAPE  H11X16929   5.127   6.256   8.814  1.3733  0.0386  0.9450
  152SAPE  H11Y16930   5.272   6.364   8.849 -0.3981 -0.3645  1.3093
  152SAPE  C31216931   5.170   6.412   8.658  1.0772  0.2956  0.4287
  152SAPE  H12X16932   5.075   6.464   8.636  1.3081  0.5831  0.1047
  152SAPE  H12Y16933   5.188   6.321   8.596  1.0180 -0.7847  1.9684
  152SAPE  C31316934   5.279   6.509   8.631  0.4567  0.7161 -0.3711
  152SAPE  H13X16935   5.374   6.463   8.664 -0.9284 -1.7588  0.3070
  152SAPE  H13Y16936   5.262   6.594   8.700 -1.0048 -0.7627  1.1567
  152SAPE  C31416937   5.289   6.543   8.484 -0.4195  0.2990  0.3788
  152SAPE  H14X16938   5.190   6.587   8.459  0.9430  2.5190 -1.2577
  152SAPE  H14Y16939   5.306   6.456   8.416  2.8605  0.6756  0.6111
  152SAPE  C31516940   5.403   6.640   8.453 -0.3492  0.4105 -0.0323
  152SAPE  H15X16941   5.493   6.576   8.462  0.8886  2.0622 -0.5249
  152SAPE  H15Y16942   5.424   6.717   8.530  0.7171  0.3649 -0.2754
  152SAPE  C31616943   5.392   6.702   8.311  0.3713 -0.7571  0.0290
  152SAPE  H16X16944   5.306   6.771   8.296 -0.0567 -1.3421 -0.2214
  152SAPE  H16Y16945   5.368   6.617   8.243 -2.7377 -0.0234  0.1278
  152SAPE  C31716946   5.520   6.763   8.260 -0.3339  0.1206 -0.0583
  152SAPE  H17X16947   5.610   6.698   8.263 -0.3961 -0.0938 -2.1856
  152SAPE  H17Y16948   5.551   6.853   8.319 -2.8090  0.8869  0.1628
  152SAPE  C31816949   5.517   6.808   8.114  0.2175 -0.6342 -0.9036
  152SAPE  H18X16950   5.430   6.873   8.091 -0.7943 -0.2418  3.4934
  152SAPE  H18Y16951   5.504   6.716   8.052 -1.1336 -0.6057 -0.6891
  152SAPE  H18Z16952   5.605   6.871   8.090 -0.3555  0.5004 -0.1018
  153SAPE     N16953   5.300   1.295  10.991  0.6424  0.1902 -0.4300
  153SAPE   HN116954   5.361   1.345  10.924 -0.3825  0.5008 -1.1574
  153SAPE   HN216955   5.286   1.347  11.080 -1.3541  0.3231 -0.7783
  153SAPE   HN316956   5.363   1.215  11.008  0.4881  0.2031  0.2183
  153SAPE   C1216957   5.170   1.262  10.931  0.1933 -0.6540 -0.8677
  153SAPE  H12A16958   5.124   1.363  10.939  0.3754 -0.6775  0.8643
  153SAPE  H12B16959   5.108   1.197  10.997 -1.0773 -0.8306 -2.2052
  153SAPE   C1116960   5.181   1.204  10.794 -0.1170  0.9059 -0.1456
  153SAPE  H11A16961   5.257   1.258  10.735 -0.4124  1.4355 -0.0483
  153SAPE  H11B16962   5.081   1.210  10.746 -1.7997 -1.1232  2.9218
  153SAPE     P16963   5.137   0.952  10.812 -0.4682  0.3636  0.3627
  153SAPE   O1316964   5.211   0.827  10.773  0.2669  0.2351 -0.1043
  153SAPE   O1416965   5.079   0.954  10.946 -0.1736  0.3594  0.0128
  153SAPE   O1216966   5.237   1.076  10.804 -0.3033 -0.0489  0.1320
  153SAPE   O1116967   5.022   0.986  10.709  0.0196 -0.8356 -0.9225
  153SAPE    C116968   4.991   0.917  10.584 -0.7386 -0.2103  0.5144
  153SAPE    HA16969   4.967   0.812  10.610  2.8681 -1.1979  0.1000
  153SAPE    HB16970   4.904   0.959  10.529 -1.6559  0.0230  2.0896
  153SAPE    C216971   5.101   0.929  10.484  0.5137  0.2204  0.1841
  153SAPE    HS16972   5.184   0.869  10.527 -0.1218 -1.0159 -0.2645
  153SAPE   O2116973   5.135   1.065  10.477 -0.1301 -0.1938 -0.0623
  153SAPE   C2116974   5.261   1.100  10.461 -0.0117 -0.2160 -0.2418
  153SAPE   O2216975   5.357   1.030  10.460  0.5890  0.2002  0.0220
  153SAPE   C2216976   5.264   1.248  10.458 -0.0081  0.2047 -0.0449
  153SAPE   H2R16977   5.244   1.283  10.355 -1.1364  1.9692  0.7424
  153SAPE   H2S16978   5.183   1.294  10.519  1.1949  1.5530  0.5758
  153SAPE    C316979   5.059   0.868  10.352  0.0719  0.5072 -0.2416
  153SAPE    HX16980   4.966   0.920  10.319  0.0994  1.3241  0.9666
  153SAPE    HY16981   5.030   0.764  10.378 -0.6093  1.3343  2.3771
  153SAPE   O3116982   5.159   0.873  10.246  0.7734 -0.3038 -0.0627
  153SAPE   C3116983   5.261   0.799  10.262  0.2790 -0.4060  0.1487
  153SAPE   O3216984   5.284   0.722  10.358  0.0299 -0.0101  0.2571
  153SAPE   C3216985   5.365   0.810  10.151  0.5511  0.2687  0.4143
  153SAPE   H2X16986   5.460   0.838  10.202  0.6977  1.0381 -0.2580
  153SAPE   H2Y16987   5.337   0.906  10.102  4.1851  2.4514  2.3821
  153SAPE   C2316988   5.398   1.298  10.518 -0.2066 -0.0561  0.2942
  153SAPE   H3R16989   5.445   1.228  10.589 -0.4259 -0.0473  0.4476
  153SAPE   H3S16990   5.371   1.391  10.573 -0.0100 -0.0343  0.3522
  153SAPE   C2416991   5.500   1.331  10.405 -0.4949  0.2776 -0.0201
  153SAPE   H4R16992   5.585   1.391  10.443  1.0975 -1.1322 -1.2910
  153SAPE   H4S16993   5.447   1.414  10.353  1.4322  1.5966  0.0739
  153SAPE   C2516994   5.536   1.222  10.319 -0.8328  0.3685 -0.4973
  153SAPE   H5R16995   5.570   1.133  10.373 -0.0170  1.0761  0.1726
  153SAPE   C2616996   5.524   1.212  10.189 -0.3801 -0.8159 -0.0919
  153SAPE   H6R16997   5.562   1.117  10.149  1.4538 -0.2458  0.2140
  153SAPE   C2716998   5.480   1.317  10.094  0.3542 -0.1840 -0.1954
  153SAPE   H7R16999   5.451   1.412  10.143 -2.2136 -1.6397  1.1804
  153SAPE   H7S17000   5.388   1.284  10.042  0.2079  1.5985 -1.0831
  153SAPE   C2817001   5.601   1.341  10.008 -0.1135  0.0564  0.0728
  153SAPE   H8R17002   5.677   1.402  10.058  0.4880  0.6923 -1.5854
  153SAPE   C2917003   5.627   1.281   9.888 -0.1109  0.4716  0.7820
  153SAPE   H9R17004   5.724   1.304   9.843 -0.0170  1.8110  1.6539
  153SAPE  C21017005   5.544   1.176   9.821  0.0777  0.2344 -0.6635
  153SAPE  H10R17006   5.449   1.217   9.778  1.0625  2.0884 -1.1281
  153SAPE  H10S17007   5.513   1.098   9.893  1.5251 -0.4160 -0.7273
  153SAPE  C21117008   5.617   1.107   9.709 -0.2902 -0.7310  0.3031
  153SAPE  H11R17009   5.724   1.085   9.723  0.2049 -0.1261 -2.2553
  153SAPE  C21217010   5.570   1.068   9.588 -0.6520 -0.0907 -0.1774
  153SAPE  H12R17011   5.632   1.015   9.515  0.3335  0.8100 -0.0088
  153SAPE  C21317012   5.426   1.093   9.541  0.2519  0.4933  0.7103
  153SAPE  H13R17013   5.416   1.198   9.506 -0.1879 -0.0882 -0.9713
  153SAPE  H13S17014   5.350   1.090   9.622 -0.7963 -1.1884 -0.3195
  153SAPE  C21417015   5.382   1.004   9.428  0.0587  0.3108  0.3502
  153SAPE  H14R17016   5.330   0.916   9.468 -0.5212  0.7624  0.6104
  153SAPE  C21517017   5.388   1.023   9.294 -0.0399  0.2714 -1.1165
  153SAPE  H15R17018   5.345   0.944   9.231  0.3848  0.1720 -1.2844
  153SAPE  C21617019   5.448   1.142   9.229 -0.5602 -0.3362 -0.3675
  153SAPE  H16R17020   5.525   1.186   9.295 -1.3691  0.9706 -0.2691
  153SAPE  H16S17021   5.377   1.227   9.226 -1.1084 -0.8419 -3.0266
  153SAPE  C21717022   5.508   1.120   9.080 -0.1287  0.1037  0.1035
  153SAPE  H17R17023   5.557   1.020   9.075 -1.6615 -0.6547 -0.0347
  153SAPE  H17S17024   5.601   1.180   9.069  0.9031 -1.4443  0.2516
  153SAPE  C21817025   5.405   1.148   8.971 -0.0242 -0.0137 -0.2089
  153SAPE  H18R17026   5.396   1.258   8.966 -1.1356 -0.0302  1.0006
  153SAPE  H18S17027   5.318   1.094   9.014 -0.9120  0.6099 -1.2209
  153SAPE  C21917028   5.434   1.083   8.828 -0.4258  0.0660 -0.4374
  153SAPE  H19R17029   5.340   1.099   8.772 -0.9029  1.8903  0.8573
  153SAPE  H19S17030   5.447   0.972   8.830 -0.0413  0.1195  0.0778
  153SAPE  C22017031   5.557   1.153   8.769  0.7070  0.0341 -0.0590
  153SAPE  H20R17032   5.651   1.130   8.823  0.4860 -2.3687 -0.6670
  153SAPE  H20S17033   5.551   1.264   8.779  0.3613  0.0209 -0.1137
  153SAPE  H20T17034   5.570   1.113   8.666  1.6511 -2.0621  0.8606
  153SAPE   C3317035   5.369   0.686  10.054  0.6726  1.2201 -0.1874
  153SAPE   H3X17036   5.353   0.593  10.111  1.2773  1.7713  0.8910
  153SAPE   H3Y17037   5.474   0.678  10.019  0.7182 -0.5586  0.3514
  153SAPE   C3417038   5.272   0.700   9.937  0.1854  0.3531 -0.3647
  153SAPE   H4X17039   5.265   0.802   9.893 -2.4224  0.3841  0.0587
  153SAPE   H4Y17040   5.169   0.673   9.969 -0.0508  1.4798 -0.1264
  153SAPE   C3517041   5.316   0.598   9.834  0.1610  0.1269  0.3285
  153SAPE   H5X17042   5.223   0.565   9.781  0.9422 -2.3722  0.4297
  153SAPE   H5Y17043   5.362   0.513   9.890  0.1479 -2.8719 -3.9296
  153SAPE   C3617044   5.418   0.651   9.729 -0.2166  0.1666  0.1141
  153SAPE   H6X17045   5.443   0.755   9.758 -1.6955  0.7291 -0.5782
  153SAPE   H6Y17046   5.369   0.669   9.631 -0.1517  1.9511  0.3997
  153SAPE   C3717047   5.546   0.568   9.720  0.5933  0.9288  0.4016
  153SAPE   H7X17048   5.509   0.470   9.683 -1.1921  2.1158 -1.0480
  153SAPE   H7Y17049   5.595   0.558   9.819  1.1942  1.6324  0.1739
  153SAPE   C3817050   5.635   0.626   9.612  0.3298 -0.2524 -0.4492
  153SAPE   H8X17051   5.738   0.584   9.613  0.4569  0.0967  1.4790
  153SAPE   H8Y17052   5.654   0.733   9.633 -0.8770 -0.6390  2.8490
  153SAPE   C3917053   5.579   0.632   9.478  0.2097  0.3766 -0.4465
  153SAPE   H9X17054   5.482   0.682   9.456  0.9879  1.2109 -2.0516
  153SAPE   H9Y17055   5.562   0.525   9.454  1.4225 -0.0179  0.4660
  153SAPE  C31017056   5.674   0.693   9.373 -0.1700  0.4742 -0.4379
  153SAPE  H10X17057   5.772   0.640   9.375  0.5452  1.8065  1.0070
  153SAPE  H10Y17058   5.685   0.803   9.389 -0.3965  0.4779 -0.3039
  153SAPE  C31117059   5.618   0.663   9.233  0.2433  0.0767 -0.1283
  153SAPE  H11X17060   5.526   0.715   9.201  0.5706 -1.0394 -3.1395
  153SAPE  H11Y17061   5.604   0.553   9.222  0.9229 -0.0204 -0.0398
  153SAPE  C31217062   5.722   0.692   9.122  0.4996 -0.0312  0.3221
  153SAPE  H12X17063   5.814   0.633   9.136 -0.4539 -1.3237  1.2503
  153SAPE  H12Y17064   5.756   0.794   9.150  2.1412 -0.6873  0.7891
  153SAPE  C31317065   5.664   0.704   8.979  0.6286 -0.2555 -0.2318
  153SAPE  H13X17066   5.598   0.794   8.983 -1.2257 -1.5280 -1.6479
  153SAPE  H13Y17067   5.606   0.612   8.959  1.7631 -1.2464  0.9252
  153SAPE  C31417068   5.776   0.732   8.870  0.1288 -0.6318  0.5479
  153SAPE  H14X17069   5.835   0.640   8.849  0.6051 -0.3983  0.8699
  153SAPE  H14Y17070   5.849   0.802   8.914 -0.4587  0.2432  0.1404
  153SAPE  C31517071   5.729   0.798   8.743 -0.6003 -0.1613 -0.6725
  153SAPE  H15X17072   5.714   0.906   8.762  1.1145  0.4217 -2.4333
  153SAPE  H15Y17073   5.639   0.744   8.706  1.2663 -1.8556 -2.9148
  153SAPE  C31617074   5.832   0.791   8.627  0.0040  0.2426 -0.0124
  153SAPE  H16X17075   5.788   0.848   8.542 -0.8777 -0.5846 -0.1123
  153SAPE  H16Y17076   5.838   0.683   8.605 -4.4609  0.3282 -2.1286
  153SAPE  C31717077   5.971   0.853   8.655  0.2786  0.2473  0.2130
  153SAPE  H17X17078   6.011   0.817   8.752  1.4263  1.3484  0.1487
  153SAPE  H17Y17079   5.955   0.962   8.649  3.2545  0.5736 -2.7915
  153SAPE  C31817080   6.065   0.820   8.535  0.2801  0.6610  0.3436
  153SAPE  H18X17081   6.024   0.842   8.434  0.5909 -2.0411 -0.4359
  153SAPE  H18Y17082   6.102   0.715   8.540 -0.9419  0.1284 -1.1073
  153SAPE  H18Z17083   6.158   0.879   8.544 -0.2146  1.6484 -0.9082
  154SAPE     N17084   0.125   6.772  10.817 -0.5018 -0.4455 -0.1789
  154SAPE   HN117085   0.188   6.700  10.857 -2.6629 -1.2871  1.8113
  154SAPE   HN217086   0.166   6.852  10.869  1.1454 -1.7151  0.4975
  154SAPE   HN317087   0.028   6.754  10.852 -0.6369  0.6516  0.0242
  154SAPE   C1217088   0.133   6.816  10.674 -0.2884  0.2046 -0.1696
  154SAPE  H12A17089   0.075   6.737  10.621  0.7858  0.0811 -1.1585
  154SAPE  H12B17090   0.238   6.815  10.638 -0.0841 -0.3940  0.4419
  154SAPE   C1117091   0.052   6.948  10.653 -0.3186 -0.1945  0.7143
  154SAPE  H11A17092   0.033   6.965  10.545  3.5461  1.6781  0.2471
  154SAPE  H11B17093   0.119   7.031  10.685 -1.1056  0.2303  1.2755
  154SAPE     P17094  -0.141   7.091  10.754 -0.1880  0.2467 -0.5581
  154SAPE   O1317095  -0.244   7.069  10.860  0.1024 -0.2514 -0.3414
  154SAPE   O1417096  -0.033   7.192  10.781 -0.3168  0.3593  0.4099
  154SAPE   O1217097  -0.066   6.956  10.735 -0.3261  0.4153  0.1385
  154SAPE   O1117098  -0.198   7.120  10.614 -0.2012 -0.3664 -0.0754
  154SAPE    C117099  -0.297   7.033  10.555  0.4569  0.0227  0.1510
  154SAPE    HA17100  -0.281   6.930  10.593 -1.4408 -0.8763 -1.3816
  154SAPE    HB17101  -0.399   7.072  10.575  0.5468  1.2842 -1.7379
  154SAPE    C217102  -0.283   7.017  10.397  0.1583  0.4724  0.0346
  154SAPE    HS17103  -0.383   6.984  10.360  0.4064 -0.4846  0.1966
  154SAPE   O2117104  -0.181   6.924  10.356  0.4759 -0.2583 -0.2139
  154SAPE   C2117105  -0.213   6.840  10.259 -0.8663 -0.3239  0.0340
  154SAPE   O2217106  -0.322   6.834  10.205 -0.1949  0.4775  0.3892
  154SAPE   C2217107  -0.095   6.754  10.213 -0.2892 -0.3780  0.4576
  154SAPE   H2R17108  -0.007   6.821  10.210 -0.9648  0.4823 -3.1924
  154SAPE   H2S17109  -0.069   6.680  10.292  1.7367  1.1389  1.2583
  154SAPE    C317110  -0.249   7.151  10.329  0.1542  0.0160  0.2558
  154SAPE    HX17111  -0.144   7.166  10.364  0.8870 -2.3912 -0.8289
  154SAPE    HY17112  -0.305   7.236  10.374 -0.0971  0.4480 -0.8638
  154SAPE   O3117113  -0.251   7.134  10.187  0.4408 -0.1986 -0.0832
  154SAPE   C3117114  -0.353   7.179  10.122 -0.4436  0.2141 -0.3292
  154SAPE   O3217115  -0.457   7.221  10.165  0.0293  0.0540  0.0939
  154SAPE   C3217116  -0.325   7.150   9.969 -0.2269 -0.2213  1.3540
  154SAPE   H2X17117  -0.320   7.041   9.951 -1.7878 -0.4693  2.3421
  154SAPE   H2Y17118  -0.230   7.199   9.938 -0.1328 -0.5068  1.1924
  154SAPE   C2317119  -0.116   6.695  10.072 -0.0518  0.3519 -0.1460
  154SAPE   H3R17120  -0.205   6.629  10.060 -0.6299  0.7281  1.8850
  154SAPE   H3S17121  -0.034   6.626  10.044 -1.8784 -1.7590 -0.3919
  154SAPE   C2417122  -0.128   6.791   9.947 -0.3433 -0.5469 -1.3085
  154SAPE   H4R17123  -0.220   6.854   9.942 -0.5125 -0.5051  1.4715
  154SAPE   H4S17124  -0.142   6.735   9.852  1.7259 -0.1398 -1.8907
  154SAPE   C2517125  -0.007   6.882   9.921  0.6227 -0.8124  0.4237
  154SAPE   H5R17126   0.071   6.855   9.994  2.7452 -1.0473 -1.8957
  154SAPE   C2617127   0.020   6.975   9.827  0.4598 -0.0994 -0.0101
  154SAPE   H6R17128   0.124   7.011   9.825  0.1281  0.9419  0.6672
  154SAPE   C2717129  -0.079   7.021   9.724  0.3249  0.7890 -0.3561
  154SAPE   H7R17130  -0.072   7.132   9.716  1.6740  0.5636 -2.9718
  154SAPE   H7S17131  -0.186   6.993   9.739  0.4094  0.6463 -0.0153
  154SAPE   C2817132  -0.042   6.948   9.595 -0.7294 -0.6267 -1.0313
  154SAPE   H8R17133   0.037   6.872   9.594 -1.8226 -1.8075 -0.3530
  154SAPE   C2917134  -0.090   6.985   9.473  0.0258 -0.3418  0.0201
  154SAPE   H9R17135  -0.065   6.920   9.388  1.2860  1.3005 -0.8936
  154SAPE  C21017136  -0.181   7.098   9.449 -0.0742 -0.3369 -0.2289
  154SAPE  H10R17137  -0.135   7.194   9.481 -2.4191  0.4537  0.8574
  154SAPE  H10S17138  -0.274   7.088   9.509  0.9833  3.1103  2.1413
  154SAPE  C21117139  -0.218   7.103   9.306 -0.0375  0.0996  0.0618
  154SAPE  H11R17140  -0.145   7.101   9.224 -2.1865  0.2292 -1.8744
  154SAPE  C21217141  -0.344   7.088   9.266  0.0115 -0.4646 -0.1872
  154SAPE  H12R17142  -0.346   7.070   9.158  0.1012 -1.9791  0.0502
  154SAPE  C21317143  -0.466   7.065   9.347  0.7594 -0.4643  0.5648
  154SAPE  H13R17144  -0.502   7.158   9.397 -2.1074  0.0456 -2.3074
  154SAPE  H13S17145  -0.450   6.990   9.428  1.7654  1.1722  1.9012
  154SAPE  C21417146  -0.573   7.012   9.259 -0.0584  0.1402 -0.0218
  154SAPE  H14R17147  -0.555   7.013   9.151  0.5521 -0.2330  0.0746
  154SAPE  C21517148  -0.691   6.962   9.305 -0.1163 -0.1737 -0.3768
  154SAPE  H15R17149  -0.761   6.921   9.230 -1.5250 -2.1479  1.9559
  154SAPE  C21617150  -0.734   6.968   9.454 -0.3842  0.2017  0.1885
  154SAPE  H16R17151  -0.654   6.940   9.527 -1.2548 -1.4922  0.5239
  154SAPE  H16S17152  -0.819   6.900   9.476 -1.5786  1.6292  0.0624
  154SAPE  C21717153  -0.774   7.106   9.503  0.5072 -0.0569  0.3052
  154SAPE  H17R17154  -0.848   7.146   9.430  0.0856  0.1160  0.8252
  154SAPE  H17S17155  -0.683   7.168   9.517  0.7969 -0.6595  1.1279
  154SAPE  C21817156  -0.850   7.108   9.631 -0.4527 -0.8712 -1.2067
  154SAPE  H18R17157  -0.872   7.216   9.640 -0.5713 -0.9374 -0.6909
  154SAPE  H18S17158  -0.777   7.083   9.711  0.7283  0.1686 -1.9407
  154SAPE  C21917159  -0.971   7.017   9.659 -0.4626  0.3269  0.0351
  154SAPE  H19R17160  -0.931   6.914   9.662 -0.9900  0.1534  3.2566
  154SAPE  H19S17161  -1.049   7.029   9.582 -0.1266  2.8724  0.0234
  154SAPE  C22017162  -1.027   7.044   9.796  0.2752 -0.4056  0.4779
  154SAPE  H20R17163  -1.097   7.130   9.787  1.3995  0.2307 -2.5428
  154SAPE  H20S17164  -0.936   7.077   9.851  2.0034  0.2026 -2.6717
  154SAPE  H20T17165  -1.069   6.955   9.849  0.3438 -1.2878 -0.9324
  154SAPE   C3317166  -0.434   7.223   9.875 -0.0486  0.3201 -0.8552
  154SAPE   H3X17167  -0.539   7.192   9.893  0.0035 -0.4669 -1.8572
  154SAPE   H3Y17168  -0.404   7.177   9.779 -0.6577 -1.7437 -0.0861
  154SAPE   C3417169  -0.425   7.373   9.872 -0.0222  0.7500 -0.9665
  154SAPE   H4X17170  -0.320   7.403   9.848 -0.0656  1.3965 -0.3523
  154SAPE   H4Y17171  -0.442   7.414   9.974 -0.1940 -0.1659 -0.6250
  154SAPE   C3517172  -0.504   7.433   9.758 -0.2469 -0.4057 -0.8191
  154SAPE   H5X17173  -0.520   7.542   9.771 -0.9445 -0.7711  1.6362
  154SAPE   H5Y17174  -0.605   7.388   9.766 -0.3644  0.0876  0.7078
  154SAPE   C3617175  -0.443   7.421   9.620 -0.3945  0.9182 -0.0591
  154SAPE   H6X17176  -0.438   7.312   9.600  0.2147  1.0654 -0.7524
  154SAPE   H6Y17177  -0.335   7.448   9.631  0.2721 -0.6639 -2.2942
  154SAPE   C3717178  -0.509   7.493   9.504  0.0672 -0.2298  1.1483
  154SAPE   H7X17179  -0.518   7.602   9.521 -1.7252 -0.1140 -0.3804
  154SAPE   H7Y17180  -0.610   7.454   9.479  1.7481 -2.7523 -2.0557
  154SAPE   C3817181  -0.433   7.474   9.371  0.3901 -0.5826  0.3572
  154SAPE   H8X17182  -0.401   7.370   9.350 -0.8938 -0.8310 -0.4199
  154SAPE   H8Y17183  -0.346   7.543   9.368 -0.7310  0.9098  1.3354
  154SAPE   C3917184  -0.514   7.527   9.257  0.1444 -0.6327 -0.1563
  154SAPE   H9X17185  -0.549   7.631   9.275 -0.6192 -1.0396  0.7922
  154SAPE   H9Y17186  -0.604   7.461   9.251  0.7243 -1.3892 -0.6357
  154SAPE  C31017187  -0.437   7.520   9.125 -0.4399  0.6820 -0.4173
  154SAPE  H10X17188  -0.353   7.448   9.122 -0.9031  0.1586 -0.7407
  154SAPE  H10Y17189  -0.383   7.617   9.116  1.0587 -0.2788 -1.9099
  154SAPE  C31117190  -0.526   7.495   9.000 -0.3948  0.1126 -0.4170
  154SAPE  H11X17191  -0.555   7.599   8.972  2.6628  1.9943  3.0318
  154SAPE  H11Y17192  -0.620   7.459   9.046  0.2205  0.4506  1.1143
  154SAPE  C31217193  -0.471   7.416   8.875 -0.3012  0.3465  0.2904
  154SAPE  H12X17194  -0.389   7.464   8.818  0.2437 -0.0305  0.7535
  154SAPE  H12Y17195  -0.561   7.419   8.810 -1.0500 -1.7460  1.2022
  154SAPE  C31317196  -0.442   7.276   8.921  0.2710 -0.2062  0.2154
  154SAPE  H13X17197  -0.517   7.243   8.996 -0.8037 -0.8685 -1.1566
  154SAPE  H13Y17198  -0.346   7.261   8.977  1.1529 -1.0582 -1.4967
  154SAPE  C31417199  -0.428   7.168   8.812  1.0230  0.1124  0.0688
  154SAPE  H14X17200  -0.338   7.187   8.750  2.7603 -1.4572  2.0548
  154SAPE  H14Y17201  -0.518   7.178   8.748  0.8204 -0.3652  0.2782
  154SAPE  C31517202  -0.413   7.023   8.870  0.2740 -0.2723 -0.0377
  154SAPE  H15X17203  -0.508   7.009   8.926  0.2046 -1.2168 -0.3922
  154SAPE  H15Y17204  -0.335   7.018   8.949  1.3032 -0.7654 -1.0653
  154SAPE  C31617205  -0.386   6.922   8.761  0.4939 -0.5015  0.4750
  154SAPE  H16X17206  -0.378   6.824   8.811  0.1912 -0.6490  0.2380
  154SAPE  H16Y17207  -0.286   6.944   8.718  0.6216  1.7593  1.8201
  154SAPE  C31717208  -0.486   6.913   8.644  0.7904 -0.4174  0.4090
  154SAPE  H17X17209  -0.443   6.863   8.555  2.3018  0.6304  0.5188
  154SAPE  H17Y17210  -0.524   7.008   8.602 -0.6917 -0.5746  1.3743
  154SAPE  C31817211  -0.609   6.831   8.681  1.0287  0.4128  0.2705
  154SAPE  H18X17212  -0.668   6.873   8.765 -1.4361 -1.9677 -0.1737
  154SAPE  H18Y17213  -0.567   6.742   8.733 -2.7457 -0.5534  1.8396
  154SAPE  H18Z17214  -0.684   6.793   8.608 -1.5685  2.2268  1.8817
  155SAPE     N17215   0.567   1.278  10.716 -0.4559  0.5325 -0.2072
  155SAPE   HN117216   0.621   1.340  10.653 -1.5608 -1.4492 -3.2340
  155SAPE   HN217217   0.631   1.205  10.752 -1.3521  0.1736  0.6911
  155SAPE   HN317218   0.496   1.230  10.658 -2.3113  1.6868  1.0511
  155SAPE   C1217219   0.488   1.360  10.822 -0.4969 -0.2722 -0.1078
  155SAPE  H12A17220   0.484   1.301  10.916 -0.0412  1.9342  1.3270
  155SAPE  H12B17221   0.389   1.371  10.774 -0.5326 -0.4445 -0.0722
  155SAPE   C1117222   0.560   1.494  10.848 -0.4718  0.7080 -0.8772
  155SAPE  H11A17223   0.662   1.456  10.873 -0.1814  1.6410 -0.6354
  155SAPE  H11B17224   0.516   1.547  10.935  2.2630 -3.8194  3.5501
  155SAPE     P17225   0.583   1.722  10.735 -0.0685  0.5491  0.6348
  155SAPE   O1317226   0.471   1.802  10.787 -0.2287  0.4037  0.2802
  155SAPE   O1417227   0.716   1.735  10.802  0.2496 -0.6755 -0.5014
  155SAPE   O1217228   0.558   1.572  10.728  0.4037  0.4061 -0.0306
  155SAPE   O1117229   0.613   1.748  10.579  0.6013 -0.1176 -0.6610
  155SAPE    C117230   0.656   1.659  10.477 -0.0643  0.6639 -0.1568
  155SAPE    HA17231   0.755   1.687  10.436 -0.6847  3.2488 -0.0140
  155SAPE    HB17232   0.653   1.557  10.521  0.2008  0.6484 -0.1748
  155SAPE    C217233   0.569   1.657  10.344  0.4844 -0.5437  0.1329
  155SAPE    HS17234   0.603   1.565  10.292 -0.6221  0.3930 -2.3145
  155SAPE   O2117235   0.594   1.777  10.268 -0.5510  0.0820 -0.6256
  155SAPE   C2117236   0.695   1.766  10.189 -0.5395 -0.0707 -0.0182
  155SAPE   O2217237   0.778   1.678  10.185 -0.0504  0.2836  0.0655
  155SAPE   C2217238   0.686   1.885  10.090 -0.3344 -0.1532  0.1211
  155SAPE   H2R17239   0.582   1.888  10.052 -0.4635 -0.0518  0.4787
  155SAPE   H2S17240   0.689   1.977  10.152 -0.4792 -0.9823  1.3864
  155SAPE    C317241   0.413   1.651  10.379  0.3875 -0.1816 -0.0951
  155SAPE    HX17242   0.385   1.738  10.442  0.8916 -1.7784  2.4098
  155SAPE    HY17243   0.397   1.560  10.441  0.9347 -0.3571 -0.2098
  155SAPE   O3117244   0.321   1.626  10.266 -0.5498  0.4203  0.1082
  155SAPE   C3117245   0.276   1.731  10.209 -0.1793 -0.2696  0.2735
  155SAPE   O3217246   0.298   1.850  10.242  0.4076 -0.5357 -0.3924
  155SAPE   C3217247   0.220   1.686  10.071  0.2260 -0.4468 -0.0244
  155SAPE   H2X17248   0.116   1.652  10.091  0.5782  0.0141  2.7608
  155SAPE   H2Y17249   0.278   1.600  10.031  2.4112  1.0561 -0.1835
  155SAPE   C2317250   0.785   1.873   9.977 -0.3984 -0.6273 -0.2018
  155SAPE   H3R17251   0.759   1.776   9.929  0.7844 -2.1029  2.0108
  155SAPE   H3S17252   0.888   1.861  10.017 -0.2211  2.1379  0.2775
  155SAPE   C2417253   0.797   1.991   9.889 -0.2514 -0.6851 -0.4766
  155SAPE   H4R17254   0.859   2.067   9.941  2.2613 -1.0215 -2.8777
  155SAPE   H4S17255   0.698   2.040   9.880 -0.2778 -0.4092  1.0489
  155SAPE   C2517256   0.859   1.967   9.756 -0.7754 -0.1475 -0.2761
  155SAPE   H5R17257   0.961   1.927   9.752 -0.5498  0.4314 -0.4700
  155SAPE   C2617258   0.817   2.004   9.634 -0.0148  0.4427  0.3809
  155SAPE   H6R17259   0.884   1.981   9.550 -0.6202 -0.3125  0.0895
  155SAPE   C2717260   0.695   2.087   9.595  0.1653 -0.0301  0.3658
  155SAPE   H7R17261   0.712   2.146   9.503 -0.6300 -0.9665 -0.3941
  155SAPE   H7S17262   0.681   2.166   9.672  1.4645  1.6144 -1.0486
  155SAPE   C2817263   0.572   2.003   9.589 -0.2429  0.8221  0.3837
  155SAPE   H8R17264   0.543   1.965   9.688 -0.0558  0.7818  0.4253
  155SAPE   C2917265   0.514   1.952   9.476  0.3294 -0.5243 -0.1452
  155SAPE   H9R17266   0.421   1.895   9.492  0.8797 -2.3485 -3.1487
  155SAPE  C21017267   0.566   1.968   9.334  0.0968 -0.5132  0.6150
  155SAPE  H10R17268   0.640   2.051   9.336  0.6424 -0.9999  2.8243
  155SAPE  H10S17269   0.499   2.008   9.255 -0.9841  0.8096  2.1537
  155SAPE  C21117270   0.645   1.852   9.292  0.4923  0.0551  0.2236
  155SAPE  H11R17271   0.744   1.849   9.340 -0.0584  2.0632  1.5423
  155SAPE  C21217272   0.610   1.762   9.203  0.4797  0.4942  0.1477
  155SAPE  H12R17273   0.681   1.684   9.170 -0.1441 -0.0891  0.1897
  155SAPE  C21317274   0.487   1.765   9.117  0.2710 -0.2043  0.0179
  155SAPE  H13R17275   0.397   1.784   9.179  0.2660  0.8773 -0.3259
  155SAPE  H13S17276   0.482   1.664   9.069 -1.7933 -0.9886  1.7922
  155SAPE  C21417277   0.497   1.869   9.007 -0.4436 -0.6608  0.2275
  155SAPE  H14R17278   0.465   1.970   9.038 -0.5037 -0.5135 -0.3167
  155SAPE  C21517279   0.525   1.851   8.874 -0.0744 -0.1784 -0.3789
  155SAPE  H15R17280   0.547   1.937   8.809  0.9551 -0.1782 -0.0375
  155SAPE  C21617281   0.547   1.723   8.810 -0.4806 -0.1860  0.6389
  155SAPE  H16R17282   0.541   1.740   8.700  1.3618 -3.0520  0.0444
  155SAPE  H16S17283   0.471   1.648   8.841 -1.7616  0.6152 -0.4858
  155SAPE  C21717284   0.687   1.668   8.832  0.1177 -0.7230 -0.3585
  155SAPE  H17R17285   0.703   1.649   8.940 -2.3777  3.0461  0.7716
  155SAPE  H17S17286   0.762   1.737   8.789 -1.9165  0.6743 -1.7681
  155SAPE  C21817287   0.712   1.531   8.772  0.1857  1.0755  0.1288
  155SAPE  H18R17288   0.823   1.522   8.765  0.4525  2.0357  2.6585
  155SAPE  H18S17289   0.673   1.521   8.668 -2.4309  1.6165  1.0189
  155SAPE  C21917290   0.645   1.429   8.870 -0.4607 -0.1298  0.4344
  155SAPE  H19R17291   0.540   1.467   8.870 -0.6217 -0.5628 -0.5392
  155SAPE  H19S17292   0.679   1.451   8.974  1.3389 -0.5922 -0.0380
  155SAPE  C22017293   0.669   1.284   8.838 -0.8873  0.9008 -0.4234
  155SAPE  H20R17294   0.653   1.252   8.733  1.2743 -0.2643 -0.4260
  155SAPE  H20S17295   0.597   1.230   8.903  0.1616  1.5447  1.3031
  155SAPE  H20T17296   0.766   1.244   8.872 -1.3362  1.7284  1.9170
  155SAPE   C3317297   0.227   1.807   9.977  0.0363 -0.7417 -0.5727
  155SAPE   H3X17298   0.332   1.840   9.960 -0.2405 -0.1032 -1.0460
  155SAPE   H3Y17299   0.170   1.885  10.031  0.2763 -1.4533  0.7266
  155SAPE   C3417300   0.154   1.773   9.844 -0.3424  0.6222  0.5757
  155SAPE   H4X17301   0.056   1.723   9.860 -0.1873  0.6567  1.6991
  155SAPE   H4Y17302   0.215   1.699   9.788 -1.7681  0.0435 -0.2428
  155SAPE   C3517303   0.150   1.895   9.747  0.2329 -0.4090  0.2213
  155SAPE   H5X17304   0.252   1.939   9.741 -0.1106  0.2620 -0.9147
  155SAPE   H5Y17305   0.086   1.971   9.797  1.5062  1.5871 -1.0997
  155SAPE   C3617306   0.095   1.861   9.605  0.0049 -0.2090  0.1274
  155SAPE   H6X17307   0.008   1.793   9.596 -0.7374  0.7559  0.0252
  155SAPE   H6Y17308   0.178   1.802   9.559  0.7902  0.5418  0.5536
  155SAPE   C3717309   0.089   1.983   9.523  0.2515  0.1710  0.1631
  155SAPE   H7X17310   0.191   2.013   9.491  0.8247  0.0830  1.8624
  155SAPE   H7Y17311   0.039   2.067   9.575 -0.4418  1.1824 -2.0474
  155SAPE   C3817312   0.008   1.952   9.396 -0.1192 -0.3258  0.1414
  155SAPE   H8X17313  -0.098   1.949   9.428 -0.0858  0.9516  0.4053
  155SAPE   H8Y17314   0.033   1.850   9.361 -1.5487 -0.7250  0.2586
  155SAPE   C3917315   0.025   2.054   9.287 -0.3126  0.0136  0.1900
  155SAPE   H9X17316   0.028   2.151   9.342 -1.3705  0.4414 -0.4822
  155SAPE   H9Y17317  -0.061   2.053   9.216  0.3626 -0.8266 -0.6210
  155SAPE  C31017318   0.163   2.030   9.218  0.0902  0.6276  0.1546
  155SAPE  H10X17319   0.162   1.938   9.155 -1.2288  1.8950 -1.7032
  155SAPE  H10Y17320   0.250   2.026   9.287  1.0685 -0.6116 -1.1308
  155SAPE  C31117321   0.204   2.144   9.118  0.4880  0.0900 -0.2168
  155SAPE  H11X17322   0.314   2.145   9.100  0.6519 -1.3067  0.6221
  155SAPE  H11Y17323   0.172   2.231   9.178 -0.1695  0.6105 -1.3046
  155SAPE  C31217324   0.135   2.141   8.982  0.4461  0.1689 -0.0019
  155SAPE  H12X17325   0.176   2.221   8.917 -0.5945  1.9374  1.4491
  155SAPE  H12Y17326   0.027   2.159   8.999  0.5913  1.3675 -0.2826
  155SAPE  C31317327   0.137   2.013   8.903 -0.0580  0.4430 -0.3825
  155SAPE  H13X17328   0.075   1.942   8.962  2.1099 -0.5841  0.7041
  155SAPE  H13Y17329   0.245   1.990   8.912 -0.2812 -0.7559 -0.6805
  155SAPE  C31417330   0.089   2.020   8.761  0.0116 -0.0629  0.7132
  155SAPE  H14X17331   0.152   2.096   8.710  0.3595 -1.6487 -1.2547
  155SAPE  H14Y17332  -0.013   2.064   8.751  0.5728  1.1590  0.2447
  155SAPE  C31517333   0.093   1.894   8.677  0.2314  0.6743  0.3513
  155SAPE  H15X17334   0.038   1.816   8.735  0.7742  0.0182 -0.0131
  155SAPE  H15Y17335   0.200   1.865   8.681  0.4715  1.3735 -0.8683
  155SAPE  C31617336   0.056   1.912   8.536  0.2619  0.6362  0.3294
  155SAPE  H16X17337   0.127   1.981   8.486  1.0706 -0.2163  0.2889
  155SAPE  H16Y17338  -0.043   1.962   8.525 -0.1595 -0.0950  0.7624
  155SAPE  C31717339   0.062   1.792   8.445  0.1639 -0.7710 -0.1247
  155SAPE  H17X17340   0.005   1.712   8.495 -1.4886 -0.1482 -0.9638
  155SAPE  H17Y17341   0.169   1.761   8.442  1.1961  2.6782 -3.2724
  155SAPE  C31817342   0.006   1.806   8.304  0.0775  0.7191 -0.2652
  155SAPE  H18X17343   0.053   1.889   8.247  1.1639 -0.9898 -1.9049
  155SAPE  H18Y17344  -0.105   1.806   8.298 -0.0461  0.2983  1.4789
  155SAPE  H18Z17345   0.036   1.719   8.242  2.4244  0.3241  1.3390
  156SAPE     N17346   4.363   6.782  10.794  0.6288 -0.9280 -0.1035
  156SAPE   HN117347   4.286   6.732  10.745 -1.1283  1.0250  0.5239
  156SAPE   HN217348   4.442   6.718  10.814  0.0703 -1.3428  0.8349
  156SAPE   HN317349   4.316   6.802  10.885 -2.0563 -0.2313 -1.5889
  156SAPE   C1217350   4.400   6.902  10.709  0.8157  0.4280  0.4101
  156SAPE  H12A17351   4.475   6.952  10.774 -0.4676  3.2643 -0.2168
  156SAPE  H12B17352   4.309   6.964  10.696  1.6433  1.4238 -0.8018
  156SAPE   C1117353   4.460   6.868  10.573  0.1868 -0.1067 -0.1567
  156SAPE  H11A17354   4.504   6.964  10.538 -0.0867 -0.6569 -2.0734
  156SAPE  H11B17355   4.386   6.841  10.495 -0.7065 -1.2174  1.0395
  156SAPE     P17356   4.665   6.736  10.479  0.1299 -0.0551 -0.2788
  156SAPE   O1317357   4.737   6.866  10.480  0.2266  0.3023 -1.0251
  156SAPE   O1417358   4.756   6.618  10.509 -0.3528  0.3524 -0.4647
  156SAPE   O1217359   4.556   6.758  10.597 -0.3908  0.0565  0.9982
  156SAPE   O1117360   4.586   6.714  10.349  0.0004 -0.5804  0.5065
  156SAPE    C117361   4.603   6.786  10.227 -0.3791  0.0555 -0.4647
  156SAPE    HA17362   4.501   6.818  10.197 -0.3632  1.2166  0.7334
  156SAPE    HB17363   4.676   6.869  10.234 -0.5324  0.0523  1.2070
  156SAPE    C217364   4.648   6.683  10.116 -0.1724 -0.5464 -0.2990
  156SAPE    HS17365   4.690   6.754  10.040 -0.2534  0.6437  0.7519
  156SAPE   O2117366   4.529   6.610  10.065 -0.4318  0.6838 -0.5929
  156SAPE   C2117367   4.549   6.562   9.940  0.4673  0.6382  0.0091
  156SAPE   O2217368   4.642   6.589   9.873 -0.5534 -0.4636  0.1841
  156SAPE   C2217369   4.442   6.458   9.918  0.5798 -0.5418  0.1269
  156SAPE   H2R17370   4.471   6.371   9.982 -1.2670 -1.6005 -0.4427
  156SAPE   H2S17371   4.341   6.491   9.949  1.0687 -0.5947  1.8350
  156SAPE    C317372   4.761   6.587  10.175 -0.0230 -0.5133 -0.0849
  156SAPE    HX17373   4.706   6.521  10.245 -3.1952  2.0547 -0.0566
  156SAPE    HY17374   4.828   6.652  10.236 -1.8381  0.4232  0.9567
  156SAPE   O3117375   4.828   6.504  10.073 -0.1268 -0.0924  0.3811
  156SAPE   C3117376   4.929   6.550  10.008 -0.1791  0.6541 -0.4508
  156SAPE   O3217377   4.994   6.650  10.037  0.3086  0.3796 -0.1673
  156SAPE   C3217378   4.950   6.467   9.886  0.3146 -0.3164  0.0523
  156SAPE   H2X17379   4.867   6.394   9.875  1.0816 -1.3352  0.9918
  156SAPE   H2Y17380   5.036   6.401   9.908  0.5377  1.0876  3.9243
  156SAPE   C2317381   4.433   6.417   9.771 -0.2121  0.0886 -0.2291
  156SAPE   H3R17382   4.393   6.314   9.776  0.8333 -0.3499 -0.6689
  156SAPE   H3S17383   4.531   6.407   9.720 -1.5243 -0.6584 -2.6667
  156SAPE   C2417384   4.342   6.502   9.687  0.4899 -0.1229 -0.7192
  156SAPE   H4R17385   4.386   6.604   9.682 -1.8967  0.9717  0.3390
  156SAPE   H4S17386   4.242   6.523   9.729  1.2500 -0.8600  1.5618
  156SAPE   C2517387   4.333   6.436   9.552 -0.6915 -0.4786  0.8099
  156SAPE   H5R17388   4.278   6.340   9.554 -0.2490 -0.7258  1.2556
  156SAPE   C2617389   4.377   6.485   9.438  0.5356 -0.1967 -0.0151
  156SAPE   H6R17390   4.368   6.424   9.347  0.8643  0.8538 -0.7730
  156SAPE   C2717391   4.456   6.612   9.424  0.6100  0.0606  0.2441
  156SAPE   H7R17392   4.536   6.612   9.501  0.5095  2.7719  0.4148
  156SAPE   H7S17393   4.408   6.712   9.430 -0.1843 -0.2396 -0.9732
  156SAPE   C2817394   4.537   6.603   9.293 -0.1702 -0.9270  0.0019
  156SAPE   H8R17395   4.610   6.522   9.285 -0.6807 -1.4268  0.3035
  156SAPE   C2917396   4.511   6.672   9.179  0.3497 -0.2431  0.4885
  156SAPE   H9R17397   4.587   6.670   9.100  0.3505 -2.1861  0.5028
  156SAPE  C21017398   4.392   6.771   9.152 -0.9834  0.3637 -0.4672
  156SAPE  H10R17399   4.417   6.879   9.166  1.6418 -0.5089  2.0797
  156SAPE  H10S17400   4.317   6.745   9.229 -0.0057 -0.2698  0.2807
  156SAPE  C21117401   4.346   6.752   9.014  0.2940 -0.4121  0.1962
  156SAPE  H11R17402   4.426   6.713   8.950  1.8735  0.7546  1.4079
  156SAPE  C21217403   4.226   6.770   8.965 -0.2923 -0.3201  1.1375
  156SAPE  H12R17404   4.214   6.740   8.860  2.2978 -0.0386  0.7211
  156SAPE  C21317405   4.095   6.814   9.024 -0.9904 -0.6720 -0.4192
  156SAPE  H13R17406   4.040   6.896   8.972 -1.1584  0.9019  2.1360
  156SAPE  H13S17407   4.112   6.841   9.130  1.4807 -0.9260 -0.7173
  156SAPE  C21417408   3.994   6.699   9.028  0.4537 -0.1389  0.6262
  156SAPE  H14R17409   4.021   6.610   8.969  0.1517  0.2159 -0.0613
  156SAPE  C21517410   3.886   6.683   9.115 -0.8550 -0.5793  0.0660
  156SAPE  H15R17411   3.840   6.583   9.122 -1.8795 -0.0794  0.8273
  156SAPE  C21617412   3.836   6.776   9.227 -0.0243  0.4882 -0.6184
  156SAPE  H16R17413   3.728   6.777   9.205 -0.1158 -0.2936 -0.2214
  156SAPE  H16S17414   3.876   6.879   9.210 -1.5254  0.8101 -2.3142
  156SAPE  C21717415   3.865   6.714   9.366  0.4708  0.2421 -0.8024
  156SAPE  H17R17416   3.837   6.607   9.369 -2.3242  0.9736  1.1992
  156SAPE  H17S17417   3.801   6.763   9.442  0.5634 -2.4123  1.0237
  156SAPE  C21817418   4.006   6.726   9.414 -0.6733 -0.2312 -0.1322
  156SAPE  H18R17419   4.047   6.829   9.418  0.6874 -0.6660 -2.2451
  156SAPE  H18S17420   4.063   6.680   9.331  0.0925 -2.5450  1.6037
  156SAPE  C21917421   4.039   6.652   9.539 -0.7596  0.3741 -0.4571
  156SAPE  H19R17422   4.149   6.669   9.542 -0.7295  0.2053 -0.5844
  156SAPE  H19S17423   4.019   6.543   9.527 -0.0136  0.1156  0.5663
  156SAPE  C22017424   3.964   6.698   9.664 -0.1714  0.6249  0.0364
  156SAPE  H20R17425   3.975   6.809   9.669  3.5031  0.3102 -0.0965
  156SAPE  H20S17426   4.012   6.656   9.754 -1.0269  1.3418  0.8412
  156SAPE  H20T17427   3.856   6.672   9.671  0.0121 -0.0814  0.2207
  156SAPE   C3317428   4.960   6.549   9.750 -0.2391  0.1047  0.1866
  156SAPE   H3X17429   5.049   6.614   9.759 -0.3350  0.3637 -0.7060
  156SAPE   H3Y17430   4.880   6.625   9.744  0.5361  0.8912 -0.2601
  156SAPE   C3417431   4.971   6.457   9.622 -0.1578 -0.3611 -0.4661
  156SAPE   H4X17432   4.871   6.410   9.619 -0.2719 -0.0250 -3.0162
  156SAPE   H4Y17433   5.051   6.381   9.635  0.6036  0.3653 -0.8051
  156SAPE   C3517434   5.014   6.534   9.499  0.9622  0.9435 -0.4736
  156SAPE   H5X17435   5.033   6.460   9.419  0.9689  0.6739 -0.2203
  156SAPE   H5Y17436   5.103   6.597   9.521  1.5213  0.4253 -1.2431
  156SAPE   C3617437   4.895   6.622   9.455  0.1008 -0.0964 -0.8475
  156SAPE   H6X17438   4.897   6.721   9.506 -1.4136 -0.7789  0.5956
  156SAPE   H6Y17439   4.800   6.568   9.477  0.6869 -0.7613  0.0745
  156SAPE   C3717440   4.893   6.661   9.307  0.5255  0.6954 -0.3913
  156SAPE   H7X17441   4.796   6.714   9.297  0.3786  0.9357  2.0499
  156SAPE   H7Y17442   4.883   6.569   9.246 -0.8254 -0.6967  1.8692
  156SAPE   C3817443   5.009   6.753   9.256 -0.3377  0.1191 -0.4909
  156SAPE   H8X17444   5.105   6.698   9.273 -1.7521 -1.6105  2.2494
  156SAPE   H8Y17445   5.011   6.833   9.332  0.8897 -0.3809  0.0259
  156SAPE   C3917446   4.984   6.789   9.109  0.0389 -0.7275  0.0503
  156SAPE   H9X17447   4.890   6.846   9.092  0.2291 -0.8555 -1.5259
  156SAPE   H9Y17448   4.974   6.694   9.052 -1.9031  0.4864 -1.7254
  156SAPE  C31017449   5.096   6.866   9.043 -0.1998 -0.5704 -0.1790
  156SAPE  H10X17450   5.194   6.815   9.058  0.2950  0.3432 -0.2080
  156SAPE  H10Y17451   5.113   6.958   9.104  2.2447  1.2643 -3.4487
  156SAPE  C31117452   5.073   6.914   8.902 -0.6031  0.8428 -0.2711
  156SAPE  H11X17453   5.156   6.979   8.868  0.9108 -2.0027 -2.2625
  156SAPE  H11Y17454   4.974   6.964   8.900 -1.9600 -1.6497  0.9637
  156SAPE  C31217455   5.067   6.796   8.798 -0.8300  0.5161 -0.9821
  156SAPE  H12X17456   4.982   6.728   8.822 -0.6310 -0.3137 -2.5707
  156SAPE  H12Y17457   5.163   6.743   8.815 -1.8380 -1.1635 -0.4236
  156SAPE  C31317458   5.051   6.834   8.652 -0.3334  0.8005 -0.6220
  156SAPE  H13X17459   4.965   6.904   8.653 -2.1926 -1.3932  2.2611
  156SAPE  H13Y17460   5.011   6.750   8.591 -1.1470  1.6949 -1.3413
  156SAPE  C31417461   5.169   6.903   8.591  0.6257  0.1493  0.1421
  156SAPE  H14X17462   5.239   6.829   8.548  0.4954  1.0400 -1.6753
  156SAPE  H14Y17463   5.212   6.961   8.676 -1.0097  0.0071  1.1035
  156SAPE  C31517464   5.137   7.003   8.474  0.5778 -0.3428  0.1232
  156SAPE  H15X17465   5.229   7.030   8.418  1.7579 -0.1004  2.1099
  156SAPE  H15Y17466   5.108   7.105   8.506 -0.1018 -0.7657  0.8853
  156SAPE  C31617467   5.044   6.938   8.369 -0.7466  0.0437  0.9235
  156SAPE  H16X17468   4.993   6.850   8.414  0.0214 -0.0353  1.6455
  156SAPE  H16Y17469   5.094   6.920   8.272  0.0771  1.3817  1.0885
  156SAPE  C31717470   4.935   7.034   8.316  0.1818  0.4185  0.0505
  156SAPE  H17X17471   4.900   7.002   8.216 -1.3031 -1.5847  1.1669
  156SAPE  H17Y17472   4.970   7.138   8.302  0.3529  0.3964  0.3109
  156SAPE  C31817473   4.812   7.042   8.410  0.0673 -0.5207 -0.4040
  156SAPE  H18X17474   4.855   7.031   8.512 -0.1677  1.8590 -0.0196
  156SAPE  H18Y17475   4.742   6.956   8.402 -1.0561  0.1992  1.2181
  156SAPE  H18Z17476   4.757   7.136   8.390 -0.1582 -0.6733 -0.5124
  157SAPE     N17477   4.500   5.865  10.947  0.2458 -0.1412  0.6464
  157SAPE   HN117478   4.506   5.833  11.046  0.8163  0.8835  0.9537
  157SAPE   HN217479   4.589   5.872  10.895  0.1048  1.0515  0.5356
  157SAPE   HN317480   4.453   5.957  10.929  2.8538  1.5356  2.0686
  157SAPE   C1217481   4.419   5.763  10.865 -0.9238 -0.3414  0.8440
  157SAPE  H12A17482   4.318   5.765  10.910 -0.7948  4.3686  1.2003
  157SAPE  H12B17483   4.467   5.663  10.876  0.7732  0.3412 -0.0269
  157SAPE   C1117484   4.429   5.805  10.716 -0.6051  0.4344 -0.3340
  157SAPE  H11A17485   4.368   5.733  10.657 -0.6930  0.3854 -0.1813
  157SAPE  H11B17486   4.530   5.795  10.671 -1.5233 -2.1330 -1.9366
  157SAPE     P17487   4.230   5.964  10.663  0.1110  0.2884 -0.1989
  157SAPE   O1317488   4.153   5.926  10.780 -0.6550 -0.0268 -0.0662
  157SAPE   O1417489   4.212   6.102  10.610 -0.3229 -0.4873 -0.1248
  157SAPE   O1217490   4.384   5.935  10.694 -0.1491  0.2190  0.5872
  157SAPE   O1117491   4.201   5.862  10.546  0.0200 -0.3689  0.1223
  157SAPE    C117492   4.265   5.867  10.419 -0.4459 -0.1332 -0.0053
  157SAPE    HA17493   4.351   5.937  10.411  0.3575 -0.9215  1.6705
  157SAPE    HB17494   4.309   5.766  10.405 -0.2905  0.0628 -1.0303
  157SAPE    C217495   4.179   5.886  10.290 -0.4031  0.3885 -0.2249
  157SAPE    HS17496   4.253   5.905  10.210  1.0054 -0.8403  0.7669
  157SAPE   O2117497   4.094   6.006  10.306 -0.7808  0.5757  0.2444
  157SAPE   C2117498   4.166   6.123  10.297 -0.6972  0.3171 -0.3995
  157SAPE   O2217499   4.287   6.131  10.305  0.0645 -0.0130 -0.2427
  157SAPE   C2217500   4.069   6.244  10.300  0.0085 -0.3703 -0.1105
  157SAPE   H2R17501   3.964   6.217  10.324 -1.3271  3.9045 -0.7298
  157SAPE   H2S17502   4.106   6.311  10.380  0.5421 -1.3876  0.5048
  157SAPE    C317503   4.093   5.764  10.263 -0.1382  0.1517  0.1536
  157SAPE    HX17504   4.040   5.741  10.358  1.9497 -0.2283  1.2567
  157SAPE    HY17505   4.150   5.676  10.226  1.1367  0.7346  0.6946
  157SAPE   O3117506   3.988   5.794  10.176 -0.2284 -0.0521 -0.3297
  157SAPE   C3117507   4.008   5.855  10.063 -0.9392 -0.4345  0.6304
  157SAPE   O3217508   4.115   5.887  10.011 -0.0563  0.1231  0.3470
  157SAPE   C3217509   3.872   5.880   9.990  0.2516 -0.1345  0.6411
  157SAPE   H2X17510   3.812   5.956  10.045 -1.8104  0.6626 -2.5820
  157SAPE   H2Y17511   3.817   5.784   9.983  0.1433  0.0135 -0.7700
  157SAPE   C2317512   4.081   6.319  10.156  0.6260  0.2822 -0.1789
  157SAPE   H3R17513   4.187   6.329  10.128  1.6705 -1.0816  2.9964
  157SAPE   H3S17514   4.047   6.424  10.171  1.8010  0.6569 -0.0991
  157SAPE   C2417515   3.998   6.257  10.034  0.3839  0.1241  0.2712
  157SAPE   H4R17516   4.037   6.154  10.024  1.4208  0.1724  3.3640
  157SAPE   H4S17517   4.037   6.319   9.950  0.3289 -1.0903 -0.6657
  157SAPE   C2517518   3.844   6.258  10.034 -0.7237 -0.4735  0.0704
  157SAPE   H5R17519   3.794   6.235  10.129  2.7868  1.7883  2.6101
  157SAPE   C2617520   3.763   6.270   9.924  0.9791 -0.4250 -0.4366
  157SAPE   H6R17521   3.653   6.264   9.933  0.9964 -1.8059 -0.9974
  157SAPE   C2717522   3.810   6.278   9.779  0.1022  0.4866  0.2380
  157SAPE   H7R17523   3.908   6.229   9.761 -0.2078 -0.1615  0.3082
  157SAPE   H7S17524   3.830   6.383   9.748 -0.1446 -0.3984 -3.1794
  157SAPE   C2817525   3.712   6.207   9.679  0.0844 -0.4174 -0.4451
  157SAPE   H8R17526   3.631   6.145   9.719 -1.2407  1.0671 -0.7564
  157SAPE   C2917527   3.728   6.205   9.545  0.3072 -0.3359  0.2453
  157SAPE   H9R17528   3.650   6.150   9.488 -0.8829  1.3428  0.2230
  157SAPE  C21017529   3.829   6.283   9.464  0.0361 -0.1540 -0.2622
  157SAPE  H10R17530   3.842   6.375   9.525  0.8620 -0.0584 -0.5675
  157SAPE  H10S17531   3.776   6.329   9.378 -1.8495 -0.9474  0.4418
  157SAPE  C21117532   3.957   6.217   9.428 -0.3427 -0.0195  0.5141
  157SAPE  H11R17533   3.991   6.136   9.494  0.3827  0.3141  0.5519
  157SAPE  C21217534   4.024   6.233   9.314 -0.9074 -0.0971  0.4929
  157SAPE  H12R17535   4.105   6.164   9.285  0.4408  1.2501  1.0387
  157SAPE  C21317536   3.987   6.329   9.204  0.1928 -0.5656  0.3918
  157SAPE  H13R17537   3.912   6.405   9.234 -0.7049 -0.5944 -1.6748
  157SAPE  H13S17538   3.940   6.267   9.125 -3.2367 -0.8795  2.5689
  157SAPE  C21417539   4.115   6.405   9.173  0.5700  0.6518 -0.7382
  157SAPE  H14R17540   4.149   6.481   9.246  1.8029  0.1307 -0.7542
  157SAPE  C21517541   4.185   6.396   9.062 -1.0312  0.3325 -0.5363
  157SAPE  H15R17542   4.287   6.436   9.067 -1.8575  2.4659 -0.1923
  157SAPE  C21617543   4.141   6.319   8.944 -0.1853 -0.2096 -0.4288
  157SAPE  H16R17544   4.073   6.378   8.879 -0.3017  1.2111  0.9391
  157SAPE  H16S17545   4.090   6.227   8.979 -1.4361  0.3757 -0.7172
  157SAPE  C21717546   4.259   6.259   8.852 -0.1169 -0.0538  0.0086
  157SAPE  H17R17547   4.212   6.189   8.780 -2.5945  2.2166 -0.6895
  157SAPE  H17S17548   4.323   6.200   8.921 -0.3292 -0.0446  0.2164
  157SAPE  C21817549   4.336   6.370   8.778  0.5276  0.0080 -0.2278
  157SAPE  H18R17550   4.418   6.320   8.723 -0.7827 -2.0641 -0.3709
  157SAPE  H18S17551   4.391   6.440   8.844  2.4686 -2.1198  0.4618
  157SAPE  C21917552   4.246   6.454   8.690 -0.1056 -0.7423  0.4376
  157SAPE  H19R17553   4.182   6.527   8.743  0.5612  0.5928 -0.5692
  157SAPE  H19S17554   4.180   6.377   8.643  2.0686 -2.5722  0.2615
  157SAPE  C22017555   4.321   6.527   8.580 -0.5216  0.0441  0.0030
  157SAPE  H20R17556   4.385   6.609   8.619 -1.2787  0.8741 -0.4841
  157SAPE  H20S17557   4.257   6.574   8.503  1.4434  0.0822 -1.6625
  157SAPE  H20T17558   4.388   6.457   8.527 -1.7649 -0.5130 -0.8287
  157SAPE   C3317559   3.887   5.935   9.842 -0.5798  0.3490  0.1336
  157SAPE   H3X17560   3.953   6.024   9.836  0.3051 -0.2498  0.8776
  157SAPE   H3Y17561   3.787   5.965   9.804  0.4043  1.5894 -1.5610
  157SAPE   C3417562   3.942   5.826   9.756 -0.0456  0.1072  0.4729
  157SAPE   H4X17563   3.864   5.748   9.744  0.1811  0.2634 -2.4712
  157SAPE   H4Y17564   4.032   5.777   9.798 -1.2046 -1.4945  1.1106
  157SAPE   C3517565   3.975   5.856   9.612  0.3731  0.7926  0.0742
  157SAPE   H5X17566   4.056   5.785   9.582  0.1150 -0.2232  1.7375
  157SAPE   H5Y17567   4.013   5.960   9.604  0.8615  0.6782  0.8580
  157SAPE   C3617568   3.874   5.828   9.505  0.3853  0.1759  0.0961
  157SAPE   H6X17569   3.785   5.891   9.523  0.6438  0.4108  0.5390
  157SAPE   H6Y17570   3.848   5.725   9.539 -0.9622  0.5209  0.0988
  157SAPE   C3717571   3.937   5.834   9.366 -0.2409 -0.5639 -0.1069
  157SAPE   H7X17572   3.969   5.939   9.348 -1.4637 -0.1671 -0.0028
  157SAPE   H7Y17573   3.860   5.801   9.292  1.6714 -2.0769 -1.4736
  157SAPE   C3817574   4.039   5.723   9.345  0.7032  0.1182 -0.0175
  157SAPE   H8X17575   4.006   5.642   9.413 -2.8848  0.6621 -1.0176
  157SAPE   H8Y17576   4.136   5.765   9.379 -0.1512  2.4406 -0.3875
  157SAPE   C3917577   4.056   5.654   9.208 -0.0373  0.7538 -0.3403
  157SAPE   H9X17578   3.971   5.583   9.199  0.3880  0.2144 -0.0567
  157SAPE   H9Y17579   4.150   5.596   9.210  0.1608  1.0655 -0.5930
  157SAPE  C31017580   4.055   5.749   9.078 -0.0197 -0.4575 -0.3811
  157SAPE  H10X17581   3.983   5.833   9.082 -0.0866 -0.4518 -1.5233
  157SAPE  H10Y17582   4.043   5.686   8.988 -0.0476 -0.3121 -0.4796
  157SAPE  C31117583   4.191   5.816   9.068 -0.3607 -0.7419  0.5451
  157SAPE  H11X17584   4.268   5.736   9.073 -1.5226 -1.8327  1.6200
  157SAPE  H11Y17585   4.207   5.879   9.158 -1.6907 -0.1532  0.3864
  157SAPE  C31217586   4.215   5.906   8.943  0.1580 -0.2338  0.8248
  157SAPE  H12X17587   4.316   5.951   8.953  1.1731 -1.8671 -1.5653
  157SAPE  H12Y17588   4.139   5.987   8.934 -0.7312 -1.3266 -1.7625
  157SAPE  C31317589   4.199   5.813   8.831 -0.3799 -0.4198 -0.8577
  157SAPE  H13X17590   4.097   5.771   8.815 -0.9196  0.7669 -0.5676
  157SAPE  H13Y17591   4.274   5.734   8.856 -1.2149 -0.9868 -0.0892
  157SAPE  C31417592   4.247   5.878   8.696 -0.2673  0.1759  0.5063
  157SAPE  H14X17593   4.354   5.899   8.717 -0.0732 -0.4735  0.1804
  157SAPE  H14Y17594   4.198   5.977   8.688 -0.6300 -0.1237 -1.2323
  157SAPE  C31517595   4.220   5.795   8.561 -0.6715  0.2855 -0.4858
  157SAPE  H15X17596   4.112   5.771   8.550 -0.6458 -0.9070  1.6057
  157SAPE  H15Y17597   4.271   5.697   8.579  0.5606  1.3709  2.1322
  157SAPE  C31617598   4.276   5.876   8.442 -0.0630 -0.1661 -0.3266
  157SAPE  H16X17599   4.267   5.828   8.343 -0.8227  0.1377 -0.4064
  157SAPE  H16Y17600   4.386   5.886   8.455 -0.2846 -0.2092  1.7461
  157SAPE  C31717601   4.216   6.018   8.415 -0.3189  1.3783 -0.0214
  157SAPE  H17X17602   4.183   6.058   8.514 -0.1113 -0.1796  0.6943
  157SAPE  H17Y17603   4.123   6.007   8.355 -0.1440 -0.4483  0.0075
  157SAPE  C31817604   4.320   6.115   8.353  0.2183  0.4424  0.5980
  157SAPE  H18X17605   4.365   6.067   8.264 -1.0962 -0.7800  0.5800
  157SAPE  H18Y17606   4.399   6.139   8.427  1.3766  1.7221 -1.0351
  157SAPE  H18Z17607   4.264   6.207   8.325  0.0885  1.1010  2.9300
  158SAPE     N17608   5.010   6.550  10.521  0.3007 -0.3448 -0.2317
  158SAPE   HN117609   4.908   6.568  10.522  0.2429 -0.6666  1.9918
  158SAPE   HN217610   5.017   6.447  10.531 -1.0600 -0.5299 -1.0231
  158SAPE   HN317611   5.046   6.582  10.613 -3.6287  2.3151  0.5004
  158SAPE   C1217612   5.096   6.615  10.407 -0.3614  0.5682  0.4587
  158SAPE  H12A17613   5.051   6.593  10.308 -0.2326 -1.1389  0.7651
  158SAPE  H12B17614   5.206   6.600  10.416 -0.5660  0.1435  2.3197
  158SAPE   C1117615   5.092   6.769  10.418 -0.3179 -1.1460 -1.1971
  158SAPE  H11A17616   4.989   6.806  10.400 -0.1875  0.8691  1.8854
  158SAPE  H11B17617   5.152   6.810  10.334 -1.4394  1.8802 -0.5714
  158SAPE     P17618   5.297   6.863  10.556  0.0401  0.2908 -0.1137
  158SAPE   O1317619   5.320   6.936  10.684 -0.2147 -0.0013  0.4038
  158SAPE   O1417620   5.386   6.746  10.540  0.0265  0.3705 -0.2251
  158SAPE   O1217621   5.146   6.828  10.538 -0.3064 -0.6951 -0.0236
  158SAPE   O1117622   5.334   6.961  10.437 -1.0288  0.5207 -1.0451
  158SAPE    C117623   5.280   7.090  10.437 -0.3702  0.1096 -0.0888
  158SAPE    HA17624   5.172   7.088  10.412 -0.9423 -1.7128  2.3700
  158SAPE    HB17625   5.291   7.143  10.534  0.5409 -1.7485  0.8516
  158SAPE    C217626   5.350   7.179  10.330 -1.8434 -0.3549  0.5764
  158SAPE    HS17627   5.303   7.279  10.322 -1.0509 -0.0067  0.2231
  158SAPE   O2117628   5.361   7.111  10.198  0.1536  0.3436  0.2012
  158SAPE   C2117629   5.251   7.087  10.136  0.4597 -0.2781 -0.7043
  158SAPE   O2217630   5.143   7.139  10.153 -0.1926  0.1916  0.1283
  158SAPE   C2217631   5.276   6.991  10.018  0.2735 -0.3598 -0.3435
  158SAPE   H2R17632   5.364   7.024   9.959  0.0985  1.5450  0.4521
  158SAPE   H2S17633   5.304   6.897  10.071  0.1712 -0.4246 -0.4057
  158SAPE    C317634   5.499   7.218  10.371  0.0962 -0.5958 -0.2671
  158SAPE    HX17635   5.554   7.122  10.382 -0.5349 -0.9889 -0.5256
  158SAPE    HY17636   5.495   7.268  10.471 -0.7334 -1.3028  0.0617
  158SAPE   O3117637   5.555   7.303  10.273 -0.6851 -0.4503  0.0708
  158SAPE   C3117638   5.681   7.346  10.284 -0.9023  0.4327  0.1393
  158SAPE   O3217639   5.745   7.324  10.385  0.1923  0.2415 -0.0083
  158SAPE   C3217640   5.710   7.432  10.162  0.4824 -0.1803 -0.4297
  158SAPE   H2X17641   5.701   7.539  10.192  0.9025 -0.8258  2.0870
  158SAPE   H2Y17642   5.657   7.400  10.070  2.9028  0.9315 -2.3073
  158SAPE   C2317643   5.152   6.975   9.931  0.3136 -0.3658 -0.4804
  158SAPE   H3R17644   5.124   7.063   9.870 -1.8595 -1.4902 -1.1497
  158SAPE   H3S17645   5.061   6.955   9.991  0.5648 -0.9400 -0.2804
  158SAPE   C2417646   5.160   6.863   9.827  0.1651 -0.0375 -0.0163
  158SAPE   H4R17647   5.080   6.857   9.749 -0.3667  1.6015  0.3886
  158SAPE   H4S17648   5.157   6.765   9.879  0.6718 -1.0083 -1.7730
  158SAPE   C2517649   5.285   6.880   9.755  0.5591  0.2741 -0.1625
  158SAPE   H5R17650   5.372   6.834   9.804  0.1941 -1.9465 -1.5347
  158SAPE   C2617651   5.307   6.937   9.631  0.4675  0.4701 -0.4939
  158SAPE   H6R17652   5.411   6.934   9.597  0.5056  1.5009 -0.4938
  158SAPE   C2717653   5.215   7.009   9.532  0.3943  0.2777  1.1098
  158SAPE   H7R17654   5.111   7.000   9.571  0.2477  2.3477  1.2767
  158SAPE   H7S17655   5.211   6.961   9.432  3.1440  1.7510  0.2359
  158SAPE   C2817656   5.234   7.159   9.533  0.6707 -0.9182  0.0795
  158SAPE   H8R17657   5.246   7.205   9.632 -0.8847 -1.2348  0.4169
  158SAPE   C2917658   5.239   7.241   9.420 -1.3190 -0.0597 -0.1476
  158SAPE   H9R17659   5.275   7.344   9.430 -1.0240 -0.3405  1.8273
  158SAPE  C21017660   5.217   7.197   9.278 -0.0709  0.2182 -1.3877
  158SAPE  H10R17661   5.134   7.123   9.269  1.7696 -1.8961 -1.3350
  158SAPE  H10S17662   5.305   7.152   9.228  0.3791 -0.9253  0.4002
  158SAPE  C21117663   5.159   7.320   9.206 -0.0933  0.0629 -0.4223
  158SAPE  H11R17664   5.124   7.402   9.271  3.5765  0.7576  0.8081
  158SAPE  C21217665   5.149   7.339   9.072  0.0883 -0.8315 -0.2386
  158SAPE  H12R17666   5.112   7.433   9.029 -0.9092 -1.0259  0.1725
  158SAPE  C21317667   5.195   7.253   8.969  0.0910 -0.1779  0.1103
  158SAPE  H13R17668   5.177   7.147   8.996  0.7462 -0.8232 -1.8652
  158SAPE  H13S17669   5.304   7.258   8.948 -0.1663  0.4077 -1.1462
  158SAPE  C21417670   5.134   7.261   8.829 -0.7450 -0.4522  0.1727
  158SAPE  H14R17671   5.028   7.235   8.809 -1.7605  2.8665  0.8955
  158SAPE  C21517672   5.207   7.321   8.728 -0.5201 -0.4346  0.4796
  158SAPE  H15R17673   5.165   7.322   8.626  2.0827 -1.2277 -0.6562
  158SAPE  C21617674   5.347   7.379   8.724  0.0112  0.2667  0.0915
  158SAPE  H16R17675   5.421   7.321   8.783  0.1557  0.8440  0.4807
  158SAPE  H16S17676   5.350   7.472   8.784 -0.5186  0.5173 -0.2586
  158SAPE  C21717677   5.386   7.394   8.579 -0.5578 -0.5667 -0.0151
  158SAPE  H17R17678   5.469   7.467   8.572 -1.7306  0.5922 -2.0956
  158SAPE  H17S17679   5.305   7.436   8.516  0.0286  1.1319  0.3511
  158SAPE  C21817680   5.437   7.250   8.531 -0.4992 -0.5992  0.1884
  158SAPE  H18R17681   5.437   7.263   8.420  0.8102  1.9424  0.4561
  158SAPE  H18S17682   5.360   7.174   8.557 -0.4772 -0.6624  0.0708
  158SAPE  C21917683   5.582   7.210   8.563 -0.0811 -0.0977  0.7457
  158SAPE  H19R17684   5.588   7.208   8.674 -0.4583 -1.6420  0.7539
  158SAPE  H19S17685   5.649   7.280   8.509 -0.5006 -1.8215 -2.1342
  158SAPE  C22017686   5.617   7.067   8.507  0.2153  0.3682 -0.0536
  158SAPE  H20R17687   5.553   6.984   8.546 -0.1746  0.8906  0.4208
  158SAPE  H20S17688   5.724   7.038   8.517  0.0520  0.4984  2.5567
  158SAPE  H20T17689   5.602   7.076   8.397 -0.7052  3.0417  0.2721
  158SAPE   C3317690   5.866   7.423  10.130  0.0998 -0.3881  0.1757
  158SAPE   H3X17691   5.895   7.317  10.145  1.2078 -0.3272 -1.4169
  158SAPE   H3Y17692   5.913   7.495  10.200 -0.2550  1.0745 -1.0550
  158SAPE   C3417693   5.898   7.480   9.988  0.0874  0.4828  0.3962
  158SAPE   H4X17694   5.846   7.434   9.902  0.0158  0.4089  0.4791
  158SAPE   H4Y17695   6.007   7.464   9.975 -0.2215 -0.3443 -1.2366
  158SAPE   C3517696   5.871   7.633   9.970 -0.6565  0.0380 -0.1938
  158SAPE   H5X17697   5.892   7.673  10.071 -0.3755 -0.7748  0.0714
  158SAPE   H5Y17698   5.762   7.640   9.947 -0.7982  1.3207  0.8378
  158SAPE   C3617699   5.964   7.695   9.861  0.5187  1.0029 -0.1385
  158SAPE   H6X17700   6.070   7.681   9.890  0.3342  0.8191  0.4490
  158SAPE   H6Y17701   5.939   7.803   9.868 -1.0230  0.6973 -0.6740
  158SAPE   C3717702   5.943   7.641   9.719  0.8483  0.3235  0.7582
  158SAPE   H7X17703   5.834   7.631   9.704  0.8361  2.0124 -0.5139
  158SAPE   H7Y17704   5.991   7.541   9.715 -0.9397 -0.5102 -0.1408
  158SAPE   C3817705   6.001   7.731   9.609  0.5872 -0.4671  0.2075
  158SAPE   H8X17706   6.112   7.725   9.600  0.6274  0.2354  0.2154
  158SAPE   H8Y17707   5.971   7.836   9.628 -0.3943 -0.4327 -1.4116
  158SAPE   C3917708   5.952   7.694   9.468 -0.2831  0.4177  0.2695
  158SAPE   H9X17709   5.841   7.696   9.470 -0.2490  0.7947  2.1288
  158SAPE   H9Y17710   5.974   7.590   9.434 -2.0227  0.3756 -0.8137
  158SAPE  C31017711   6.001   7.791   9.366 -0.7535 -0.4245 -0.1137
  158SAPE  H10X17712   6.112   7.799   9.365 -0.5684 -1.8267  3.0969
  158SAPE  H10Y17713   5.961   7.892   9.389 -0.4561 -0.0009 -1.3763
  158SAPE  C31117714   5.962   7.775   9.219 -0.4454  0.3721 -0.5694
  158SAPE  H11X17715   5.852   7.758   9.216 -0.3877 -0.2158  0.3053
  158SAPE  H11Y17716   6.008   7.680   9.183 -2.7440 -0.5356 -1.2303
  158SAPE  C31217717   5.996   7.887   9.123 -0.0239  0.4102  0.1472
  158SAPE  H12X17718   6.102   7.916   9.137 -0.0203 -0.1815  1.3938
  158SAPE  H12Y17719   5.931   7.972   9.154 -0.9640 -0.0989 -0.4027
  158SAPE  C31317720   5.969   7.842   8.977 -0.2304 -0.6450  0.1408
  158SAPE  H13X17721   5.864   7.807   8.965 -0.1329 -1.2096  0.8687
  158SAPE  H13Y17722   6.035   7.758   8.947 -1.1621 -0.8774 -1.2917
  158SAPE  C31417723   6.022   7.948   8.877  0.1575 -0.0035 -0.2125
  158SAPE  H14X17724   6.013   7.896   8.780 -0.6831  0.0305 -0.1524
  158SAPE  H14Y17725   6.130   7.967   8.895  0.5257 -0.8003 -1.5555
  158SAPE  C31517726   5.932   8.074   8.875 -0.5327 -0.0505  0.1774
  158SAPE  H15X17727   5.909   8.110   8.977 -0.0265  1.0908 -0.0942
  158SAPE  H15Y17728   5.837   8.058   8.819  0.8217 -0.8629 -1.9406
  158SAPE  C31617729   6.021   8.191   8.819  0.1847  0.5391 -0.1188
  158SAPE  H16X17730   5.956   8.263   8.765  0.8941  0.1636 -1.4958
  158SAPE  H16Y17731   6.101   8.146   8.757 -1.5626  0.5057 -2.4341
  158SAPE  C31717732   6.104   8.259   8.922 -0.1489  0.7056 -0.0102
  158SAPE  H17X17733   6.182   8.326   8.880  0.5807  0.4405  0.8911
  158SAPE  H17Y17734   6.165   8.193   8.987  0.3979  1.8175  0.6121
  158SAPE  C31817735   6.032   8.354   9.019  0.4314 -0.3065 -0.1537
  158SAPE  H18X17736   6.088   8.401   9.103 -0.1618 -0.4573  0.3383
  158SAPE  H18Y17737   5.948   8.296   9.065 -0.6525  2.0290  0.9357
  158SAPE  H18Z17738   5.978   8.434   8.964 -2.2463 -1.8142  0.2019
  159SAPE     N17739   3.701   3.725   6.522  0.5114 -0.5224  0.4899
  159SAPE   HN117740   3.639   3.723   6.606 -0.0554  2.4777  0.1877
  159SAPE   HN217741   3.759   3.638   6.525  2.0570  0.5288  1.8675
  159SAPE   HN317742   3.757   3.812   6.535  0.8328 -0.7596  0.7192
  159SAPE   C1217743   3.642   3.749   6.388  0.0525 -1.2941  0.3057
  159SAPE  H12A17744   3.579   3.659   6.371  0.3970 -1.4630 -0.0875
  159SAPE  H12B17745   3.721   3.747   6.311  0.2322 -2.7613  0.5170
  159SAPE   C1117746   3.554   3.878   6.383 -0.0456  0.2409 -0.3308
  159SAPE  H11A17747   3.474   3.854   6.457  0.9651  1.0099  1.0380
  159SAPE  H11B17748   3.510   3.886   6.281  0.2594  1.5177 -0.3704
  159SAPE     P17749   3.568   4.137   6.398 -0.0074  0.2280  0.0225
  159SAPE   O1317750   3.655   4.214   6.308  0.2885  0.0506  0.7370
  159SAPE   O1417751   3.433   4.115   6.352 -0.0223 -0.3492  0.0693
  159SAPE   O1217752   3.637   3.990   6.416 -0.2931 -0.7214  0.1322
  159SAPE   O1117753   3.569   4.192   6.544 -0.5761 -0.4904  0.0363
  159SAPE    C117754   3.679   4.175   6.626  0.2681  0.8059 -0.1651
  159SAPE    HA17755   3.765   4.126   6.575  0.2380  1.6190 -1.0018
  159SAPE    HB17756   3.713   4.273   6.665  1.0934  0.3083  0.3890
  159SAPE    C217757   3.645   4.084   6.751 -0.9136 -0.4647 -0.6394
  159SAPE    HS17758   3.610   3.989   6.705  0.1824 -0.6227 -1.1656
  159SAPE   O2117759   3.543   4.148   6.837 -0.3401 -0.0024  0.6728
  159SAPE   C2117760   3.447   4.063   6.878  0.1692 -0.0389 -0.3964
  159SAPE   O2217761   3.429   3.950   6.839 -0.3579  0.2236 -0.2198
  159SAPE   C2217762   3.356   4.129   6.982 -0.9301 -0.0437 -0.1596
  159SAPE   H2R17763   3.409   4.218   7.021 -1.6042 -0.6752  2.2680
  159SAPE   H2S17764   3.259   4.150   6.933 -0.2727 -0.5217 -1.6912
  159SAPE    C317765   3.768   4.047   6.843 -0.4346 -0.2301 -0.4765
  159SAPE    HX17766   3.813   4.140   6.883 -1.8164 -0.7596  2.4210
  159SAPE    HY17767   3.847   3.991   6.788  0.0270 -0.7151  0.6531
  159SAPE   O3117768   3.729   3.969   6.964 -0.2734  0.2319 -0.1785
  159SAPE   C3117769   3.702   3.844   6.933  0.0391  0.1594  0.5961
  159SAPE   O3217770   3.705   3.799   6.823  0.1444 -0.6976 -0.1180
  159SAPE   C3217771   3.657   3.773   7.055 -1.2423  0.0601 -0.3218
  159SAPE   H2X17772   3.553   3.746   7.029 -0.8828 -1.0018 -0.7146
  159SAPE   H2Y17773   3.647   3.854   7.130  0.8962 -0.0858  0.1742
  159SAPE   C2317774   3.346   4.021   7.102 -0.5119 -0.9836 -0.6967
  159SAPE   H3R17775   3.335   3.916   7.069 -2.6923 -0.5501 -1.4354
  159SAPE   H3S17776   3.249   4.035   7.156  1.2489 -0.7888  2.5486
  159SAPE   C2417777   3.460   4.032   7.210  0.3960  0.4835  0.5092
  159SAPE   H4R17778   3.440   4.131   7.255  1.7049  0.9945 -0.0102
  159SAPE   H4S17779   3.563   4.035   7.169  1.3439 -1.4163  2.5762
  159SAPE   C2517780   3.444   3.920   7.308  0.1203 -0.2508 -0.5351
  159SAPE   H5R17781   3.369   3.840   7.300  0.3568 -0.5253 -0.0304
  159SAPE   C2617782   3.502   3.915   7.429  0.3771 -0.3198 -0.6577
  159SAPE   H6R17783   3.479   3.841   7.507 -0.6558  0.8009  0.1182
  159SAPE   C2717784   3.586   4.025   7.493 -0.5711 -0.0127 -0.8803
  159SAPE   H7R17785   3.518   4.076   7.565  1.7638 -0.8907  2.0829
  159SAPE   H7S17786   3.626   4.105   7.428 -1.5868  0.4859 -0.8953
  159SAPE   C2817787   3.700   3.980   7.569 -0.7181  0.4810 -0.0028
  159SAPE   H8R17788   3.793   3.966   7.512  0.4589  1.7136  1.5864
  159SAPE   C2917789   3.715   3.966   7.700  0.2946  0.7024  0.1838
  159SAPE   H9R17790   3.809   3.923   7.737  0.3142 -0.3617 -1.0656
  159SAPE  C21017791   3.602   3.987   7.802 -0.3676 -0.2696  0.5293
  159SAPE  H10R17792   3.542   4.079   7.785  2.0512  1.6960  2.3731
  159SAPE  H10S17793   3.663   4.009   7.891  0.6274  1.8733 -0.6517
  159SAPE  C21117794   3.510   3.867   7.820  0.2365 -0.1873  0.0717
  159SAPE  H11R17795   3.533   3.777   7.761 -0.4305  0.1703 -0.7379
  159SAPE  C21217796   3.388   3.878   7.885 -0.3386  0.6412  0.2342
  159SAPE  H12R17797   3.318   3.794   7.882 -1.3294  1.4967 -1.8384
  159SAPE  C21317798   3.332   3.999   7.950  1.0128 -0.4446  0.1995
  159SAPE  H13R17799   3.258   4.046   7.882 -0.5722 -1.3445  1.2695
  159SAPE  H13S17800   3.415   4.071   7.970  1.9428 -0.9549 -1.7387
  159SAPE  C21417801   3.249   3.964   8.067  0.4017 -0.2260 -0.5096
  159SAPE  H14R17802   3.141   3.953   8.048 -0.0805  1.2429  1.2539
  159SAPE  C21517803   3.290   3.956   8.197 -0.8441  0.1342  0.0011
  159SAPE  H15R17804   3.215   3.928   8.273 -0.7993  0.5043  0.1807
  159SAPE  C21617805   3.426   3.974   8.244  0.8170 -0.3270  0.3395
  159SAPE  H16R17806   3.417   4.024   8.343 -0.6081  1.0281 -0.4594
  159SAPE  H16S17807   3.486   4.040   8.180 -2.6581  1.2232 -1.4439
  159SAPE  C21717808   3.499   3.840   8.260 -0.0257  0.3652  0.2194
  159SAPE  H17R17809   3.606   3.850   8.233 -0.4841  0.8641 -1.4466
  159SAPE  H17S17810   3.472   3.764   8.184  3.7592  1.2543 -2.1588
  159SAPE  C21817811   3.486   3.785   8.404 -0.1887  0.4071  0.3532
  159SAPE  H18R17812   3.521   3.680   8.400  1.4866  0.9000  1.1626
  159SAPE  H18S17813   3.383   3.771   8.442 -0.3790  2.0208  0.4923
  159SAPE  C21917814   3.584   3.845   8.510  0.0367  0.1317  0.0214
  159SAPE  H19R17815   3.528   3.932   8.551 -1.3590  0.0684 -1.6661
  159SAPE  H19S17816   3.677   3.882   8.461  1.1446 -3.2501 -0.5201
  159SAPE  C22017817   3.619   3.747   8.626 -0.1605  0.1907 -0.0186
  159SAPE  H20R17818   3.530   3.693   8.666  1.0748 -1.6105  0.3315
  159SAPE  H20S17819   3.663   3.812   8.705  2.2267  0.4720 -1.5283
  159SAPE  H20T17820   3.687   3.670   8.586 -0.3162  0.7558 -1.4112
  159SAPE   C3317821   3.733   3.652   7.111  0.0065 -0.4483 -0.4704
  159SAPE   H3X17822   3.722   3.568   7.038 -1.3603 -1.0218  0.3639
  159SAPE   H3Y17823   3.687   3.618   7.206  0.3344  0.4788  0.0229
  159SAPE   C3417824   3.877   3.694   7.146 -0.2140  0.5351  0.3309
  159SAPE   H4X17825   3.923   3.732   7.052  0.2617 -2.9397 -0.9127
  159SAPE   H4Y17826   3.924   3.598   7.175  1.1753  1.0020 -0.3341
  159SAPE   C3517827   3.870   3.783   7.266 -0.4745  0.0616  0.0069
  159SAPE   H5X17828   3.811   3.736   7.347  0.4656  1.0334  1.2670
  159SAPE   H5Y17829   3.822   3.879   7.234 -0.3558 -0.1481 -0.8152
  159SAPE   C3617830   4.017   3.814   7.304  0.3709  0.6026  0.6088
  159SAPE   H6X17831   4.013   3.886   7.389  2.2534  1.2570  0.1716
  159SAPE   H6Y17832   4.071   3.864   7.221 -1.6440  2.0228  0.1284
  159SAPE   C3717833   4.102   3.694   7.354 -0.1413 -0.6335  0.2765
  159SAPE   H7X17834   4.107   3.615   7.276 -2.1845 -1.3922  0.8618
  159SAPE   H7Y17835   4.040   3.638   7.427 -0.2569 -0.5497  0.2430
  159SAPE   C3817836   4.240   3.722   7.408 -0.2528 -0.4843  0.1163
  159SAPE   H8X17837   4.246   3.781   7.502  1.4176  1.7755 -1.3589
  159SAPE   H8Y17838   4.300   3.782   7.336 -0.3624 -2.1139 -1.3735
  159SAPE   C3917839   4.315   3.590   7.432 -0.2927  0.1116 -0.0654
  159SAPE   H9X17840   4.305   3.535   7.336  1.0070 -1.3754  0.6114
  159SAPE   H9Y17841   4.268   3.520   7.505  0.2110  0.4622  0.6009
  159SAPE  C31017842   4.467   3.614   7.480 -0.1509  0.9839 -0.7518
  159SAPE  H10X17843   4.506   3.695   7.414  0.6544  1.6326  0.4846
  159SAPE  H10Y17844   4.518   3.515   7.470  0.9088  1.2276  1.7643
  159SAPE  C31117845   4.485   3.652   7.627  0.6053 -1.4489 -0.3128
  159SAPE  H11X17846   4.411   3.733   7.643  0.1124 -1.6899 -1.3500
  159SAPE  H11Y17847   4.587   3.691   7.647  0.2688 -0.7512  0.0505
  159SAPE  C31217848   4.468   3.526   7.713 -0.3425  0.4256  0.3110
  159SAPE  H12X17849   4.552   3.458   7.686  0.4204 -0.2253  4.0357
  159SAPE  H12Y17850   4.375   3.472   7.685 -0.3058  1.3040 -1.5462
  159SAPE  C31317851   4.458   3.560   7.862 -0.7191  0.2974 -0.5284
  159SAPE  H13X17852   4.357   3.601   7.880 -1.9354 -1.8758 -2.2122
  159SAPE  H13Y17853   4.542   3.633   7.870 -0.4389  0.1058 -1.6047
  159SAPE  C31417854   4.481   3.444   7.956 -0.8671  0.1703  0.8282
  159SAPE  H14X17855   4.589   3.420   7.946 -1.0861 -0.7049  0.5193
  159SAPE  H14Y17856   4.423   3.350   7.943  0.1258 -0.4178  0.6189
  159SAPE  C31517857   4.434   3.476   8.095 -0.4319 -0.1665 -0.0592
  159SAPE  H15X17858   4.326   3.452   8.103 -0.8359  2.0412  1.8319
  159SAPE  H15Y17859   4.443   3.587   8.106 -0.7505  0.2725 -3.6829
  159SAPE  C31617860   4.523   3.418   8.209  0.2385 -0.0585  0.5580
  159SAPE  H16X17861   4.631   3.430   8.190  0.8921 -1.0756  3.4351
  159SAPE  H16Y17862   4.507   3.309   8.216  1.3905 -0.4518 -2.2864
  159SAPE  C31717863   4.493   3.485   8.349  0.1521 -0.1575 -0.2679
  159SAPE  H17X17864   4.543   3.584   8.340  0.5692 -0.5023 -1.9323
  159SAPE  H17Y17865   4.561   3.446   8.428  0.3222 -0.6217 -0.6450
  159SAPE  C31817866   4.347   3.470   8.390 -0.1380  0.8708  0.3793
  159SAPE  H18X17867   4.289   3.537   8.324 -1.9795 -2.2295 -1.2621
  159SAPE  H18Y17868   4.343   3.503   8.496  1.1555  1.1085  0.3598
  159SAPE  H18Z17869   4.305   3.367   8.387 -1.2251  1.3528 -3.6087
  160SAPE     N17870   1.833   4.517   6.278  0.2419 -0.2991  0.3727
  160SAPE   HN117871   1.874   4.582   6.208 -1.1700 -0.0189 -0.2189
  160SAPE   HN217872   1.803   4.427   6.233 -1.5895 -0.3539  1.6598
  160SAPE   HN317873   1.747   4.563   6.314 -0.0715  0.7718 -1.6711
  160SAPE   C1217874   1.928   4.486   6.393 -0.4838  0.1319 -0.6922
  160SAPE  H12A17875   1.998   4.405   6.362  0.1620 -0.0482  1.1679
  160SAPE  H12B17876   1.867   4.430   6.467  1.1389 -1.7221 -0.7147
  160SAPE   C1117877   1.992   4.615   6.463 -0.1021 -0.2044 -0.6970
  160SAPE  H11A17878   2.048   4.580   6.553 -2.5224 -1.2565  0.4484
  160SAPE  H11B17879   1.903   4.666   6.506  1.2424  1.4142  0.1815
  160SAPE     P17880   2.225   4.670   6.355 -0.4301 -0.1224  0.2414
  160SAPE   O1317881   2.240   4.530   6.312 -0.5072 -0.1901  0.2052
  160SAPE   O1417882   2.266   4.776   6.264 -0.3483 -0.2030 -0.2839
  160SAPE   O1217883   2.073   4.693   6.374 -0.4995  0.0569  0.5926
  160SAPE   O1117884   2.280   4.693   6.498 -0.6262 -0.4895  0.3968
  160SAPE    C117885   2.245   4.816   6.557  0.3459  0.6173  0.1252
  160SAPE    HA17886   2.278   4.907   6.501  2.8956  0.0772  0.6807
  160SAPE    HB17887   2.140   4.823   6.591  0.0080 -1.0899 -0.5170
  160SAPE    C217888   2.340   4.841   6.683  0.0860 -0.3483  0.1336
  160SAPE    HS17889   2.444   4.830   6.647  0.0728 -0.6171  0.1785
  160SAPE   O2117890   2.301   4.743   6.784 -0.2063 -0.4056 -0.0783
  160SAPE   C2117891   2.400   4.721   6.867  0.4024 -0.0067 -0.0828
  160SAPE   O2217892   2.517   4.759   6.854  0.2599 -0.3461  0.3520
  160SAPE   C2217893   2.343   4.636   6.979 -0.1110 -1.1095 -0.7644
  160SAPE   H2R17894   2.237   4.605   6.964  0.5193 -2.9731 -1.4553
  160SAPE   H2S17895   2.394   4.538   6.974  1.5482 -0.2138 -1.4582
  160SAPE    C317896   2.317   4.993   6.736 -0.2194  0.5751 -0.0994
  160SAPE    HX17897   2.210   5.014   6.755 -0.3572 -1.0228  1.0210
  160SAPE    HY17898   2.336   5.067   6.655 -0.1070  1.1177  0.4175
  160SAPE   O3117899   2.391   5.028   6.856  0.2324  0.5879 -0.1034
  160SAPE   C3117900   2.509   5.080   6.839  0.0508 -0.2835 -0.7567
  160SAPE   O3217901   2.571   5.081   6.730  0.4428  0.2699 -0.5974
  160SAPE   C3217902   2.572   5.124   6.970  0.0019  0.8075 -0.3829
  160SAPE   H2X17903   2.491   5.165   7.033  0.4074 -0.7052  1.1560
  160SAPE   H2Y17904   2.642   5.205   6.938 -0.3499  0.9348 -0.8321
  160SAPE   C2317905   2.359   4.707   7.115  0.1359  0.4057 -0.1710
  160SAPE   H3R17906   2.466   4.736   7.128 -0.0149  0.2570  1.5507
  160SAPE   H3S17907   2.338   4.640   7.201  1.7090  1.8837  1.4315
  160SAPE   C2417908   2.267   4.833   7.137  0.0103 -0.1184 -0.3751
  160SAPE   H4R17909   2.192   4.824   7.056 -0.6665  1.7769  0.0324
  160SAPE   H4S17910   2.320   4.922   7.097  2.7290 -1.1527  0.8106
  160SAPE   C2517911   2.199   4.845   7.271  0.1524 -0.4704  0.0748
  160SAPE   H5R17912   2.121   4.769   7.288 -0.9677  0.8219  0.7589
  160SAPE   C2617913   2.213   4.938   7.367 -0.5698  0.2409 -0.2587
  160SAPE   H6R17914   2.152   4.923   7.457  0.0523 -1.0065 -0.0305
  160SAPE   C2717915   2.304   5.057   7.357 -0.4579 -0.9941  0.6010
  160SAPE   H7R17916   2.368   5.044   7.266 -2.1632  0.5170 -0.8568
  160SAPE   H7S17917   2.367   5.075   7.446 -1.4199  1.7546  0.7770
  160SAPE   C2817918   2.225   5.182   7.329  0.7472 -0.1751  0.0708
  160SAPE   H8R17919   2.175   5.189   7.231  0.7506  1.1496  0.1504
  160SAPE   C2917920   2.192   5.279   7.421 -0.1282  0.8134 -0.2932
  160SAPE   H9R17921   2.137   5.366   7.381  1.1134  1.1915 -1.1855
  160SAPE  C21017922   2.235   5.282   7.564 -0.2573  0.0943 -0.1345
  160SAPE  H10R17923   2.275   5.383   7.587 -3.6611  0.8111  3.0182
  160SAPE  H10S17924   2.311   5.209   7.598  1.4428  2.1923  0.6697
  160SAPE  C21117925   2.116   5.247   7.655  0.2265  0.4573 -0.0262
  160SAPE  H11R17926   2.016   5.220   7.618  0.0548  2.7567 -1.3330
  160SAPE  C21217927   2.133   5.245   7.791  0.5272  0.6211  0.3288
  160SAPE  H12R17928   2.049   5.219   7.857  1.7655 -1.0928  1.2633
  160SAPE  C21317929   2.262   5.268   7.870 -0.1694 -0.0301  0.1016
  160SAPE  H13R17930   2.246   5.365   7.922  0.3128  0.9587 -1.5113
  160SAPE  H13S17931   2.349   5.290   7.803 -0.8251  1.8811 -0.1734
  160SAPE  C21417932   2.299   5.153   7.961 -0.3099 -0.1511  0.5551
  160SAPE  H14R17933   2.298   5.057   7.908  0.4478  0.3377 -0.3592
  160SAPE  C21517934   2.331   5.154   8.097  0.1580  0.1274 -0.2053
  160SAPE  H15R17935   2.358   5.060   8.147 -0.1345  1.0424  1.6977
  160SAPE  C21617936   2.340   5.282   8.186 -0.2114 -0.5448  0.2652
  160SAPE  H16R17937   2.350   5.373   8.124 -1.6344 -1.1968 -0.9395
  160SAPE  H16S17938   2.435   5.274   8.243 -0.6643 -5.0144  0.5852
  160SAPE  C21717939   2.223   5.308   8.285  0.3878  0.0837 -0.0273
  160SAPE  H17R17940   2.123   5.320   8.237 -0.1389 -2.7663  0.2687
  160SAPE  H17S17941   2.245   5.400   8.344  3.6471  0.6388 -2.0398
  160SAPE  C21817942   2.213   5.203   8.397  0.0807  0.1657 -0.0747
  160SAPE  H18R17943   2.316   5.207   8.438 -0.2858  2.8597  0.6663
  160SAPE  H18S17944   2.209   5.103   8.349  3.2422  0.5597 -1.2942
  160SAPE  C21917945   2.109   5.230   8.513  0.3635  0.3312  0.2423
  160SAPE  H19R17946   2.102   5.132   8.564 -1.2548 -1.0588 -2.4939
  160SAPE  H19S17947   2.009   5.259   8.473 -0.4352 -1.1399  1.1200
  160SAPE  C22017948   2.155   5.338   8.614  0.0057 -0.0347 -0.1979
  160SAPE  H20R17949   2.141   5.439   8.570 -1.0743 -0.0070  0.1890
  160SAPE  H20S17950   2.260   5.326   8.647  0.9096  3.2511 -1.7009
  160SAPE  H20T17951   2.096   5.359   8.706  0.8429  0.2394  0.2845
  160SAPE   C3317952   2.655   5.013   7.035 -0.4797 -0.4516  0.6197
  160SAPE   H3X17953   2.729   4.978   6.960 -1.3131 -3.0607  0.9406
  160SAPE   H3Y17954   2.590   4.925   7.058 -1.8998  0.1127 -1.0732
  160SAPE   C3417955   2.728   5.068   7.155 -0.2442  0.2824  0.2606
  160SAPE   H4X17956   2.775   5.167   7.139 -1.4707  1.0789  1.4464
  160SAPE   H4Y17957   2.812   4.998   7.175 -1.3424 -0.7852  1.2092
  160SAPE   C3517958   2.650   5.065   7.286  0.3773  0.5497  0.3219
  160SAPE   H5X17959   2.592   4.973   7.311 -1.7449  2.0445  1.0214
  160SAPE   H5Y17960   2.581   5.151   7.295 -1.2292 -0.7490  0.7772
  160SAPE   C3617961   2.746   5.086   7.406 -0.3734 -0.3402  0.3887
  160SAPE   H6X17962   2.795   5.185   7.391 -0.5821 -0.2397  0.3562
  160SAPE   H6Y17963   2.824   5.007   7.398  1.8523  2.0621 -2.9725
  160SAPE   C3717964   2.676   5.085   7.537 -0.1840 -0.5098 -0.7667
  160SAPE   H7X17965   2.610   4.996   7.550  0.9725 -1.3716 -0.6623
  160SAPE   H7Y17966   2.604   5.169   7.535  0.4112  0.0730  1.0102
  160SAPE   C3817967   2.775   5.092   7.658  0.3817 -0.2622 -0.0448
  160SAPE   H8X17968   2.843   5.176   7.633 -0.5910  1.4895  2.9886
  160SAPE   H8Y17969   2.830   4.996   7.665  0.3787 -0.3316 -0.8567
  160SAPE   C3917970   2.719   5.129   7.791 -0.7656  0.1637 -0.0127
  160SAPE   H9X17971   2.640   5.065   7.836  1.3364 -1.5013  1.3895
  160SAPE   H9Y17972   2.668   5.226   7.768 -0.7545  0.3861  0.8750
  160SAPE  C31017973   2.831   5.180   7.889  0.5430 -0.1256 -0.3156
  160SAPE  H10X17974   2.868   5.279   7.855  0.8059 -0.3173 -0.5915
  160SAPE  H10Y17975   2.920   5.116   7.873  4.5680  4.4895  2.2494
  160SAPE  C31117976   2.778   5.174   8.029  0.6175  0.0817 -0.5023
  160SAPE  H11X17977   2.745   5.071   8.056 -0.8365  1.4651  3.3124
  160SAPE  H11Y17978   2.687   5.236   8.038  0.8567  0.5073 -0.9838
  160SAPE  C31217979   2.885   5.190   8.147  0.3720 -0.5414 -0.2246
  160SAPE  H12X17980   2.902   5.298   8.164 -2.3839  0.0283 -0.7880
  160SAPE  H12Y17981   2.981   5.146   8.114  0.0450 -0.0261 -1.8936
  160SAPE  C31317982   2.849   5.118   8.279  0.0131 -0.4615  0.1583
  160SAPE  H13X17983   2.819   5.016   8.246 -0.6580 -1.0501  2.5527
  160SAPE  H13Y17984   2.755   5.156   8.323  0.4824 -0.5401  1.2477
  160SAPE  C31417985   2.964   5.124   8.381 -1.2095 -0.0846  0.1308
  160SAPE  H14X17986   3.062   5.100   8.335 -0.4201 -0.4794  1.9728
  160SAPE  H14Y17987   2.940   5.043   8.454  0.7392  0.1179  1.0086
  160SAPE  C31517988   2.978   5.254   8.466  0.2157 -0.7268 -1.2406
  160SAPE  H15X17989   3.066   5.227   8.529  0.1244  0.7810 -0.4540
  160SAPE  H15Y17990   2.887   5.249   8.529  0.5512  0.1786 -0.6764
  160SAPE  C31617991   2.988   5.388   8.400  0.1245 -0.1082 -0.5882
  160SAPE  H16X17992   2.899   5.407   8.337 -0.9141 -0.2364  0.8260
  160SAPE  H16Y17993   3.076   5.386   8.332  0.7933 -2.7526  0.2801
  160SAPE  C31717994   3.009   5.494   8.507  0.1749 -0.5347 -0.6705
  160SAPE  H17X17995   3.110   5.486   8.550 -0.2678  0.5418  0.6010
  160SAPE  H17Y17996   2.955   5.474   8.601  3.3370 -2.8102  0.7476
  160SAPE  C31817997   2.976   5.642   8.467 -0.4436 -0.1412 -0.2827
  160SAPE  H18X17998   2.998   5.716   8.546  0.9280 -0.6748 -0.1581
  160SAPE  H18Y17999   2.868   5.654   8.445 -0.9539 -0.1765  2.0762
  160SAPE  H18Z18000   3.040   5.663   8.378 -0.8772 -0.8365 -0.7673
  161SAPE     N18001   5.357   3.613   6.341  0.0665 -0.2486 -0.2252
  161SAPE   HN118002   5.373   3.652   6.246  2.2493 -0.7297 -0.0669
  161SAPE   HN218003   5.267   3.649   6.380  0.5369  1.7054 -0.8602
  161SAPE   HN318004   5.435   3.659   6.391 -0.9562  0.6025  0.6056
  161SAPE   C1218005   5.365   3.465   6.349 -0.2110  0.1227  0.5186
  161SAPE  H12A18006   5.460   3.432   6.303  0.8073  2.1107  1.1552
  161SAPE  H12B18007   5.290   3.418   6.281  0.0597  0.5912 -0.1002
  161SAPE   C1118008   5.366   3.421   6.500 -0.4976 -0.5134  0.1051
  161SAPE  H11A18009   5.275   3.463   6.548 -0.1986  0.1476  0.0996
  161SAPE  H11B18010   5.458   3.462   6.547  0.0102 -1.7885  0.2531
  161SAPE     P18011   5.226   3.209   6.539 -0.1957 -0.1096 -0.1699
  161SAPE   O1318012   5.121   3.251   6.445  0.3890 -0.0752  0.2877
  161SAPE   O1418013   5.247   3.063   6.554  0.4025  0.3143  0.2511
  161SAPE   O1218014   5.367   3.279   6.503  0.2485  0.6119  1.6192
  161SAPE   O1118015   5.197   3.268   6.682  0.0941  0.4626 -0.0013
  161SAPE    C118016   5.308   3.295   6.772 -0.1142  0.0944 -0.3503
  161SAPE    HA18017   5.391   3.358   6.734  0.3423 -0.4235 -0.2175
  161SAPE    HB18018   5.273   3.353   6.860  2.6133 -0.1870  0.9514
  161SAPE    C218019   5.391   3.169   6.821  0.4659 -0.5117  0.1243
  161SAPE    HS18020   5.462   3.141   6.740  0.9215  0.1672  0.2917
  161SAPE   O2118021   5.305   3.061   6.862  0.1958  0.0733  0.6872
  161SAPE   C2118022   5.364   2.945   6.854  0.0061  0.3712  0.1326
  161SAPE   O2218023   5.482   2.931   6.818  0.0120 -0.2685  0.0360
  161SAPE   C2218024   5.276   2.830   6.906  0.4327  1.0118  0.1654
  161SAPE   H2R18025   5.171   2.865   6.911 -0.1212 -0.3137 -1.4126
  161SAPE   H2S18026   5.272   2.748   6.831  1.6645  1.7190 -0.6913
  161SAPE    C318027   5.491   3.213   6.935  0.2038  0.3248 -0.1409
  161SAPE    HX18028   5.565   3.290   6.906  0.3399  1.4048  2.8722
  161SAPE    HY18029   5.554   3.125   6.960  0.3372 -0.2364 -2.3691
  161SAPE   O3118030   5.417   3.258   7.058 -0.6547  0.3729  0.3690
  161SAPE   C3118031   5.492   3.257   7.165 -0.0372 -0.7937 -0.4839
  161SAPE   O3218032   5.605   3.211   7.181  0.3105  0.3701 -0.1878
  161SAPE   C3218033   5.407   3.329   7.279 -0.6622  0.3763 -0.1633
  161SAPE   H2X18034   5.325   3.262   7.313 -0.7953 -0.9831 -2.9882
  161SAPE   H2Y18035   5.367   3.421   7.233  0.8760  1.1929  0.1202
  161SAPE   C2318036   5.332   2.760   7.039  0.5058  0.8163  0.0711
  161SAPE   H3R18037   5.441   2.742   7.044  0.4794  0.6294 -0.0133
  161SAPE   H3S18038   5.278   2.663   7.048 -1.8415  2.1164  0.5980
  161SAPE   C2418039   5.273   2.838   7.165  0.5357 -0.1434  0.2198
  161SAPE   H4R18040   5.176   2.875   7.125  0.1793 -1.8481 -0.5214
  161SAPE   H4S18041   5.340   2.925   7.180  1.2017 -0.5542 -0.3043
  161SAPE   C2518042   5.268   2.752   7.292  0.0157 -0.0149 -0.1650
  161SAPE   H5R18043   5.206   2.662   7.285  0.4388 -0.3441  0.2641
  161SAPE   C2618044   5.340   2.771   7.404  0.5339  0.5028 -0.6386
  161SAPE   H6R18045   5.322   2.698   7.485 -1.5140  0.0320 -1.4764
  161SAPE   C2718046   5.416   2.892   7.435  0.1112  0.3367  0.2226
  161SAPE   H7R18047   5.378   2.930   7.532  2.0466  1.1303  0.6992
  161SAPE   H7S18048   5.414   2.981   7.369  0.8431 -1.0479 -1.7273
  161SAPE   C2818049   5.556   2.853   7.473  0.3778  0.4384  0.2609
  161SAPE   H8R18050   5.625   2.845   7.388  1.0881  2.6592  0.6048
  161SAPE   C2918051   5.607   2.817   7.588  0.7810 -0.9801 -0.0212
  161SAPE   H9R18052   5.712   2.788   7.599  0.8400 -0.6591  0.2990
  161SAPE  C21018053   5.533   2.821   7.720 -1.0619 -0.2275 -0.0427
  161SAPE  H10R18054   5.429   2.860   7.714 -0.6044  0.8178 -1.1829
  161SAPE  H10S18055   5.587   2.903   7.773 -1.4137  0.2373 -0.3997
  161SAPE  C21118056   5.529   2.694   7.799  0.7476 -0.1315  0.0556
  161SAPE  H11R18057   5.446   2.629   7.768 -0.3985  1.5254 -0.4431
  161SAPE  C21218058   5.615   2.657   7.896  0.1594 -0.1910  0.1944
  161SAPE  H12R18059   5.587   2.567   7.953 -0.4502  0.2221  0.5523
  161SAPE  C21318060   5.732   2.734   7.954 -0.3059 -0.0437 -0.2652
  161SAPE  H13R18061   5.763   2.825   7.899  0.3404 -0.1343 -0.0492
  161SAPE  H13S18062   5.821   2.669   7.943 -1.1461 -1.1714 -0.5640
  161SAPE  C21418063   5.710   2.791   8.095 -0.7065  0.6413  0.4678
  161SAPE  H14R18064   5.712   2.900   8.097 -0.8529  0.7320 -2.6194
  161SAPE  C21518065   5.697   2.728   8.215 -0.8638  0.1831 -0.0541
  161SAPE  H15R18066   5.673   2.786   8.305 -0.7308  1.0376 -0.5513
  161SAPE  C21618067   5.717   2.576   8.233  0.2925  0.1204  0.5122
  161SAPE  H16R18068   5.698   2.514   8.142  1.2899 -0.3732  0.6411
  161SAPE  H16S18069   5.643   2.550   8.312  1.0461  1.8719  1.8095
  161SAPE  C21718070   5.854   2.540   8.292 -0.5334  0.3151  0.0413
  161SAPE  H17R18071   5.897   2.619   8.356 -1.1104  1.9465 -1.5576
  161SAPE  H17S18072   5.922   2.542   8.204  2.2890  0.5910  2.1683
  161SAPE  C21818073   5.853   2.406   8.369  0.5599 -0.9814 -0.9077
  161SAPE  H18R18074   5.855   2.321   8.298  3.3268  0.2243 -2.3634
  161SAPE  H18S18075   5.766   2.377   8.432 -0.2312  0.2459 -1.4308
  161SAPE  C21918076   5.973   2.381   8.455  0.2500 -0.2780 -0.5353
  161SAPE  H19R18077   5.988   2.474   8.514  2.0574 -1.1678  0.4623
  161SAPE  H19S18078   6.059   2.368   8.384  0.5692  0.5560 -0.3097
  161SAPE  C22018079   5.970   2.253   8.544 -0.1450 -0.7411  0.7947
  161SAPE  H20R18080   5.902   2.190   8.483  0.6543 -0.3130 -0.5684
  161SAPE  H20S18081   5.902   2.276   8.628 -1.3448  2.1303 -0.9066
  161SAPE  H20T18082   6.062   2.197   8.572 -0.6666 -1.4338  1.1463
  161SAPE   C3318083   5.496   3.357   7.401 -0.3338 -0.1585  0.0110
  161SAPE   H3X18084   5.460   3.446   7.456 -0.3523 -0.5846  0.6865
  161SAPE   H3Y18085   5.601   3.390   7.379 -0.3690 -0.0605 -0.0111
  161SAPE   C3418086   5.498   3.242   7.506  0.7033 -0.1838 -0.4408
  161SAPE   H4X18087   5.563   3.162   7.463 -0.2319 -1.0053 -0.3333
  161SAPE   H4Y18088   5.396   3.203   7.522 -0.6303  2.7438 -1.5773
  161SAPE   C3518089   5.564   3.283   7.636 -0.6212 -0.3321 -0.0355
  161SAPE   H5X18090   5.511   3.377   7.664 -0.4562  0.7166 -3.0446
  161SAPE   H5Y18091   5.669   3.309   7.612 -0.2530 -2.0578 -0.3121
  161SAPE   C3618092   5.564   3.191   7.763 -0.2774  0.6832 -0.3857
  161SAPE   H6X18093   5.634   3.105   7.756 -0.1578  0.7008  0.5867
  161SAPE   H6Y18094   5.457   3.161   7.760 -0.1636 -0.0221  1.8471
  161SAPE   C3718095   5.604   3.262   7.892  0.7211 -0.2869  0.2076
  161SAPE   H7X18096   5.527   3.339   7.912 -0.8606 -2.0585  1.0666
  161SAPE   H7Y18097   5.707   3.304   7.885  1.3614 -1.5921  1.5010
  161SAPE   C3818098   5.600   3.155   8.008 -0.6284 -0.0668 -0.5882
  161SAPE   H8X18099   5.658   3.061   7.998 -1.3796 -0.9520  2.7021
  161SAPE   H8Y18100   5.493   3.128   8.024 -0.4501 -1.0988 -1.1467
  161SAPE   C3918101   5.639   3.217   8.144 -0.4882  0.7335 -0.5032
  161SAPE   H9X18102   5.559   3.282   8.186 -0.7589 -0.4195  0.8099
  161SAPE   H9Y18103   5.731   3.278   8.137  0.1836 -0.1638  0.3592
  161SAPE  C31018104   5.664   3.111   8.250  0.6956 -0.3261  0.1781
  161SAPE  H10X18105   5.742   3.035   8.227  1.5876 -0.6846  4.0490
  161SAPE  H10Y18106   5.563   3.068   8.266 -0.1825  1.9070  0.7881
  161SAPE  C31118107   5.704   3.154   8.390 -0.3901  0.6784 -0.2165
  161SAPE  H11X18108   5.619   3.209   8.436 -0.3438 -0.0958  0.8117
  161SAPE  H11Y18109   5.782   3.233   8.384 -0.5196  0.8015 -0.2719
  161SAPE  C31218110   5.756   3.041   8.485 -0.7441  0.5717 -0.9198
  161SAPE  H12X18111   5.700   2.945   8.483  1.3954 -0.7620  0.5846
  161SAPE  H12Y18112   5.774   3.068   8.591 -0.1169 -0.3964 -0.7629
  161SAPE  C31318113   5.898   3.005   8.448 -0.4755 -0.1473 -0.0229
  161SAPE  H13X18114   5.971   3.082   8.482  0.1767 -1.1478  0.8902
  161SAPE  H13Y18115   5.892   3.000   8.337  0.3285  0.1441 -0.0857
  161SAPE  C31418116   5.938   2.877   8.519 -0.0061 -1.0869  0.5213
  161SAPE  H14X18117   5.861   2.797   8.511 -0.2253 -0.9480  1.1763
  161SAPE  H14Y18118   5.927   2.898   8.627 -2.1553  0.5572  0.0152
  161SAPE  C31518119   6.079   2.829   8.490  0.6451 -0.4641 -0.3964
  161SAPE  H15X18120   6.148   2.916   8.489 -0.9331  0.8525  1.5577
  161SAPE  H15Y18121   6.083   2.794   8.385  0.5933  0.0696 -0.5751
  161SAPE  C31618122   6.128   2.715   8.582 -0.1273  0.1379 -0.3656
  161SAPE  H16X18123   6.045   2.642   8.593 -1.0428  0.8838 -2.1391
  161SAPE  H16Y18124   6.152   2.754   8.683 -1.7631 -1.1726  0.5542
  161SAPE  C31718125   6.269   2.651   8.540  0.2012  0.2314  0.3440
  161SAPE  H17X18126   6.324   2.741   8.504 -2.2063  2.3552  1.7662
  161SAPE  H17Y18127   6.247   2.586   8.452  1.4469  0.3452 -0.0528
  161SAPE  C31818128   6.350   2.570   8.642 -0.1178  0.4038  0.1124
  161SAPE  H18X18129   6.352   2.613   8.744 -0.4313  1.7874 -0.4556
  161SAPE  H18Y18130   6.455   2.551   8.612 -0.4211  0.8454 -1.2410
  161SAPE  H18Z18131   6.303   2.470   8.656  1.4602 -0.4421 -0.4985
  162SAPE     N18132   4.342   5.525   5.684  0.3554 -0.1912  0.4532
  162SAPE   HN118133   4.329   5.545   5.583 -3.1196 -0.8532  0.6907
  162SAPE   HN218134   4.419   5.457   5.702  1.2921  0.5131 -0.8230
  162SAPE   HN318135   4.257   5.477   5.720  0.0324  0.6000  0.7446
  162SAPE   C1218136   4.367   5.652   5.753 -0.0211  0.4436 -0.1964
  162SAPE  H12A18137   4.276   5.711   5.731  0.8160  2.4482  1.5630
  162SAPE  H12B18138   4.454   5.694   5.697 -0.9459  0.7061 -1.4748
  162SAPE   C1118139   4.395   5.630   5.901  0.5465 -0.3747 -0.4604
  162SAPE  H11A18140   4.412   5.731   5.942  2.5060  0.4570 -3.2096
  162SAPE  H11B18141   4.491   5.575   5.905  0.1460 -1.0445  0.1215
  162SAPE     P18142   4.155   5.617   6.022 -0.2364  0.3370 -0.3072
  162SAPE   O1318143   4.083   5.680   5.907 -0.8820  0.0140 -0.1088
  162SAPE   O1418144   4.088   5.502   6.088 -0.3421 -0.4417  0.6834
  162SAPE   O1218145   4.294   5.558   5.966 -0.2072 -0.0608  0.1987
  162SAPE   O1118146   4.177   5.730   6.126 -0.5744 -0.3454  0.2679
  162SAPE    C118147   4.269   5.707   6.234  0.1937  0.4156 -0.5567
  162SAPE    HA18148   4.290   5.598   6.248 -1.6955  0.0687 -0.3505
  162SAPE    HB18149   4.369   5.745   6.203  0.2419 -0.0686 -1.0206
  162SAPE    C218150   4.223   5.767   6.366 -0.0032  0.4498 -0.2921
  162SAPE    HS18151   4.307   5.758   6.438  0.7712  1.2849 -1.0645
  162SAPE   O2118152   4.104   5.701   6.406 -0.6231 -0.1834  0.1511
  162SAPE   C2118153   4.131   5.585   6.454  0.0670  0.0003 -0.0218
  162SAPE   O2218154   4.239   5.525   6.461 -0.4412  0.4843 -0.2711
  162SAPE   C2218155   3.997   5.524   6.501 -0.1175  0.3829  0.0033
  162SAPE   H2R18156   3.930   5.613   6.508  0.7181  1.1049 -0.9677
  162SAPE   H2S18157   3.955   5.458   6.423  0.3647  0.7626 -0.5852
  162SAPE    C318158   4.203   5.924   6.361 -0.1365  0.0193 -1.0299
  162SAPE    HX18159   4.136   5.949   6.276 -0.2147 -3.7420 -2.1340
  162SAPE    HY18160   4.297   5.980   6.337  1.0555 -1.1690  0.7606
  162SAPE   O3118161   4.134   5.969   6.479  0.8482  0.0156 -0.1674
  162SAPE   C3118162   4.210   6.013   6.581 -0.5796  1.2233  0.3869
  162SAPE   O3218163   4.329   6.027   6.580 -0.0772  0.0360 -0.2530
  162SAPE   C3218164   4.114   6.056   6.692  0.1081 -0.5157 -0.1905
  162SAPE   H2X18165   4.086   5.961   6.743  0.7131  0.1825  1.4737
  162SAPE   H2Y18166   4.016   6.103   6.666 -0.3363 -1.3131  0.0288
  162SAPE   C2318167   4.004   5.441   6.634  0.0597  0.1781  0.0672
  162SAPE   H3R18168   4.092   5.373   6.628 -0.0090  0.1375 -0.5780
  162SAPE   H3S18169   3.915   5.376   6.649  0.9089 -1.4989 -1.8085
  162SAPE   C2418170   4.010   5.536   6.761  0.2374  0.5119  0.1897
  162SAPE   H4R18171   3.923   5.606   6.758  1.0879  1.5666 -0.2347
  162SAPE   H4S18172   4.101   5.595   6.738 -0.2122  0.3344 -2.1866
  162SAPE   C2518173   4.021   5.463   6.891  0.0053  0.2606  0.2896
  162SAPE   H5R18174   4.016   5.354   6.884  1.2087 -0.0083  2.7933
  162SAPE   C2618175   4.022   5.512   7.016  0.0725  0.1096  0.6273
  162SAPE   H6R18176   4.048   5.439   7.094  1.5471 -2.5068 -2.1645
  162SAPE   C2718177   4.023   5.659   7.050  0.1537  0.1824  0.0437
  162SAPE   H7R18178   3.960   5.670   7.141 -0.9180 -0.8409 -0.5410
  162SAPE   H7S18179   3.968   5.714   6.971 -0.6154 -0.6201  0.0084
  162SAPE   C2818180   4.169   5.712   7.058 -0.2184 -1.3248  0.6420
  162SAPE   H8R18181   4.210   5.746   6.962  0.1698  0.8294  1.5453
  162SAPE   C2918182   4.244   5.724   7.173  0.1596  0.1242  0.1961
  162SAPE   H9R18183   4.336   5.784   7.170  0.2080 -0.0243 -3.2516
  162SAPE  C21018184   4.196   5.674   7.303 -0.1712 -0.4342 -0.2551
  162SAPE  H10R18185   4.094   5.710   7.329 -0.3596 -0.1131 -1.3943
  162SAPE  H10S18186   4.263   5.733   7.369  2.4120 -0.7317 -2.4879
  162SAPE  C21118187   4.208   5.529   7.332  0.6713 -0.1325  0.6478
  162SAPE  H11R18188   4.227   5.462   7.247  0.6207  0.2903  0.3052
  162SAPE  C21218189   4.211   5.475   7.458  0.6570 -0.1336  0.3184
  162SAPE  H12R18190   4.194   5.366   7.456  0.9181 -0.2504  2.5891
  162SAPE  C21318191   4.194   5.533   7.589 -0.5336 -0.2586 -0.8224
  162SAPE  H13R18192   4.212   5.461   7.671  0.4318  0.3162 -0.5140
  162SAPE  H13S18193   4.085   5.548   7.604 -0.5224 -1.4682  0.6364
  162SAPE  C21418194   4.291   5.639   7.635 -0.6055  0.6588 -0.7923
  162SAPE  H14R18195   4.354   5.682   7.556  1.6182 -0.9190  0.0482
  162SAPE  C21518196   4.311   5.687   7.751  0.4977  0.2838 -0.8327
  162SAPE  H15R18197   4.405   5.743   7.762  0.9002 -0.1635 -1.9008
  162SAPE  C21618198   4.237   5.647   7.879  1.1381  0.0169  0.9549
  162SAPE  H16R18199   4.144   5.589   7.857  1.6927 -0.0011 -1.5460
  162SAPE  H16S18200   4.197   5.733   7.936 -2.1250 -0.5302 -0.3335
  162SAPE  C21718201   4.326   5.570   7.972  0.6639 -0.1105 -0.3103
  162SAPE  H17R18202   4.405   5.643   8.000  1.6710 -1.2997  0.0256
  162SAPE  H17S18203   4.361   5.477   7.922  0.8136 -0.2863  0.1156
  162SAPE  C21818204   4.256   5.530   8.104  0.3155  0.4118 -0.4724
  162SAPE  H18R18205   4.171   5.465   8.076  1.0393 -1.4469  1.5443
  162SAPE  H18S18206   4.226   5.627   8.149  0.1657  0.6085 -0.9848
  162SAPE  C21918207   4.341   5.443   8.204  0.3055 -0.1128 -0.1202
  162SAPE  H19R18208   4.273   5.425   8.290 -0.2818  1.0759 -0.3262
  162SAPE  H19S18209   4.432   5.500   8.232 -0.0249  0.4055 -0.1046
  162SAPE  C22018210   4.390   5.305   8.147 -0.4213 -0.5268  0.2011
  162SAPE  H20R18211   4.302   5.240   8.126 -0.3487 -1.4530  2.5809
  162SAPE  H20S18212   4.447   5.249   8.225 -0.7439 -1.2033 -0.0441
  162SAPE  H20T18213   4.457   5.313   8.059 -1.9258 -3.4980 -1.2803
  162SAPE   C3318214   4.187   6.157   6.794  0.0916 -0.0226 -0.0825
  162SAPE   H3X18215   4.138   6.255   6.776  0.7824  0.2667 -0.4112
  162SAPE   H3Y18216   4.290   6.187   6.764  0.6292  2.0383  3.5480
  162SAPE   C3418217   4.181   6.116   6.941  0.5979 -0.2348  0.3431
  162SAPE   H4X18218   4.241   6.023   6.951 -2.7728 -2.5938 -0.4530
  162SAPE   H4Y18219   4.077   6.085   6.963  1.7280 -4.0731  0.7106
  162SAPE   C3518220   4.240   6.219   7.038  0.3313  0.5409  1.2628
  162SAPE   H5X18221   4.205   6.325   7.032 -0.3319  0.4598  3.2059
  162SAPE   H5Y18222   4.350   6.222   7.032  0.3680  2.3355  2.4217
  162SAPE   C3618223   4.201   6.199   7.187 -0.2057  0.5496 -0.5943
  162SAPE   H6X18224   4.249   6.103   7.218 -0.1324  1.0440  0.8707
  162SAPE   H6Y18225   4.092   6.184   7.197 -0.3543  0.3934 -2.3731
  162SAPE   C3718226   4.255   6.303   7.281  0.7298 -0.3011  0.9654
  162SAPE   H7X18227   4.209   6.397   7.243  1.1802 -0.6491 -0.4699
  162SAPE   H7Y18228   4.365   6.298   7.271  0.5919  0.1732 -1.2583
  162SAPE   C3818229   4.203   6.304   7.423  0.7485 -0.6057 -0.6895
  162SAPE   H8X18230   4.228   6.202   7.461 -0.1503 -0.2955  0.7877
  162SAPE   H8Y18231   4.092   6.313   7.417  0.8359  0.9615 -0.0044
  162SAPE   C3918232   4.276   6.400   7.517  0.2439  0.3970  0.1709
  162SAPE   H9X18233   4.280   6.504   7.478  0.2824  0.3539  0.0595
  162SAPE   H9Y18234   4.376   6.357   7.538  0.1971 -0.3395 -1.0707
  162SAPE  C31018235   4.193   6.409   7.648  1.5122 -0.9038 -0.4759
  162SAPE  H10X18236   4.185   6.306   7.689  1.9870 -1.1754 -1.0598
  162SAPE  H10Y18237   4.100   6.459   7.613  1.6815 -1.7854 -2.2069
  162SAPE  C31118238   4.281   6.482   7.762 -0.2634 -1.3236  0.5073
  162SAPE  H11X18239   4.302   6.589   7.743  0.3810 -1.8764 -2.0362
  162SAPE  H11Y18240   4.378   6.430   7.772  0.0205 -0.9185 -0.1474
  162SAPE  C31218241   4.209   6.488   7.905 -0.0347  0.3751  0.0180
  162SAPE  H12X18242   4.226   6.390   7.953 -0.2981 -0.6465 -1.9165
  162SAPE  H12Y18243   4.100   6.506   7.892 -0.4933  0.0028  3.1594
  162SAPE  C31318244   4.256   6.601   7.995 -0.3287 -0.5380 -0.3612
  162SAPE  H13X18245   4.254   6.694   7.934 -0.7362  0.8977  1.7967
  162SAPE  H13Y18246   4.362   6.572   8.005 -0.3237 -0.7078 -0.8653
  162SAPE  C31418247   4.176   6.625   8.124  0.2519 -0.2377 -0.3644
  162SAPE  H14X18248   4.129   6.532   8.162 -0.5774 -0.8955 -2.9077
  162SAPE  H14Y18249   4.099   6.698   8.091  2.6072  1.3127 -2.6632
  162SAPE  C31518250   4.258   6.694   8.238 -0.2322 -0.3598 -0.4672
  162SAPE  H15X18251   4.340   6.621   8.257  2.0557  2.2786  0.2308
  162SAPE  H15Y18252   4.200   6.726   8.326 -1.3320 -0.3058 -1.2079
  162SAPE  C31618253   4.336   6.817   8.183  0.3844 -0.3088  0.5378
  162SAPE  H16X18254   4.268   6.880   8.121  0.7152 -0.7955 -0.3364
  162SAPE  H16Y18255   4.416   6.785   8.113  0.7774  1.0677  0.3429
  162SAPE  C31718256   4.410   6.901   8.285 -0.4692  0.4438  0.3859
  162SAPE  H17X18257   4.336   6.966   8.336 -1.1466 -0.4667  0.5796
  162SAPE  H17Y18258   4.482   6.969   8.234 -0.0459 -0.2493  0.0350
  162SAPE  C31818259   4.483   6.827   8.399  0.2659 -0.2326  0.5723
  162SAPE  H18X18260   4.550   6.750   8.356  3.2899  1.2877  2.3568
  162SAPE  H18Y18261   4.411   6.771   8.462  0.6308 -1.3482  0.0028
  162SAPE  H18Z18262   4.538   6.897   8.466  0.7468  1.4034 -1.4417
  163SAPE     N18263   2.448   3.456   6.283 -0.0494  0.0279  0.4380
  163SAPE   HN118264   2.433   3.393   6.201 -1.7373 -1.3456  1.7574
  163SAPE   HN218265   2.359   3.509   6.276 -0.2569 -0.5270 -1.4311
  163SAPE   HN318266   2.534   3.513   6.275  0.0681 -0.1128  0.7018
  163SAPE   C1218267   2.457   3.377   6.405  0.5526 -0.7171  0.2147
  163SAPE  H12A18268   2.560   3.339   6.421  0.4614 -0.8238  0.5548
  163SAPE  H12B18269   2.385   3.293   6.396 -0.6155  0.1737  0.9931
  163SAPE   C1118270   2.416   3.473   6.517 -0.5229 -0.3222 -0.1036
  163SAPE  H11A18271   2.405   3.419   6.614 -1.4818  1.2217  0.6672
  163SAPE  H11B18272   2.313   3.505   6.488  0.2217 -0.0651 -2.5672
  163SAPE     P18273   2.483   3.710   6.606 -0.1035 -0.0420  0.0195
  163SAPE   O1318274   2.601   3.797   6.612  0.1300  0.3688  0.0083
  163SAPE   O1418275   2.359   3.766   6.539  0.4364 -0.3515  0.3722
  163SAPE   O1218276   2.523   3.573   6.534  0.2706  0.1645 -0.2040
  163SAPE   O1118277   2.460   3.660   6.754 -0.0886 -0.1158 -0.0639
  163SAPE    C118278   2.330   3.668   6.822 -0.5695  0.1774  0.2195
  163SAPE    HA18279   2.260   3.622   6.750 -2.0333  0.9374  1.1407
  163SAPE    HB18280   2.335   3.614   6.919 -2.4622  0.1696  0.3230
  163SAPE    C218281   2.292   3.817   6.848  0.6363  0.6371 -0.6330
  163SAPE    HS18282   2.286   3.868   6.749 -1.4688 -1.8442 -1.8518
  163SAPE   O2118283   2.403   3.884   6.925 -0.4692 -0.0731  0.1200
  163SAPE   C2118284   2.400   4.021   6.923 -0.2916  0.2140  0.1399
  163SAPE   O2218285   2.327   4.083   6.852  0.5510  0.4556  0.1383
  163SAPE   C2218286   2.486   4.074   7.031  0.1434 -0.6078  0.3518
  163SAPE   H2R18287   2.587   4.078   6.983 -0.4903 -1.3630 -1.0882
  163SAPE   H2S18288   2.444   4.172   7.060 -0.0403 -0.1375 -1.4402
  163SAPE    C318289   2.148   3.833   6.903 -0.0636  0.6076 -0.0471
  163SAPE    HX18290   2.079   3.781   6.833  0.9454  0.1566 -0.7086
  163SAPE    HY18291   2.125   3.942   6.904 -2.7126  0.1071 -0.5506
  163SAPE   O3118292   2.139   3.777   7.039 -0.2831  0.2154  0.0519
  163SAPE   C3118293   2.090   3.852   7.128 -0.0117  0.4972  0.2716
  163SAPE   O3218294   2.056   3.970   7.122 -0.2035 -0.0535 -0.8140
  163SAPE   C3218295   2.090   3.768   7.256 -0.3902  0.3334 -0.0485
  163SAPE   H2X18296   1.983   3.747   7.276  0.0363 -1.6177  0.2855
  163SAPE   H2Y18297   2.142   3.833   7.329  0.9950  1.3456 -1.9115
  163SAPE   C2318298   2.503   3.977   7.156 -0.0556 -0.3968  0.3168
  163SAPE   H3R18299   2.592   3.911   7.155 -1.0800 -1.7890  0.0829
  163SAPE   H3S18300   2.419   3.905   7.168  1.9726 -2.8794  0.0268
  163SAPE   C2418301   2.519   4.046   7.292 -0.3930 -0.3106  0.0958
  163SAPE   H4R18302   2.590   4.130   7.274 -0.1820 -0.3864  0.5617
  163SAPE   H4S18303   2.563   3.971   7.361  0.2720 -0.8642 -0.9373
  163SAPE   C2518304   2.389   4.119   7.337 -0.3690  0.3985  0.1707
  163SAPE   H5R18305   2.330   4.169   7.259 -0.9899 -0.2968  0.1943
  163SAPE   C2618306   2.325   4.121   7.460 -0.4094  0.1646 -0.0818
  163SAPE   H6R18307   2.234   4.180   7.479  0.0112  1.2233 -1.3045
  163SAPE   C2718308   2.383   4.046   7.575  0.6225 -0.2091 -0.3565
  163SAPE   H7R18309   2.349   4.090   7.671 -0.8159 -0.0655 -0.9171
  163SAPE   H7S18310   2.494   4.059   7.577  0.9064 -2.0264 -2.5583
  163SAPE   C2818311   2.354   3.894   7.579  0.1835  0.1054  0.9298
  163SAPE   H8R18312   2.413   3.831   7.511 -0.7127 -0.1751  0.4022
  163SAPE   C2918313   2.271   3.831   7.665 -0.1549 -0.4066  0.0379
  163SAPE   H9R18314   2.255   3.723   7.670 -0.6847 -0.3171  0.3633
  163SAPE  C21018315   2.195   3.899   7.782  0.1664 -1.1781  0.0039
  163SAPE  H10R18316   2.095   3.929   7.742  0.8357  1.8108  0.4182
  163SAPE  H10S18317   2.233   4.002   7.800 -1.4133 -0.6564  0.4842
  163SAPE  C21118318   2.187   3.817   7.900 -0.0771 -0.6746 -0.2168
  163SAPE  H11R18319   2.096   3.756   7.902 -1.6822  1.6539 -0.4165
  163SAPE  C21218320   2.274   3.819   8.008  0.4628  0.0335  0.3278
  163SAPE  H12R18321   2.254   3.755   8.095  0.7676 -1.3003 -0.5558
  163SAPE  C21318322   2.398   3.903   8.028 -0.5037  0.0660 -1.1576
  163SAPE  H13R18323   2.419   3.922   8.135 -1.7551  3.0689 -1.4012
  163SAPE  H13S18324   2.384   4.003   7.983 -1.5231 -0.2705 -1.6131
  163SAPE  C21418325   2.516   3.861   7.953  0.6367  0.4639 -0.9701
  163SAPE  H14R18326   2.490   3.841   7.847  0.7685  4.1566 -1.7668
  163SAPE  C21518327   2.636   3.814   7.994  0.1271 -0.5621  0.1383
  163SAPE  H15R18328   2.712   3.795   7.916  1.0327  0.6239  0.6977
  163SAPE  C21618329   2.684   3.803   8.134  0.3658 -0.0919  0.7756
  163SAPE  H16R18330   2.753   3.716   8.144  1.7466  1.0467  1.3789
  163SAPE  H16S18331   2.606   3.804   8.213  0.0885  2.3320  0.5057
  163SAPE  C21718332   2.777   3.927   8.156 -0.1210 -0.2491  0.2696
  163SAPE  H17R18333   2.845   3.940   8.070 -0.5605  0.2204 -0.0130
  163SAPE  H17S18334   2.843   3.905   8.242 -0.4258  0.1522  0.6138
  163SAPE  C21818335   2.697   4.055   8.184 -0.1364  0.9009  0.6047
  163SAPE  H18R18336   2.634   4.038   8.274 -1.1423  0.8181 -0.1094
  163SAPE  H18S18337   2.638   4.092   8.097  0.8802 -1.0292 -0.9223
  163SAPE  C21918338   2.778   4.173   8.237 -0.3239 -0.1224 -0.0757
  163SAPE  H19R18339   2.796   4.155   8.345 -0.9574 -1.1245 -0.1346
  163SAPE  H19S18340   2.715   4.264   8.227  0.0475  0.0507 -0.9039
  163SAPE  C22018341   2.917   4.195   8.176  0.2970 -0.4421 -0.1697
  163SAPE  H20R18342   2.968   4.104   8.137  2.1172  1.1591 -1.5741
  163SAPE  H20S18343   2.980   4.225   8.262  0.4908  0.2018 -0.5386
  163SAPE  H20T18344   2.920   4.278   8.103  0.6673  1.4137  1.9164
  163SAPE   C3318345   2.143   3.620   7.255  0.1388 -0.2955  0.7393
  163SAPE   H3X18346   2.249   3.620   7.222 -0.1032 -0.9040 -0.0498
  163SAPE   H3Y18347   2.084   3.563   7.180 -0.2023  1.7039 -0.5466
  163SAPE   C3418348   2.125   3.549   7.386  0.2524 -0.2904  0.7336
  163SAPE   H4X18349   2.017   3.525   7.389 -0.1948  1.3028 -1.1887
  163SAPE   H4Y18350   2.143   3.612   7.476  1.2778 -1.7453  1.5774
  163SAPE   C3518351   2.187   3.406   7.404  0.1425 -0.2885 -0.4919
  163SAPE   H5X18352   2.297   3.419   7.394  0.2770 -0.3785  0.7991
  163SAPE   H5Y18353   2.153   3.341   7.321 -0.1937  0.1614 -0.7112
  163SAPE   C3618354   2.167   3.338   7.537 -0.3914  0.6640 -0.3805
  163SAPE   H6X18355   2.213   3.238   7.524  1.3401  1.3123  0.5954
  163SAPE   H6Y18356   2.061   3.319   7.565 -0.4770 -1.3478 -1.9624
  163SAPE   C3718357   2.235   3.408   7.658 -0.6373  0.6794  0.3787
  163SAPE   H7X18358   2.169   3.495   7.681 -0.2773  0.7800  1.0244
  163SAPE   H7Y18359   2.336   3.446   7.635  0.3825 -1.3815  1.3630
  163SAPE   C3818360   2.233   3.316   7.776  0.1904  0.2880 -0.7917
  163SAPE   H8X18361   2.297   3.231   7.744 -0.3066  0.7944 -3.2380
  163SAPE   H8Y18362   2.132   3.275   7.801 -0.2079  1.6402 -0.1353
  163SAPE   C3918363   2.298   3.368   7.903  0.1047  0.2379  0.8957
  163SAPE   H9X18364   2.231   3.443   7.949 -0.9771  1.1206 -1.9747
  163SAPE   H9Y18365   2.377   3.438   7.867  1.0223 -1.6657 -0.9207
  163SAPE  C31018366   2.360   3.272   8.005 -0.4684 -0.7200 -0.7329
  163SAPE  H10X18367   2.444   3.209   7.968  0.4120 -0.0083  0.0088
  163SAPE  H10Y18368   2.278   3.211   8.047  0.6499 -1.4465  0.4338
  163SAPE  C31118369   2.426   3.365   8.115 -0.0543 -0.3085  0.1309
  163SAPE  H11X18370   2.350   3.432   8.161 -0.3454 -1.2382  1.0442
  163SAPE  H11Y18371   2.500   3.430   8.063 -0.3759 -1.0149 -1.2134
  163SAPE  C31218372   2.498   3.284   8.214 -0.5359  0.4635  1.5296
  163SAPE  H12X18373   2.573   3.218   8.166  0.2332  1.4976  1.3079
  163SAPE  H12Y18374   2.424   3.220   8.268  1.2241 -0.7107  2.5868
  163SAPE  C31318375   2.568   3.366   8.320 -0.3843  0.0772 -0.3660
  163SAPE  H13X18376   2.649   3.417   8.264 -0.4925 -0.3392 -0.9079
  163SAPE  H13Y18377   2.627   3.300   8.387 -1.7274 -0.1366  0.6281
  163SAPE  C31418378   2.499   3.485   8.397  0.1407 -0.3501  0.0765
  163SAPE  H14X18379   2.408   3.456   8.453 -0.0277  1.4158  0.7573
  163SAPE  H14Y18380   2.464   3.548   8.313  2.3257  3.1075  1.6296
  163SAPE  C31518381   2.599   3.563   8.476  0.4385  1.2732 -0.1161
  163SAPE  H15X18382   2.696   3.565   8.422  0.2460 -2.2062 -0.7135
  163SAPE  H15Y18383   2.629   3.515   8.571 -2.0551 -0.6129 -0.2289
  163SAPE  C31618384   2.548   3.705   8.516  0.7014  0.1338  0.6918
  163SAPE  H16X18385   2.448   3.683   8.560  0.5269 -2.6870 -0.9476
  163SAPE  H16Y18386   2.523   3.769   8.428  0.1855 -2.0234 -0.7831
  163SAPE  C31718387   2.645   3.787   8.604 -0.2074  0.2161  0.0581
  163SAPE  H17X18388   2.740   3.806   8.550 -0.2707 -1.3259 -0.6244
  163SAPE  H17Y18389   2.671   3.727   8.693 -2.5229  0.6791  1.0760
  163SAPE  C31818390   2.584   3.920   8.652 -0.1246 -0.3083  0.5531
  163SAPE  H18X18391   2.493   3.903   8.712  1.5629 -0.4718  3.1285
  163SAPE  H18Y18392   2.560   3.981   8.562  1.3198 -1.4209 -0.6069
  163SAPE  H18Z18393   2.659   3.977   8.712 -0.8898  0.3014  0.9354
  164SAPE     N18394   4.800   0.628   5.867  1.0023  0.4805  0.2166
  164SAPE   HN118395   4.818   0.695   5.789 -0.4760 -1.2602 -1.6839
  164SAPE   HN218396   4.812   0.538   5.816  1.8118  1.0340 -0.6061
  164SAPE   HN318397   4.702   0.640   5.899  0.1526 -1.2471 -1.6061
  164SAPE   C1218398   4.902   0.655   5.970  0.0259 -0.4283 -0.5660
  164SAPE  H12A18399   5.000   0.680   5.926 -0.8417  1.1638 -1.6400
  164SAPE  H12B18400   4.916   0.557   6.021 -1.6373  0.5778  1.9334
  164SAPE   C1118401   4.872   0.784   6.053 -0.3831 -0.0644  0.6111
  164SAPE  H11A18402   4.949   0.785   6.133 -0.6726 -1.2400  0.9148
  164SAPE  H11B18403   4.777   0.763   6.107  0.4620 -2.3973  1.2235
  164SAPE     P18404   4.809   1.027   6.008 -0.3516 -0.2412 -0.0180
  164SAPE   O1318405   4.920   1.130   6.021 -0.3271 -0.2949  0.1857
  164SAPE   O1418406   4.710   1.047   5.901  0.2516  0.0073  0.1590
  164SAPE   O1218407   4.884   0.900   5.974  0.3978  0.1995  0.1735
  164SAPE   O1118408   4.733   1.014   6.146  0.3197  0.4497 -0.1600
  164SAPE    C118409   4.724   1.132   6.225  0.1161 -0.5051 -0.3338
  164SAPE    HA18410   4.741   1.230   6.176  1.2205  0.7178  2.3503
  164SAPE    HB18411   4.621   1.137   6.266  0.1438 -0.6037 -0.2523
  164SAPE    C218412   4.826   1.114   6.339 -0.5504 -0.5427  0.2748
  164SAPE    HS18413   4.924   1.121   6.287 -0.8110  1.2821 -0.0044
  164SAPE   O2118414   4.804   0.985   6.401  0.0533  0.4090 -0.3904
  164SAPE   C2118415   4.910   0.930   6.454 -0.6682  0.2174  0.5796
  164SAPE   O2218416   5.027   0.961   6.442 -0.6343  0.0374 -0.5401
  164SAPE   C2218417   4.867   0.814   6.540  0.0321  0.4075 -0.3220
  164SAPE   H2R18418   4.944   0.790   6.616  0.3462  0.7018 -0.5436
  164SAPE   H2S18419   4.770   0.836   6.590  0.4010 -0.5520  0.8386
  164SAPE    C318420   4.813   1.235   6.439 -0.4101  0.6224 -0.6655
  164SAPE    HX18421   4.708   1.228   6.475 -0.4933  2.1015 -0.5919
  164SAPE    HY18422   4.812   1.327   6.377  0.8985  0.2773 -1.2107
  164SAPE   O3118423   4.908   1.246   6.544  0.2845 -0.2471  0.3182
  164SAPE   C3118424   4.878   1.246   6.671  0.0717 -0.2550  0.2900
  164SAPE   O3218425   4.766   1.264   6.723 -0.1408 -0.0698 -0.1019
  164SAPE   C3218426   5.008   1.231   6.749 -0.3450 -0.3067 -0.2082
  164SAPE   H2X18427   5.071   1.320   6.775  1.8134 -2.2085  1.3629
  164SAPE   H2Y18428   5.072   1.156   6.698  0.2901  0.7552 -1.0135
  164SAPE   C2318429   4.842   0.693   6.453 -0.4331 -0.2861  0.8889
  164SAPE   H3R18430   4.930   0.682   6.386 -0.9515 -0.3643  0.2143
  164SAPE   H3S18431   4.752   0.703   6.388 -1.1898 -1.6328  1.7089
  164SAPE   C2418432   4.848   0.562   6.521  0.5806  0.5437  0.0750
  164SAPE   H4R18433   4.940   0.559   6.583 -0.1706  1.5962  1.2752
  164SAPE   H4S18434   4.856   0.473   6.455  1.1067 -0.1039  0.9914
  164SAPE   C2518435   4.722   0.547   6.609 -1.2751  0.3485 -0.6022
  164SAPE   H5R18436   4.624   0.557   6.560 -0.8421 -2.3171 -2.0889
  164SAPE   C2618437   4.740   0.522   6.739 -0.2640  0.1114  0.8011
  164SAPE   H6R18438   4.645   0.512   6.794 -1.3221  0.1537 -0.9680
  164SAPE   C2718439   4.867   0.505   6.816 -0.4904 -0.2652 -0.0930
  164SAPE   H7R18440   4.899   0.610   6.826 -0.9656 -0.0164 -1.1064
  164SAPE   H7S18441   4.941   0.445   6.759 -2.1602 -0.6669 -1.9182
  164SAPE   C2818442   4.847   0.431   6.951 -0.4093  0.2715  0.1961
  164SAPE   H8R18443   4.838   0.497   7.038  1.7083  0.3808  0.3388
  164SAPE   C2918444   4.829   0.299   6.957  0.4878 -0.1903 -0.3231
  164SAPE   H9R18445   4.824   0.263   7.061 -0.0674 -1.6668 -0.8557
  164SAPE  C21018446   4.827   0.191   6.849 -0.1191  0.3097 -0.2401
  164SAPE  H10R18447   4.868   0.220   6.750 -0.7582 -1.6451 -1.1006
  164SAPE  H10S18448   4.721   0.167   6.825 -0.7693  1.9616  0.9703
  164SAPE  C21118449   4.880   0.060   6.903 -0.3821  0.8177  0.6705
  164SAPE  H11R18450   4.813   0.016   6.978  0.0977 -0.5125  0.3373
  164SAPE  C21218451   4.993  -0.010   6.875 -0.3890  0.2209 -0.5995
  164SAPE  H12R18452   5.021  -0.093   6.941  3.7641  2.7243  0.9694
  164SAPE  C21318453   5.096   0.013   6.773  0.0153 -0.1349  0.3969
  164SAPE  H13R18454   5.079   0.115   6.731 -0.5547 -0.0924  0.7313
  164SAPE  H13S18455   5.068  -0.052   6.687 -0.5429  0.5442  0.0583
  164SAPE  C21418456   5.236  -0.020   6.817 -0.4900 -0.0515  0.0612
  164SAPE  H14R18457   5.282  -0.101   6.759  2.2212  1.5378 -0.1314
  164SAPE  C21518458   5.303   0.029   6.929  1.2841  0.4156  0.1959
  164SAPE  H15R18459   5.404  -0.012   6.947  1.2399  0.1514 -0.1624
  164SAPE  C21618460   5.244   0.140   7.017  0.1431  0.3352 -0.0619
  164SAPE  H16R18461   5.197   0.111   7.113  0.4599  1.5592  0.4666
  164SAPE  H16S18462   5.157   0.185   6.963 -0.3305 -0.4983 -0.0046
  164SAPE  C21718463   5.348   0.244   7.044 -0.5570 -0.5463  0.3776
  164SAPE  H17R18464   5.380   0.289   6.947  0.6960 -0.5612  0.7736
  164SAPE  H17S18465   5.433   0.202   7.102 -1.6432  0.1737  2.5614
  164SAPE  C21818466   5.299   0.348   7.145 -0.3499  1.0848 -0.0240
  164SAPE  H18R18467   5.372   0.423   7.183 -0.3694 -0.1424  2.5927
  164SAPE  H18S18468   5.280   0.284   7.234  1.0375 -0.2556 -0.6773
  164SAPE  C21918469   5.185   0.433   7.101  0.6872 -0.7148 -0.2293
  164SAPE  H19R18470   5.111   0.372   7.045  0.5092 -1.6898  1.0477
  164SAPE  H19S18471   5.226   0.498   7.021 -2.3806  1.4449 -0.1462
  164SAPE  C22018472   5.120   0.519   7.211 -0.1900  0.7067  0.1469
  164SAPE  H20R18473   5.204   0.576   7.256  0.2160  1.3572 -1.4121
  164SAPE  H20S18474   5.071   0.452   7.285  1.5733 -1.2526 -0.4112
  164SAPE  H20T18475   5.029   0.568   7.169 -1.5024 -0.7028  1.2860
  164SAPE   C3318476   4.974   1.173   6.890  0.0386  0.2951 -0.1283
  164SAPE   H3X18477   4.928   1.072   6.879  0.3449  0.2045 -0.6221
  164SAPE   H3Y18478   4.890   1.230   6.934 -0.4273  0.2466 -0.9460
  164SAPE   C3418479   5.098   1.182   6.975  0.1892 -0.1535  0.2307
  164SAPE   H4X18480   5.112   1.292   6.990 -0.9352 -0.0559  0.5734
  164SAPE   H4Y18481   5.190   1.154   6.919  0.0394  1.1794 -0.7062
  164SAPE   C3518482   5.087   1.120   7.107 -0.1745  0.2468  0.5975
  164SAPE   H5X18483   5.193   1.132   7.139 -0.4887  0.9214  1.4210
  164SAPE   H5Y18484   5.062   1.012   7.103 -0.2419  0.2985 -0.5371
  164SAPE   C3618485   4.989   1.196   7.206  0.1626  0.4383  0.1128
  164SAPE   H6X18486   4.882   1.170   7.195 -0.4444  2.9928 -0.3699
  164SAPE   H6Y18487   5.003   1.305   7.191  0.7696  0.1790 -1.2438
  164SAPE   C3718488   5.047   1.173   7.350  0.4887  0.9213 -0.2023
  164SAPE   H7X18489   5.142   1.228   7.368  0.7721  0.1206  0.8266
  164SAPE   H7Y18490   5.089   1.071   7.340 -2.7331 -0.4491 -0.2008
  164SAPE   C3818491   4.946   1.166   7.458  0.1937  0.7144 -0.5829
  164SAPE   H8X18492   4.865   1.105   7.413 -0.1769  0.5776  0.2610
  164SAPE   H8Y18493   4.902   1.266   7.477 -0.4547  0.1998  0.7257
  164SAPE   C3918494   5.003   1.094   7.581  0.4220 -0.1526 -0.5415
  164SAPE   H9X18495   5.075   1.147   7.646 -0.3388 -0.9082  0.9373
  164SAPE   H9Y18496   5.051   0.998   7.551  1.2475  0.9336 -2.8260
  164SAPE  C31018497   4.884   1.073   7.674 -0.6063 -0.6028 -0.4742
  164SAPE  H10X18498   4.801   1.015   7.627 -0.8697 -0.6469  0.0461
  164SAPE  H10Y18499   4.842   1.175   7.686  2.8702  0.8087  0.2521
  164SAPE  C31118500   4.916   1.020   7.816  0.3082 -0.1847  0.6735
  164SAPE  H11X18501   5.005   1.072   7.858 -0.7169  0.5160  1.9879
  164SAPE  H11Y18502   4.929   0.909   7.822  2.5916 -0.0318 -0.5360
  164SAPE  C31218503   4.806   1.041   7.920  0.1295  0.1593  0.4046
  164SAPE  H12X18504   4.720   0.978   7.888  1.5227 -1.2235 -0.6828
  164SAPE  H12Y18505   4.768   1.145   7.932  0.1787  0.5611 -2.5665
  164SAPE  C31318506   4.852   0.997   8.059 -0.4499 -0.3301 -0.4211
  164SAPE  H13X18507   4.758   1.005   8.118  0.4022  0.0230  0.8944
  164SAPE  H13Y18508   4.924   1.071   8.098 -1.0371 -0.6656  1.3268
  164SAPE  C31418509   4.889   0.848   8.071 -0.3512 -0.5300 -0.3246
  164SAPE  H14X18510   4.991   0.826   8.034 -0.1024  1.4247 -0.8514
  164SAPE  H14Y18511   4.817   0.797   8.003 -0.1738 -1.9765  0.5661
  164SAPE  C31518512   4.873   0.797   8.216 -0.8980 -0.4277 -0.5874
  164SAPE  H15X18513   4.887   0.688   8.204  0.8265 -0.4574  1.4361
  164SAPE  H15Y18514   4.775   0.831   8.256 -0.9836  0.6717 -1.7147
  164SAPE  C31618515   4.977   0.834   8.317  0.2056  0.5066 -0.4927
  164SAPE  H16X18516   4.991   0.944   8.327 -1.1449  0.7635 -1.3319
  164SAPE  H16Y18517   5.072   0.787   8.285 -1.3484 -2.2660 -1.1667
  164SAPE  C31718518   4.950   0.775   8.455 -0.2421 -0.6324 -0.5823
  164SAPE  H17X18519   4.851   0.810   8.490 -0.5810 -1.6674 -0.4890
  164SAPE  H17Y18520   5.024   0.819   8.525 -1.2998  2.1672 -1.1589
  164SAPE  C31818521   4.942   0.614   8.455  0.1755  0.2012 -0.4590
  164SAPE  H18X18522   4.925   0.589   8.562  0.6740  1.1924 -0.1391
  164SAPE  H18Y18523   5.038   0.573   8.417 -0.3929 -1.9674  0.3561
  164SAPE  H18Z18524   4.855   0.579   8.395 -2.3059  0.2375  2.9236
  165SAPE     N18525   4.960   3.919   5.899  0.1728 -0.5366  0.1190
  165SAPE   HN118526   4.926   4.010   5.938  2.2278  0.4044 -0.2329
  165SAPE   HN218527   5.024   3.932   5.818  2.1479 -0.2443  1.6839
  165SAPE   HN318528   4.877   3.860   5.879  0.0396 -0.3474  0.1123
  165SAPE   C1218529   5.057   3.868   5.999  0.2228  0.5008 -0.6374
  165SAPE  H12A18530   5.144   3.935   6.009  0.5625  0.0209 -0.3480
  165SAPE  H12B18531   5.096   3.767   5.974  1.7068  1.0404 -0.5285
  165SAPE   C1118532   4.991   3.867   6.140 -0.0213 -0.7298 -0.0479
  165SAPE  H11A18533   5.067   3.827   6.211  2.5589 -0.3668 -2.5167
  165SAPE  H11B18534   4.904   3.799   6.135 -1.3813  1.0246 -0.9179
  165SAPE     P18535   5.019   4.070   6.290 -0.5275  0.0343  0.2804
  165SAPE   O1318536   5.165   4.079   6.257 -0.1790 -0.2451  0.5077
  165SAPE   O1418537   4.956   4.196   6.327 -0.6837 -0.4673  0.4065
  165SAPE   O1218538   4.942   3.998   6.169  0.2720 -0.0806 -0.4733
  165SAPE   O1118539   4.996   3.967   6.411 -0.0409 -0.1491 -0.0107
  165SAPE    C118540   4.866   3.905   6.428  0.3605 -0.5074 -0.2568
  165SAPE    HA18541   4.801   3.934   6.343  0.4320  0.2822 -0.0537
  165SAPE    HB18542   4.871   3.795   6.436  1.8321 -0.8919 -4.8876
  165SAPE    C218543   4.797   3.958   6.551  0.5659 -0.8997  0.8141
  165SAPE    HS18544   4.817   4.067   6.558 -0.5451 -0.6015 -0.4823
  165SAPE   O2118545   4.832   3.885   6.663  0.0367  0.1284  0.0837
  165SAPE   C2118546   4.930   3.938   6.734 -0.3562  0.0214  0.0910
  165SAPE   O2218547   4.970   4.058   6.727 -0.2811  0.2019 -0.5212
  165SAPE   C2218548   4.974   3.839   6.849 -0.0722 -0.2914  0.3685
  165SAPE   H2R18549   4.937   3.891   6.940  3.0285  2.3972  0.1778
  165SAPE   H2S18550   4.916   3.748   6.824  0.1782 -0.4357  0.3172
  165SAPE    C318551   4.639   3.941   6.546 -0.8256  0.1145  0.3421
  165SAPE    HX18552   4.615   3.834   6.527  1.3258 -0.4556  0.6477
  165SAPE    HY18553   4.601   3.983   6.450 -0.9354 -0.8156 -0.0257
  165SAPE   O3118554   4.573   3.996   6.662  0.3215  0.2177 -0.6273
  165SAPE   C3118555   4.566   4.136   6.673 -0.3066  0.4082  0.2463
  165SAPE   O3218556   4.607   4.207   6.587  0.0865  0.1325  0.0417
  165SAPE   C3218557   4.522   4.173   6.818 -0.1378 -0.0732  0.1465
  165SAPE   H2X18558   4.424   4.127   6.843  1.2435 -1.7257  2.6775
  165SAPE   H2Y18559   4.501   4.282   6.816 -1.4024 -0.3215 -3.7017
  165SAPE   C2318560   5.122   3.801   6.862  0.0674  0.1970  0.0146
  165SAPE   H3R18561   5.177   3.897   6.846 -0.0039  0.3675  0.7644
  165SAPE   H3S18562   5.137   3.728   6.780 -1.8058  0.1408 -0.3009
  165SAPE   C2418563   5.147   3.737   6.997 -0.0606  0.0227  0.4549
  165SAPE   H4R18564   5.150   3.805   7.085 -0.3836 -0.2550  0.6804
  165SAPE   H4S18565   5.247   3.689   7.005 -0.8436 -1.7130  0.0902
  165SAPE   C2518566   5.045   3.626   7.029  0.2724 -0.0751  0.5709
  165SAPE   H5R18567   5.034   3.536   6.967 -3.0016 -0.1475  1.1466
  165SAPE   C2618568   4.957   3.634   7.132  0.3768 -0.5373 -0.3031
  165SAPE   H6R18569   4.902   3.538   7.133 -0.3223 -0.1617 -1.3091
  165SAPE   C2718570   4.934   3.749   7.233  0.0084 -0.4469  0.2327
  165SAPE   H7R18571   4.826   3.745   7.260 -0.0891 -0.0035 -0.0753
  165SAPE   H7S18572   4.954   3.849   7.190 -0.2666  0.0939  1.3206
  165SAPE   C2818573   5.028   3.703   7.344 -0.1031  0.6721  0.1461
  165SAPE   H8R18574   5.127   3.668   7.312 -0.6115 -0.2192 -0.4801
  165SAPE   C2918575   5.015   3.705   7.475  0.0669  0.1016 -0.1569
  165SAPE   H9R18576   5.096   3.662   7.536  1.3492  1.9707 -0.5020
  165SAPE  C21018577   4.893   3.750   7.561  0.1952 -0.8931  0.4144
  165SAPE  H10R18578   4.813   3.788   7.494  0.9140 -1.4161 -0.7614
  165SAPE  H10S18579   4.914   3.832   7.633 -1.1285 -1.3727  1.3751
  165SAPE  C21118580   4.841   3.636   7.635 -0.1432  0.5670 -0.3427
  165SAPE  H11R18581   4.794   3.563   7.569 -0.1644  0.2779 -0.0089
  165SAPE  C21218582   4.826   3.615   7.767  0.4123  0.9448 -0.1659
  165SAPE  H12R18583   4.795   3.516   7.801 -0.8723  1.3097 -0.2585
  165SAPE  C21318584   4.867   3.702   7.883  0.6985  0.3356 -0.0093
  165SAPE  H13R18585   4.796   3.689   7.968 -1.1390  0.9713 -1.4211
  165SAPE  H13S18586   4.848   3.807   7.852 -0.6351  0.2271  0.4189
  165SAPE  C21418587   5.015   3.683   7.924 -0.0671  0.3896 -0.5718
  165SAPE  H14R18588   5.092   3.635   7.862  2.3058  0.4109  2.2411
  165SAPE  C21518589   5.050   3.711   8.050  0.1294  0.0905 -0.9085
  165SAPE  H15R18590   5.149   3.673   8.078 -1.6006 -1.8062  2.9029
  165SAPE  C21618591   4.958   3.765   8.159  0.2201  0.1458 -0.0130
  165SAPE  H16R18592   4.867   3.818   8.124 -0.4990 -0.5246  0.8390
  165SAPE  H16S18593   5.013   3.838   8.222 -1.7112  2.1047 -0.5626
  165SAPE  C21718594   4.909   3.643   8.240  0.2809 -0.2898 -0.5677
  165SAPE  H17R18595   4.998   3.587   8.274 -0.7308 -0.7658  1.3881
  165SAPE  H17S18596   4.850   3.577   8.172 -1.5192 -0.3369  0.9829
  165SAPE  C21818597   4.821   3.678   8.358 -0.1631 -0.4182 -0.0894
  165SAPE  H18R18598   4.772   3.586   8.397 -0.9001  0.8384  2.0014
  165SAPE  H18S18599   4.748   3.745   8.307  2.0349  0.5120 -2.1130
  165SAPE  C21918600   4.884   3.751   8.475  0.3200  0.0409  0.1259
  165SAPE  H19R18601   4.936   3.843   8.442 -2.9518  2.3036  1.0645
  165SAPE  H19S18602   4.955   3.681   8.525  0.7289  0.6406  0.3939
  165SAPE  C22018603   4.790   3.807   8.581  0.9595  0.1470  0.6721
  165SAPE  H20R18604   4.738   3.720   8.627 -0.8195 -0.7560 -2.8751
  165SAPE  H20S18605   4.708   3.867   8.537 -1.5189 -2.9994  0.7855
  165SAPE  H20T18606   4.849   3.868   8.653  0.8372 -0.9334  1.7242
  165SAPE   C3318607   4.632   4.139   6.928  0.2869 -0.1246  0.0894
  165SAPE   H3X18608   4.732   4.174   6.893 -0.5547  1.2135 -1.0585
  165SAPE   H3Y18609   4.633   4.028   6.940 -0.2618 -0.4811 -2.7288
  165SAPE   C3418610   4.601   4.221   7.050  0.0620  0.4617  0.1425
  165SAPE   H4X18611   4.494   4.220   7.079  0.0130  1.2050 -0.0122
  165SAPE   H4Y18612   4.612   4.328   7.021  1.5199 -0.7001 -3.9137
  165SAPE   C3518613   4.685   4.173   7.172 -0.2056 -0.1947 -0.1438
  165SAPE   H5X18614   4.679   4.250   7.252  3.0629  0.3607 -0.3495
  165SAPE   H5Y18615   4.794   4.184   7.154 -0.1638  2.3534  1.4415
  165SAPE   C3618616   4.649   4.036   7.213  0.0069 -0.0572 -0.6521
  165SAPE   H6X18617   4.700   3.966   7.144  0.4054 -0.7110  0.2887
  165SAPE   H6Y18618   4.538   4.026   7.209  0.1667 -2.1429 -0.3351
  165SAPE   C3718619   4.691   3.998   7.356 -0.1061 -0.2565 -0.0733
  165SAPE   H7X18620   4.802   4.007   7.361 -0.0758 -0.4986 -0.2898
  165SAPE   H7Y18621   4.666   3.891   7.374 -2.1601 -0.3505 -3.1880
  165SAPE   C3818622   4.623   4.082   7.472 -0.4923  0.6535 -0.3298
  165SAPE   H8X18623   4.513   4.078   7.462 -0.6748 -0.1088  1.7136
  165SAPE   H8Y18624   4.661   4.184   7.447  1.3236 -0.2877 -1.6110
  165SAPE   C3918625   4.670   4.035   7.608  0.1821 -0.1804  0.0023
  165SAPE   H9X18626   4.773   4.068   7.632 -0.5853  0.3128  2.8010
  165SAPE   H9Y18627   4.680   3.925   7.604  0.0256 -0.1680 -0.8594
  165SAPE  C31018628   4.581   4.087   7.725  0.5979 -0.2059  0.3501
  165SAPE  H10X18629   4.477   4.097   7.688  1.3729 -0.1778 -1.8740
  165SAPE  H10Y18630   4.611   4.192   7.746 -0.1237 -0.0821  0.7714
  165SAPE  C31118631   4.590   3.998   7.843 -0.0184 -0.4979  0.2898
  165SAPE  H11X18632   4.695   3.998   7.881 -0.3406  0.1675  1.2078
  165SAPE  H11Y18633   4.555   3.897   7.813 -0.8521  0.4372 -2.0000
  165SAPE  C31218634   4.520   4.038   7.969 -0.3149 -0.3330  0.3679
  165SAPE  H12X18635   4.412   4.061   7.956 -0.0153  0.9533  0.1607
  165SAPE  H12Y18636   4.559   4.137   8.001 -2.2263  1.2666 -2.1092
  165SAPE  C31318637   4.518   3.943   8.082 -0.1881 -0.2841  0.6204
  165SAPE  H13X18638   4.623   3.919   8.112 -0.2351  0.6879  1.5754
  165SAPE  H13Y18639   4.476   3.843   8.057  0.4592 -0.3335 -0.3140
  165SAPE  C31418640   4.443   3.997   8.203 -0.5037  0.1617 -0.0669
  165SAPE  H14X18641   4.339   4.012   8.169 -0.8198 -0.2528  0.7184
  165SAPE  H14Y18642   4.497   4.079   8.255 -1.8795  2.0976 -1.6229
  165SAPE  C31518643   4.427   3.889   8.309 -0.2564  0.4373 -0.1335
  165SAPE  H15X18644   4.526   3.848   8.338 -1.2351 -2.3878 -0.6909
  165SAPE  H15Y18645   4.367   3.806   8.266  1.2135 -2.0168  2.3602
  165SAPE  C31618646   4.368   3.949   8.436  0.1877  0.2444 -0.1300
  165SAPE  H16X18647   4.266   3.990   8.422 -0.2922 -0.4517  1.2633
  165SAPE  H16Y18648   4.426   4.041   8.458  0.6695  0.2460 -1.3427
  165SAPE  C31718649   4.354   3.855   8.552  0.2464 -0.1909 -0.3504
  165SAPE  H17X18650   4.450   3.799   8.557 -0.0111 -0.6320 -0.2694
  165SAPE  H17Y18651   4.278   3.776   8.536 -0.8340  0.5706  0.8671
  165SAPE  C31818652   4.315   3.921   8.683  0.6204  0.1745 -0.0349
  165SAPE  H18X18653   4.400   3.985   8.716  0.7617 -0.0779  0.0928
  165SAPE  H18Y18654   4.294   3.835   8.749 -0.5952 -0.8924 -1.7915
  165SAPE  H18Z18655   4.225   3.986   8.675 -0.2677 -0.7857  2.0243
  166SAPE     N18656   4.465   1.143   5.883 -0.5306 -0.2993 -0.3860
  166SAPE   HN118657   4.492   1.223   5.823  2.4690  0.2946  1.6598
  166SAPE   HN218658   4.408   1.164   5.967 -1.4244 -2.5213 -0.3977
  166SAPE   HN318659   4.546   1.087   5.915  0.9310  1.0541 -1.5847
  166SAPE   C1218660   4.380   1.054   5.799  1.1742 -0.3755 -0.2120
  166SAPE  H12A18661   4.426   1.021   5.704 -0.4265 -0.7239 -0.8869
  166SAPE  H12B18662   4.298   1.115   5.755  1.4164 -2.9159 -4.4539
  166SAPE   C1118663   4.341   0.931   5.884  0.3388  0.5388 -0.2184
  166SAPE  H11A18664   4.286   0.871   5.808  1.1771 -2.5863  1.5559
  166SAPE  H11B18665   4.279   0.950   5.975  2.1086  0.0709  1.1251
  166SAPE     P18666   4.440   0.727   6.004 -0.3228 -0.1445  0.5512
  166SAPE   O1318667   4.341   0.655   5.927 -0.3704  0.6762  0.5116
  166SAPE   O1418668   4.577   0.674   6.020  0.5643 -0.5352  0.1800
  166SAPE   O1218669   4.458   0.866   5.927  0.2687 -0.1702  0.3835
  166SAPE   O1118670   4.379   0.773   6.143 -0.1563  0.2605 -0.0782
  166SAPE    C118671   4.456   0.839   6.241  0.0126 -0.0906  0.4990
  166SAPE    HA18672   4.562   0.810   6.246 -0.0728 -0.1125  2.5143
  166SAPE    HB18673   4.466   0.947   6.214  1.5257  0.5560  3.4481
  166SAPE    C218674   4.392   0.823   6.383  0.8118  0.0171  0.0814
  166SAPE    HS18675   4.292   0.871   6.378  0.2215 -1.1521  0.7171
  166SAPE   O2118676   4.471   0.872   6.488 -0.1813 -0.5750  0.3460
  166SAPE   C2118677   4.457   1.004   6.511 -0.1667  0.2451  0.5931
  166SAPE   O2218678   4.387   1.076   6.441 -0.1504 -0.1928 -0.2532
  166SAPE   C2218679   4.534   1.057   6.632 -0.2551  0.6589 -0.2867
  166SAPE   H2R18680   4.637   1.023   6.611  0.8118  1.8787  2.6525
  166SAPE   H2S18681   4.522   1.167   6.644 -0.2226  0.7239 -0.8479
  166SAPE    C318682   4.372   0.666   6.414  0.2174  0.4620  0.4071
  166SAPE    HX18683   4.473   0.623   6.404 -0.2221 -0.5806  0.4116
  166SAPE    HY18684   4.306   0.624   6.335 -0.6925  1.0995  0.8060
  166SAPE   O3118685   4.325   0.624   6.546 -0.1461 -0.3679  0.8333
  166SAPE   C3118686   4.192   0.618   6.553 -0.7578  0.2159 -0.2724
  166SAPE   O3218687   4.112   0.668   6.476  0.4576 -0.7192  0.1389
  166SAPE   C3218688   4.153   0.544   6.686  0.4495 -0.0064 -0.7142
  166SAPE   H2X18689   4.200   0.443   6.677 -1.5684 -1.0561  0.1107
  166SAPE   H2Y18690   4.042   0.538   6.683  0.3897  1.0290 -0.5472
  166SAPE   C2318691   4.489   0.983   6.761  0.4478 -0.9059  0.3948
  166SAPE   H3R18692   4.469   0.876   6.737  3.3180 -1.2553 -0.6720
  166SAPE   H3S18693   4.393   1.031   6.789  0.7824  0.3498 -0.5472
  166SAPE   C2418694   4.589   1.000   6.878  0.4129 -0.4621  0.1091
  166SAPE   H4R18695   4.531   0.989   6.973  3.3160 -2.2098  1.7719
  166SAPE   H4S18696   4.636   1.100   6.874 -0.7468  0.0859 -0.0377
  166SAPE   C2518697   4.701   0.894   6.877  0.2283  0.0722  0.3380
  166SAPE   H5R18698   4.756   0.879   6.783 -2.9230 -1.4143 -1.3498
  166SAPE   C2618699   4.723   0.808   6.978 -0.4369  0.0070 -0.5903
  166SAPE   H6R18700   4.819   0.754   6.971 -0.5477 -0.6306  2.1258
  166SAPE   C2718701   4.657   0.795   7.118 -0.5882  0.3786 -0.3039
  166SAPE   H7R18702   4.548   0.818   7.115  0.0827  3.7171 -0.6351
  166SAPE   H7S18703   4.694   0.885   7.171 -1.2361  0.5779 -0.1774
  166SAPE   C2818704   4.664   0.665   7.191 -0.2276  0.1550  0.1392
  166SAPE   H8R18705   4.605   0.586   7.143 -0.5646  1.4949 -1.7264
  166SAPE   C2918706   4.735   0.635   7.294 -0.6789  0.9716 -0.1423
  166SAPE   H9R18707   4.721   0.533   7.330 -0.3566  0.7898 -0.5314
  166SAPE  C21018708   4.838   0.715   7.365 -0.2046  0.1456  0.2034
  166SAPE  H10R18709   4.842   0.815   7.316 -1.6752 -0.6496 -1.6090
  166SAPE  H10S18710   4.936   0.667   7.348 -0.5933 -0.1806 -1.2238
  166SAPE  C21118711   4.795   0.718   7.511  0.5465  0.1041 -0.0655
  166SAPE  H11R18712   4.708   0.783   7.530 -1.0853 -1.4720 -1.9351
  166SAPE  C21218713   4.855   0.676   7.622  0.2268 -0.2431 -0.7223
  166SAPE  H12R18714   4.805   0.681   7.720  1.8239  0.5022  0.0686
  166SAPE  C21318715   4.990   0.607   7.629  0.0052  0.3441 -0.2670
  166SAPE  H13R18716   5.039   0.637   7.724 -1.3820  0.4789  0.4216
  166SAPE  H13S18717   5.060   0.650   7.554 -0.5469 -0.1552 -1.0756
  166SAPE  C21418718   4.992   0.456   7.637  0.0739  0.1001  0.3518
  166SAPE  H14R18719   5.009   0.413   7.537  0.4914 -1.4308  1.0653
  166SAPE  C21518720   4.970   0.371   7.736  0.1952 -0.3520 -0.4516
  166SAPE  H15R18721   4.974   0.263   7.718  0.4755 -0.5440  0.7390
  166SAPE  C21618722   4.945   0.406   7.878 -0.3494  0.5704 -0.4180
  166SAPE  H16R18723   4.840   0.373   7.894  0.7861 -2.2713  1.4500
  166SAPE  H16S18724   4.943   0.517   7.886  0.9377  0.5886 -0.1350
  166SAPE  C21718725   5.048   0.335   7.978 -0.9169 -0.3583 -0.1567
  166SAPE  H17R18726   5.036   0.225   7.985  0.5367 -0.4775  0.5968
  166SAPE  H17S18727   5.018   0.376   8.077  1.8093  1.1784  0.0794
  166SAPE  C21818728   5.191   0.387   7.957  0.5858 -0.2806  1.1055
  166SAPE  H18R18729   5.188   0.496   7.974  0.0550  0.1867 -1.6968
  166SAPE  H18S18730   5.221   0.355   7.855 -1.3613 -2.2596  1.1160
  166SAPE  C21918731   5.299   0.335   8.056 -0.2006  0.2611 -0.5226
  166SAPE  H19R18732   5.401   0.341   8.013  0.2600  0.5104  0.5819
  166SAPE  H19S18733   5.272   0.229   8.073 -2.1824  0.7191 -0.5877
  166SAPE  C22018734   5.314   0.401   8.192 -0.1268  0.0925 -0.2936
  166SAPE  H20R18735   5.219   0.391   8.248  1.0577  0.4991  1.8133
  166SAPE  H20S18736   5.349   0.506   8.182 -1.8669  0.8090  0.8451
  166SAPE  H20T18737   5.399   0.349   8.241  0.8260  0.9436 -1.0248
  166SAPE   C3318738   4.194   0.622   6.810  0.8028  0.0259  0.0654
  166SAPE   H3X18739   4.302   0.648   6.809  0.9738 -0.6711  0.0331
  166SAPE   H3Y18740   4.175   0.543   6.886 -0.8575 -0.6553 -1.0178
  166SAPE   C3418741   4.114   0.740   6.843 -0.1803 -0.4366  0.2415
  166SAPE   H4X18742   4.008   0.720   6.816 -0.6238  3.1255 -0.8673
  166SAPE   H4Y18743   4.152   0.825   6.781  0.1486  1.4034  2.9042
  166SAPE   C3518744   4.112   0.761   6.997  0.2288 -0.7028  1.1011
  166SAPE   H5X18745   4.087   0.666   7.049  2.6204 -0.6130  2.4849
  166SAPE   H5Y18746   4.033   0.838   7.012  0.4742 -0.4636  1.1665
  166SAPE   C3618747   4.251   0.811   7.048  0.5951  1.0354 -0.3266
  166SAPE   H6X18748   4.278   0.906   6.996 -0.0226 -0.0829 -2.7755
  166SAPE   H6Y18749   4.319   0.725   7.031 -0.5713  0.2277 -1.0387
  166SAPE   C3718750   4.258   0.837   7.198  0.0036  0.0666 -0.4532
  166SAPE   H7X18751   4.357   0.878   7.226  0.6449 -1.2772 -0.6987
  166SAPE   H7Y18752   4.238   0.746   7.258 -1.2655  2.6805  3.2465
  166SAPE   C3818753   4.166   0.944   7.250  1.0337 -0.6921 -0.1175
  166SAPE   H8X18754   4.060   0.920   7.227  0.1622  2.9200 -0.0992
  166SAPE   H8Y18755   4.194   1.039   7.201  2.6234 -1.6023 -1.0228
  166SAPE   C3918756   4.179   0.961   7.397  0.1928  0.1507  0.4335
  166SAPE   H9X18757   4.286   0.954   7.426  0.2522  0.9391  0.3972
  166SAPE   H9Y18758   4.133   0.866   7.431 -1.0921 -0.5434 -3.0860
  166SAPE  C31018759   4.110   1.081   7.459 -0.0290 -0.1037 -0.0200
  166SAPE  H10X18760   4.010   1.091   7.411 -0.6199 -1.0787  0.9941
  166SAPE  H10Y18761   4.167   1.176   7.453  2.1781 -1.2956  1.5820
  166SAPE  C31118762   4.076   1.056   7.608  0.1200 -0.1516 -0.3351
  166SAPE  H11X18763   4.173   1.053   7.662  0.3124  1.7387 -0.5411
  166SAPE  H11Y18764   4.021   0.962   7.629 -0.2101  0.2949  0.8695
  166SAPE  C31218765   4.002   1.177   7.666  0.1366 -1.0476  0.2724
  166SAPE  H12X18766   3.903   1.192   7.618  0.0058  0.4755  1.0081
  166SAPE  H12Y18767   4.052   1.275   7.654 -1.5238 -0.1123  0.8581
  166SAPE  C31318768   3.966   1.150   7.812 -0.6221 -0.5433  0.5260
  166SAPE  H13X18769   4.055   1.144   7.878  1.2793 -0.5988 -1.9485
  166SAPE  H13Y18770   3.905   1.062   7.841 -0.7414  0.2345  2.6948
  166SAPE  C31418771   3.886   1.273   7.856  0.2145 -1.0431 -0.0076
  166SAPE  H14X18772   3.796   1.283   7.791 -0.2057  2.5364  1.0106
  166SAPE  H14Y18773   3.944   1.367   7.859  0.4488 -1.2096  0.9729
  166SAPE  C31518774   3.825   1.256   7.998  0.5319 -0.3036  0.2830
  166SAPE  H15X18775   3.800   1.353   8.047  0.3471  0.1336 -0.6664
  166SAPE  H15Y18776   3.903   1.210   8.062  1.1164 -3.2016 -2.4127
  166SAPE  C31618777   3.706   1.161   8.002  1.0700  0.6862  0.1901
  166SAPE  H16X18778   3.728   1.066   7.947 -3.9770  0.0181 -0.9373
  166SAPE  H16Y18779   3.628   1.211   7.940  1.4874  1.4955  0.3127
  166SAPE  C31718780   3.674   1.116   8.141  0.2833 -0.6210  0.0197
  166SAPE  H17X18781   3.578   1.063   8.130  0.5627 -0.6905 -2.2180
  166SAPE  H17Y18782   3.653   1.203   8.207 -0.5298  0.5430 -1.7536
  166SAPE  C31818783   3.774   1.019   8.206  0.4768 -0.7029 -0.2903
  166SAPE  H18X18784   3.855   1.056   8.273  0.5355 -3.0570  0.9763
  166SAPE  H18Y18785   3.835   0.954   8.140  1.1002  0.2745 -0.6928
  166SAPE  H18Z18786   3.714   0.948   8.267 -1.2295  0.1587 -0.9360
  167SAPE     N18787   5.881   6.572   6.147  0.5021 -0.0400 -0.6023
  167SAPE   HN118788   5.805   6.532   6.087  0.4701  0.1088 -0.6629
  167SAPE   HN218789   5.958   6.594   6.081 -0.0610  1.8869 -0.6574
  167SAPE   HN318790   5.915   6.493   6.205  1.5580  0.8558  0.0085
  167SAPE   C1218791   5.847   6.694   6.229  0.1668  0.2231  0.8300
  167SAPE  H12A18792   5.752   6.663   6.278 -0.6579  0.2682 -0.6980
  167SAPE  H12B18793   5.828   6.785   6.167 -0.0985  1.2353  2.3740
  167SAPE   C1118794   5.959   6.714   6.327 -0.2141  0.4291  0.0528
  167SAPE  H11A18795   5.952   6.647   6.416 -2.6517 -0.8939 -1.0846
  167SAPE  H11B18796   5.946   6.818   6.364 -1.0902 -0.6944  3.0226
  167SAPE     P18797   6.166   6.809   6.197 -0.1690 -0.0804 -0.1476
  167SAPE   O1318798   6.280   6.752   6.128  0.3106 -0.0683 -0.1268
  167SAPE   O1418799   6.071   6.891   6.113  0.5439 -0.0546 -0.2444
  167SAPE   O1218800   6.089   6.696   6.271 -0.2824  0.3828  0.0328
  167SAPE   O1118801   6.243   6.893   6.311  0.0594 -0.1279  0.4429
  167SAPE    C118802   6.338   6.824   6.406 -0.1111 -0.0045  0.5109
  167SAPE    HA18803   6.386   6.746   6.344 -0.1678  0.6268 -0.3449
  167SAPE    HB18804   6.422   6.891   6.436 -0.0769  0.8756 -1.4686
  167SAPE    C218805   6.278   6.749   6.530 -0.2074  0.1124  0.2726
  167SAPE    HS18806   6.207   6.677   6.484  0.3908  0.3409 -1.0613
  167SAPE   O2118807   6.218   6.842   6.620  0.2858 -0.7371 -0.8838
  167SAPE   C2118808   6.116   6.792   6.688  0.0447 -0.1896  0.5458
  167SAPE   O2218809   6.054   6.689   6.659  0.1137  0.4183 -0.1178
  167SAPE   C2218810   6.082   6.885   6.806 -0.4616 -0.1590 -0.2096
  167SAPE   H2R18811   6.109   6.991   6.788 -0.5823 -0.4310 -2.1481
  167SAPE   H2S18812   5.972   6.888   6.824 -0.1847 -0.7490  1.6627
  167SAPE    C318813   6.395   6.674   6.598 -0.0113 -0.2866 -0.3479
  167SAPE    HX18814   6.462   6.746   6.650  0.8178 -1.5989  0.4205
  167SAPE    HY18815   6.447   6.621   6.516 -3.7620 -3.5500 -0.7598
  167SAPE   O3118816   6.342   6.583   6.699  0.8983 -0.5891 -0.2678
  167SAPE   C3118817   6.281   6.468   6.664  0.7289 -0.3285  0.0170
  167SAPE   O3218818   6.275   6.429   6.552  0.0639  0.1696  0.1644
  167SAPE   C3218819   6.232   6.403   6.792 -0.2106 -0.4927 -0.0119
  167SAPE   H2X18820   6.164   6.471   6.846  0.0145  0.1643 -0.5495
  167SAPE   H2Y18821   6.326   6.402   6.851 -0.0746  0.3027 -0.2167
  167SAPE   C2318822   6.148   6.827   6.928 -0.1806 -0.4916  0.2052
  167SAPE   H3R18823   6.258   6.833   6.915 -0.2382  1.3515  0.4275
  167SAPE   H3S18824   6.134   6.717   6.935  0.0136 -0.4309  1.8228
  167SAPE   C2418825   6.110   6.895   7.062  0.5443 -0.2657 -0.3917
  167SAPE   H4R18826   6.149   6.825   7.138 -0.0421 -1.0038 -0.7642
  167SAPE   H4S18827   5.999   6.904   7.067  0.5419 -0.7420  0.4682
  167SAPE   C2518828   6.167   7.035   7.056  0.7153  0.7580  0.4965
  167SAPE   H5R18829   6.134   7.103   6.977 -1.1154 -1.4274 -0.6792
  167SAPE   C2618830   6.272   7.067   7.136  0.7823 -0.4140 -0.0968
  167SAPE   H6R18831   6.297   7.174   7.143  1.0179 -0.6204  3.0049
  167SAPE   C2718832   6.334   6.978   7.249  0.3806  0.0218 -0.9234
  167SAPE   H7R18833   6.376   6.879   7.220 -0.0702 -1.1600  2.1868
  167SAPE   H7S18834   6.246   6.943   7.309  1.9076 -0.6396  0.9819
  167SAPE   C2818835   6.439   7.043   7.337  0.4441 -0.3172 -0.5974
  167SAPE   H8R18836   6.528   7.085   7.288  2.8561 -0.5263  3.4388
  167SAPE   C2918837   6.451   7.036   7.473  0.0234 -0.1518  0.0330
  167SAPE   H9R18838   6.529   7.101   7.515  0.5764  0.6991 -2.2435
  167SAPE  C21018839   6.356   6.967   7.568 -0.1509 -0.3571  0.8413
  167SAPE  H10R18840   6.391   6.989   7.671 -0.2523  1.1111  0.5678
  167SAPE  H10S18841   6.365   6.856   7.564  0.5363 -0.2848  0.3248
  167SAPE  C21118842   6.212   7.009   7.561  0.7740  0.2357  0.2983
  167SAPE  H11R18843   6.190   7.106   7.515 -0.1239 -0.4558 -0.7441
  167SAPE  C21218844   6.106   6.944   7.599  0.7806  0.4513 -0.8030
  167SAPE  H12R18845   6.007   6.989   7.586 -0.3319 -1.8192 -0.4386
  167SAPE  C21318846   6.115   6.811   7.671 -0.2602  0.4820  0.1608
  167SAPE  H13R18847   6.214   6.792   7.718  0.4352 -1.2733 -1.9154
  167SAPE  H13S18848   6.097   6.736   7.591 -1.3938  1.2736 -0.3411
  167SAPE  C21418849   6.010   6.776   7.779  0.3906  0.4783 -0.4923
  167SAPE  H14R18850   5.928   6.705   7.762  1.0288 -0.3955  0.0750
  167SAPE  C21518851   6.008   6.838   7.907 -0.0001 -0.0958  0.1614
  167SAPE  H15R18852   5.939   6.808   7.987 -0.3504  0.8026  0.2061
  167SAPE  C21618853   6.101   6.948   7.947  0.6846 -0.2307 -0.4853
  167SAPE  H16R18854   6.051   7.047   7.943  0.3533 -0.3937 -0.4211
  167SAPE  H16S18855   6.186   6.954   7.875  1.6803  1.6912  0.8106
  167SAPE  C21718856   6.175   6.914   8.076 -0.5977  0.6509 -0.4848
  167SAPE  H17R18857   6.238   6.824   8.058 -1.0812  0.3880 -0.8768
  167SAPE  H17S18858   6.093   6.892   8.148  2.2584 -2.3631  2.0527
  167SAPE  C21818859   6.271   7.017   8.132 -0.0519 -0.2184 -0.0520
  167SAPE  H18R18860   6.202   7.102   8.153  1.1666  0.7943 -0.0430
  167SAPE  H18S18861   6.358   7.045   8.068  0.0177 -0.0391  0.1193
  167SAPE  C21918862   6.338   6.976   8.261 -0.0303 -0.3669  0.4113
  167SAPE  H19R18863   6.414   6.899   8.235 -2.6668 -2.6890 -0.5497
  167SAPE  H19S18864   6.259   6.923   8.318 -2.3431  2.3530 -0.1493
  167SAPE  C22018865   6.400   7.099   8.337 -0.7148 -0.5975  0.6486
  167SAPE  H20R18866   6.487   7.144   8.284  0.4891 -2.9667  0.5727
  167SAPE  H20S18867   6.445   7.061   8.431  2.1266  0.4485 -0.2223
  167SAPE  H20T18868   6.318   7.171   8.360 -1.0245 -1.1605  1.3167
  167SAPE   C3318869   6.179   6.259   6.771 -0.2563  0.8886 -0.1794
  167SAPE   H3X18870   6.251   6.188   6.725 -1.2747  0.1024 -0.6014
  167SAPE   H3Y18871   6.079   6.264   6.722 -1.5864 -1.0486  2.2286
  167SAPE   C3418872   6.155   6.192   6.904 -1.2163 -0.4166 -0.7020
  167SAPE   H4X18873   6.249   6.184   6.963 -2.0927 -3.0811  0.3907
  167SAPE   H4Y18874   6.126   6.087   6.881 -0.0651 -0.8438 -0.2494
  167SAPE   C3518875   6.043   6.255   6.994  0.2559  0.3281  0.0690
  167SAPE   H5X18876   5.952   6.274   6.934  0.0157 -3.8350 -0.9900
  167SAPE   H5Y18877   6.090   6.350   7.029 -1.9969  0.8957  1.6053
  167SAPE   C3618878   6.019   6.156   7.107  0.5800  0.1616  0.1826
  167SAPE   H6X18879   6.113   6.103   7.133  0.4177 -1.7028 -2.8106
  167SAPE   H6Y18880   5.958   6.076   7.060  0.8335  0.4862 -0.7034
  167SAPE   C3718881   5.946   6.231   7.222  0.9177 -0.4241 -0.1267
  167SAPE   H7X18882   5.849   6.276   7.191  0.5161 -0.3149  1.2516
  167SAPE   H7Y18883   6.012   6.318   7.239  1.7918 -0.7505 -1.7313
  167SAPE   C3818884   5.924   6.156   7.346  1.0606  0.5035 -0.8476
  167SAPE   H8X18885   5.999   6.078   7.373 -1.3547 -1.5332  0.1329
  167SAPE   H8Y18886   5.833   6.097   7.322  1.6115  0.3346 -2.5820
  167SAPE   C3918887   5.906   6.250   7.469  0.6357 -0.5270  0.3196
  167SAPE   H9X18888   5.815   6.313   7.459  1.4969  0.9904  1.9592
  167SAPE   H9Y18889   5.994   6.317   7.470  1.0085 -1.0074  0.1492
  167SAPE  C31018890   5.900   6.174   7.608 -0.7315 -0.0369  0.2520
  167SAPE  H10X18891   5.902   6.254   7.686 -1.9360  0.0459  0.1948
  167SAPE  H10Y18892   5.992   6.112   7.618 -1.8154 -1.6671  0.2791
  167SAPE  C31118893   5.778   6.089   7.632  0.5451 -0.9617 -0.9244
  167SAPE  H11X18894   5.772   6.002   7.563  0.9445 -1.9705  0.2854
  167SAPE  H11Y18895   5.692   6.154   7.608  0.6226 -1.1117 -1.6411
  167SAPE  C31218896   5.755   6.033   7.772 -0.4343 -0.0316  0.1657
  167SAPE  H12X18897   5.763   6.117   7.844  0.3116  0.4187 -0.4384
  167SAPE  H12Y18898   5.832   5.960   7.806  0.6267 -0.0613 -2.2248
  167SAPE  C31318899   5.613   5.977   7.794 -0.7342 -0.1904  0.0484
  167SAPE  H13X18900   5.622   5.879   7.743  0.0157  0.3177 -0.8196
  167SAPE  H13Y18901   5.536   6.044   7.751  0.0412  0.7303  0.0711
  167SAPE  C31418902   5.566   5.951   7.937  0.1535  0.3168 -0.4188
  167SAPE  H14X18903   5.481   5.881   7.924  3.0165 -2.7433 -4.1983
  167SAPE  H14Y18904   5.553   6.048   7.990  1.4421  0.2555  0.0287
  167SAPE  C31518905   5.673   5.862   8.018 -0.3470  0.0177  0.3922
  167SAPE  H15X18906   5.766   5.919   8.039  0.0473 -1.7069  3.6014
  167SAPE  H15Y18907   5.706   5.780   7.952  3.4750 -0.3288  2.5956
  167SAPE  C31618908   5.614   5.826   8.153 -0.6007 -0.1259  1.0067
  167SAPE  H16X18909   5.518   5.772   8.140 -1.1190  1.3101 -1.4699
  167SAPE  H16Y18910   5.584   5.922   8.200  0.5734  0.7878 -0.0737
  167SAPE  C31718911   5.715   5.755   8.243  0.0195 -0.5035 -0.0730
  167SAPE  H17X18912   5.815   5.802   8.227  0.6520 -1.7838  0.0387
  167SAPE  H17Y18913   5.714   5.650   8.207  0.1047 -0.6573  0.3780
  167SAPE  C31818914   5.684   5.767   8.391 -0.2297 -0.3477  0.0031
  167SAPE  H18X18915   5.664   5.875   8.406 -2.3220 -0.3058 -2.5711
  167SAPE  H18Y18916   5.758   5.723   8.461  1.2609 -1.4152 -2.1821
  167SAPE  H18Z18917   5.584   5.723   8.412 -0.6470 -0.8389 -2.7568
  168SAPE     N18918   0.157   0.613   6.282  0.3694  0.0355  0.0379
  168SAPE   HN118919   0.151   0.517   6.321 -1.5599 -1.1990 -3.0628
  168SAPE   HN218920   0.146   0.680   6.361 -0.3144 -0.6166  0.4988
  168SAPE   HN318921   0.075   0.623   6.219 -0.9297  0.9756  1.8143
  168SAPE   C1218922   0.276   0.651   6.200 -1.0254 -0.5430  0.4753
  168SAPE  H12A18923   0.268   0.758   6.169  0.0847 -0.8437 -0.9109
  168SAPE  H12B18924   0.288   0.579   6.116 -0.5004 -0.1642  0.2226
  168SAPE   C1118925   0.397   0.654   6.292  0.0943 -0.2107 -0.4153
  168SAPE  H11A18926   0.496   0.675   6.246  0.7546  0.7325  1.4211
  168SAPE  H11B18927   0.409   0.553   6.337 -1.1952  0.7019  2.0038
  168SAPE     P18928   0.420   0.893   6.419 -0.3641  0.2527  0.3634
  168SAPE   O1318929   0.416   0.950   6.282  0.1558  0.0287 -0.4321
  168SAPE   O1418930   0.327   0.961   6.513  0.6848 -0.5295  0.0444
  168SAPE   O1218931   0.378   0.738   6.407 -0.9385 -0.4642 -0.5780
  168SAPE   O1118932   0.567   0.906   6.479  0.3211 -0.8503  0.6880
  168SAPE    C118933   0.624   0.808   6.564  0.8979 -0.0662  0.0305
  168SAPE    HA18934   0.552   0.734   6.605  1.1600  1.0646  2.6672
  168SAPE    HB18935   0.698   0.753   6.502  0.3676 -1.0816  0.2878
  168SAPE    C218936   0.689   0.869   6.694  1.4586  0.6088  0.0163
  168SAPE    HS18937   0.746   0.787   6.742  2.2865  0.9176 -0.4212
  168SAPE   O2118938   0.594   0.924   6.786  0.0905 -0.1130  0.1670
  168SAPE   C2118939   0.527   0.838   6.861  0.4857  0.0350 -0.8104
  168SAPE   O2218940   0.534   0.719   6.859 -0.3715 -1.0055 -0.3488
  168SAPE   C2218941   0.422   0.910   6.949  0.7283  0.0713 -0.5898
  168SAPE   H2R18942   0.461   1.013   6.963  0.1749  0.0629  1.1291
  168SAPE   H2S18943   0.334   0.911   6.881 -1.6505 -1.9369  2.3400
  168SAPE    C318944   0.792   0.976   6.667  0.5251  0.5485  0.0836
  168SAPE    HX18945   0.742   1.064   6.619  1.3728  0.0401 -1.7596
  168SAPE    HY18946   0.856   0.925   6.593 -1.1798  1.3540 -1.9993
  168SAPE   O3118947   0.872   1.022   6.779 -0.4412 -0.8026 -0.0110
  168SAPE   C3118948   0.822   1.120   6.853  0.0544  0.5593 -0.5287
  168SAPE   O3218949   0.718   1.186   6.834 -0.1161  0.3636 -0.1845
  168SAPE   C3218950   0.923   1.151   6.956  0.2931 -1.1609 -0.0997
  168SAPE   H2X18951   0.989   1.233   6.919 -2.6203  1.0655 -0.5423
  168SAPE   H2Y18952   0.985   1.064   6.988  0.1151 -1.4612 -0.5602
  168SAPE   C2318953   0.381   0.844   7.084  0.7357 -0.0780  0.4217
  168SAPE   H3R18954   0.306   0.767   7.058 -1.1543  0.8629  2.8200
  168SAPE   H3S18955   0.307   0.904   7.141  1.3263  0.3089  0.7951
  168SAPE   C2418956   0.485   0.804   7.192  0.3385  0.8592  0.6503
  168SAPE   H4R18957   0.554   0.733   7.142  0.3394  0.2693  1.4683
  168SAPE   H4S18958   0.427   0.752   7.272 -0.8042  0.2074 -0.5762
  168SAPE   C2518959   0.560   0.930   7.240  0.5597 -1.1676  0.0323
  168SAPE   H5R18960   0.625   0.979   7.166  0.6051 -1.9886 -0.4808
  168SAPE   C2618961   0.533   0.990   7.352  0.4009 -0.3970 -0.3744
  168SAPE   H6R18962   0.586   1.081   7.383  0.3022 -0.2066 -0.7628
  168SAPE   C2718963   0.425   0.941   7.440 -0.0004 -0.1626 -0.1325
  168SAPE   H7R18964   0.337   0.895   7.390  0.0106 -0.3041 -0.0217
  168SAPE   H7S18965   0.389   1.034   7.488 -1.7248 -1.8364  1.8731
  168SAPE   C2818966   0.465   0.847   7.549  0.5110 -0.3250  0.3095
  168SAPE   H8R18967   0.470   0.741   7.518 -1.1800 -0.1495 -0.6449
  168SAPE   C2918968   0.517   0.883   7.667 -0.5888 -0.0560 -0.1107
  168SAPE   H9R18969   0.542   0.810   7.746 -0.8884  0.1701  0.1950
  168SAPE  C21018970   0.550   1.026   7.712 -0.5066  0.4479  0.1816
  168SAPE  H10R18971   0.454   1.070   7.747  0.5882  1.0757  2.4982
  168SAPE  H10S18972   0.579   1.092   7.627 -1.4630 -0.6494 -1.0225
  168SAPE  C21118973   0.644   1.041   7.823  0.0584  0.8528 -0.0101
  168SAPE  H11R18974   0.743   1.085   7.801 -0.8286  2.8989  0.0592
  168SAPE  C21218975   0.610   1.025   7.956 -0.0487 -0.5788  0.1050
  168SAPE  H12R18976   0.690   1.036   8.031 -1.5622 -3.1395  2.1644
  168SAPE  C21318977   0.480   0.988   8.015 -0.0399  0.4826 -0.0393
  168SAPE  H13R18978   0.398   0.979   7.941 -0.0426  0.8882 -0.0867
  168SAPE  H13S18979   0.464   1.077   8.080  1.1950  0.2452  0.6115
  168SAPE  C21418980   0.484   0.858   8.084  0.5476  0.2141 -0.0991
  168SAPE  H14R18981   0.527   0.785   8.014 -2.5663 -0.7482 -1.0885
  168SAPE  C21518982   0.444   0.834   8.212  0.2209 -0.5902  0.4671
  168SAPE  H15R18983   0.453   0.732   8.252  2.3981  0.1377  1.9396
  168SAPE  C21618984   0.379   0.933   8.296  0.3884  0.5192 -0.5755
  168SAPE  H16R18985   0.281   0.889   8.322  1.0372  0.9730  2.8893
  168SAPE  H16S18986   0.361   1.034   8.254 -1.0443  0.8115  0.7145
  168SAPE  C21718987   0.458   0.960   8.421  0.0613 -0.0562 -1.1721
  168SAPE  H17R18988   0.544   1.026   8.394  0.1963 -0.0084 -0.6328
  168SAPE  H17S18989   0.503   0.872   8.471  0.3426 -0.4349 -2.0754
  168SAPE  C21818990   0.381   1.041   8.530 -0.5828  0.2547 -0.1020
  168SAPE  H18R18991   0.328   1.132   8.496 -0.7493  0.8266  1.6749
  168SAPE  H18S18992   0.450   1.066   8.613  0.2611 -0.3327 -0.6122
  168SAPE  C21918993   0.264   0.949   8.580 -0.0379  0.8497  0.5398
  168SAPE  H19R18994   0.305   0.845   8.584  0.6189  0.9708 -1.9895
  168SAPE  H19S18995   0.177   0.950   8.510 -1.5795 -0.9782  2.3715
  168SAPE  C22018996   0.215   0.994   8.713  0.4814  0.0145 -0.2514
  168SAPE  H20R18997   0.134   0.930   8.754 -0.1647 -0.5794 -2.4258
  168SAPE  H20S18998   0.159   1.089   8.720  0.1143 -0.2596  0.6618
  168SAPE  H20T18999   0.300   0.987   8.785  1.7731 -0.3314 -1.7730
  168SAPE   C3319000   0.841   1.197   7.082 -0.5926  1.1118 -0.0827
  168SAPE   H3X19001   0.787   1.118   7.139  2.5595  0.8801  2.7215
  168SAPE   H3Y19002   0.769   1.282   7.075 -4.1004 -1.9513 -3.0325
  168SAPE   C3419003   0.945   1.237   7.190 -0.2004 -0.1737  0.0156
  168SAPE   H4X19004   1.001   1.322   7.145 -0.7261  1.0445  1.6250
  168SAPE   H4Y19005   1.013   1.151   7.203 -0.7371 -0.7215 -0.7653
  168SAPE   C3519006   0.889   1.282   7.327 -1.0553  0.5442  1.0286
  168SAPE   H5X19007   0.827   1.196   7.361  0.5191 -0.9848  0.1200
  168SAPE   H5Y19008   0.825   1.370   7.305 -1.3269  0.1119  0.0209
  168SAPE   C3619009   0.992   1.314   7.440  0.2980  0.0646  0.6199
  168SAPE   H6X19010   1.050   1.407   7.427  0.6074 -0.4259 -1.6142
  168SAPE   H6Y19011   1.072   1.237   7.438  0.0573 -0.1351 -1.7840
  168SAPE   C3719012   0.916   1.318   7.568  0.7704  0.3346 -0.8007
  168SAPE   H7X19013   0.844   1.235   7.582  1.4342  0.0840  1.4650
  168SAPE   H7Y19014   0.861   1.414   7.561  2.1554  1.1975 -0.0562
  168SAPE   C3819015   1.015   1.311   7.688 -0.5485  0.0912  0.6342
  168SAPE   H8X19016   1.054   1.414   7.702  2.8855 -0.9759 -0.3667
  168SAPE   H8Y19017   1.105   1.252   7.657  0.0161  1.5351 -0.5457
  168SAPE   C3919018   0.949   1.265   7.821  0.1464  0.3127 -0.4790
  168SAPE   H9X19019   0.965   1.160   7.852 -0.2461  0.1772 -0.7236
  168SAPE   H9Y19020   0.840   1.264   7.799 -0.0904 -1.9439  0.7255
  168SAPE  C31019021   0.989   1.346   7.953  0.9734 -0.5462 -0.2669
  168SAPE  H10X19022   0.971   1.452   7.928  0.1569 -1.4755 -3.8395
  168SAPE  H10Y19023   1.099   1.348   7.967  0.8961  2.7235  0.1015
  168SAPE  C31119024   0.904   1.293   8.070 -0.5674 -0.8486 -0.0634
  168SAPE  H11X19025   0.916   1.183   8.076  1.1384 -0.8215 -2.2490
  168SAPE  H11Y19026   0.796   1.308   8.052 -0.9514 -2.7819  0.5301
  168SAPE  C31219027   0.944   1.350   8.206 -0.2190  0.6186  0.0484
  168SAPE  H12X19028   0.935   1.459   8.187  0.4561  0.8206  0.8389
  168SAPE  H12Y19029   1.050   1.325   8.230 -0.1095  2.5316  1.7495
  168SAPE  C31319030   0.851   1.300   8.319  0.2633 -0.6981  0.2822
  168SAPE  H13X19031   0.855   1.190   8.324 -1.4052 -0.7338  1.3849
  168SAPE  H13Y19032   0.745   1.322   8.292  1.0665  2.0350 -0.8634
  168SAPE  C31419033   0.875   1.354   8.455 -0.4268  0.2709 -0.0509
  168SAPE  H14X19034   0.808   1.299   8.523 -0.9801 -1.2713 -1.8170
  168SAPE  H14Y19035   0.849   1.462   8.457 -1.4118  0.0661 -1.1529
  168SAPE  C31519036   1.018   1.343   8.512 -0.3028 -0.5038  0.2980
  168SAPE  H15X19037   1.078   1.412   8.448 -0.4836 -1.9838 -1.5087
  168SAPE  H15Y19038   1.050   1.237   8.507  0.2066 -0.2929 -1.2589
  168SAPE  C31619039   1.039   1.395   8.648  0.6550 -0.4256 -0.5844
  168SAPE  H16X19040   0.946   1.367   8.702  0.8542 -0.4847 -0.2697
  168SAPE  H16Y19041   1.038   1.507   8.649  1.2154 -0.4127 -1.1849
  168SAPE  C31719042   1.151   1.314   8.716 -0.4180 -0.6446 -0.4474
  168SAPE  H17X19043   1.247   1.321   8.661 -1.4378  0.3220 -2.1703
  168SAPE  H17Y19044   1.124   1.207   8.723 -1.1366 -0.3682  1.2786
  168SAPE  C31819045   1.190   1.362   8.855 -0.0774 -0.0636 -0.4510
  168SAPE  H18X19046   1.105   1.399   8.916  1.0112  0.1626  0.9716
  168SAPE  H18Y19047   1.259   1.448   8.842  0.0786 -0.0163  0.6173
  168SAPE  H18Z19048   1.251   1.283   8.904  0.7832 -0.5116 -2.2215
  169SAPE     N19049   0.306   3.770   6.174 -0.3648  0.0417  0.0479
  169SAPE   HN119050   0.325   3.689   6.236  2.7906 -0.6935 -1.7701
  169SAPE   HN219051   0.399   3.812   6.155  1.0694 -2.6579  0.9354
  169SAPE   HN319052   0.249   3.838   6.228  1.5078  1.1747  0.6497
  169SAPE   C1219053   0.237   3.751   6.040 -0.1519 -0.5114  0.1061
  169SAPE  H12A19054   0.269   3.657   5.991  1.9870  0.3089 -0.1244
  169SAPE  H12B19055   0.264   3.846   5.988 -2.8523  1.8709  2.8748
  169SAPE   C1119056   0.082   3.767   6.058  1.1572  0.4602 -0.4927
  169SAPE  H11A19057   0.037   3.733   5.963  0.8575 -0.0583 -0.1690
  169SAPE  H11B19058   0.053   3.869   6.092 -0.9813  0.8951 -3.4710
  169SAPE     P19059   0.046   3.519   6.165  0.3036 -0.3786  0.3134
  169SAPE   O1319060  -0.039   3.473   6.058  0.2148  0.2941  0.9254
  169SAPE   O1419061   0.185   3.466   6.171  0.4844 -0.2746  0.1039
  169SAPE   O1219062   0.040   3.679   6.163 -0.5049  0.5572  0.5363
  169SAPE   O1119063  -0.018   3.488   6.311 -0.1329  0.4828  0.7621
  169SAPE    C119064  -0.028   3.573   6.413 -0.2975 -0.5101 -0.0214
  169SAPE    HA19065  -0.023   3.508   6.504  1.8561  0.9197  0.9381
  169SAPE    HB19066   0.045   3.657   6.414 -0.5298 -0.3120  0.4832
  169SAPE    C219067  -0.165   3.647   6.425 -0.5466  0.1722 -0.7088
  169SAPE    HS19068  -0.171   3.723   6.345  0.8784  3.7937  2.4755
  169SAPE   O2119069  -0.171   3.705   6.555 -0.3665  0.0698 -0.4650
  169SAPE   C2119070  -0.110   3.825   6.562  0.1902 -0.1066 -0.9830
  169SAPE   O2219071  -0.066   3.887   6.466  0.7204  0.0510  0.2989
  169SAPE   C2219072  -0.112   3.879   6.703  0.3431 -0.2683  0.2815
  169SAPE   H2R19073  -0.027   3.948   6.721 -0.2625  0.4579  0.3933
  169SAPE   H2S19074  -0.210   3.931   6.708  0.0313 -0.6780 -1.3331
  169SAPE    C319075  -0.287   3.551   6.409 -0.1137  0.1047 -0.2309
  169SAPE    HX19076  -0.277   3.496   6.313 -0.1275  1.7686 -1.2128
  169SAPE    HY19077  -0.386   3.602   6.397 -1.4119 -1.7740  2.0730
  169SAPE   O3119078  -0.297   3.445   6.511  0.6458 -0.0024  0.2234
  169SAPE   C3119079  -0.344   3.477   6.623  0.2572  0.2744  0.1111
  169SAPE   O3219080  -0.374   3.585   6.668  0.4163 -0.1558  0.7290
  169SAPE   C3219081  -0.339   3.358   6.712  0.1125  0.1823  0.6598
  169SAPE   H2X19082  -0.234   3.330   6.732  0.2181 -0.6938 -1.0603
  169SAPE   H2Y19083  -0.396   3.280   6.658 -0.1881  0.8738 -0.0379
  169SAPE   C2319084  -0.107   3.774   6.825 -0.0443 -0.5571  0.1036
  169SAPE   H3R19085  -0.009   3.721   6.815  0.5083  0.6036 -0.7472
  169SAPE   H3S19086  -0.188   3.698   6.824 -0.1833 -0.4039 -0.8501
  169SAPE   C2419087  -0.098   3.848   6.964 -0.5656  0.0732 -0.0103
  169SAPE   H4R19088  -0.016   3.923   6.960  1.8021 -2.5105 -1.4361
  169SAPE   H4S19089  -0.071   3.768   7.036  2.3562  0.6562 -0.3852
  169SAPE   C2519090  -0.237   3.899   6.990 -0.0959  0.6401 -0.1446
  169SAPE   H5R19091  -0.306   3.881   6.907 -0.9499  0.6631  0.5566
  169SAPE   C2619092  -0.277   3.962   7.103 -0.8008 -0.0429  0.7237
  169SAPE   H6R19093  -0.381   3.995   7.119 -0.2552  0.9508  2.3051
  169SAPE   C2719094  -0.188   4.002   7.218  0.1664 -0.4994  0.2313
  169SAPE   H7R19095  -0.218   4.101   7.258 -0.4399 -0.5708 -0.0465
  169SAPE   H7S19096  -0.081   4.016   7.192 -1.2806  2.0905 -4.9381
  169SAPE   C2819097  -0.189   3.900   7.325 -0.4754  0.4700 -0.1600
  169SAPE   H8R19098  -0.150   3.800   7.300 -0.2678 -0.3274  3.0605
  169SAPE   C2919099  -0.197   3.916   7.460 -0.0647  0.0231  0.6281
  169SAPE   H9R19100  -0.178   3.826   7.520 -1.2946 -0.8121 -0.2186
  169SAPE  C21019101  -0.210   4.045   7.535 -0.2620 -0.3351 -0.2901
  169SAPE  H10R19102  -0.307   4.063   7.585  0.2730  0.2239  0.5528
  169SAPE  H10S19103  -0.190   4.127   7.463 -1.7104  0.5286  0.2743
  169SAPE  C21119104  -0.098   4.050   7.639  0.6370 -0.9197  0.2149
  169SAPE  H11R19105   0.001   4.080   7.603  0.3703 -0.8652 -0.4819
  169SAPE  C21219106  -0.116   4.016   7.761 -0.1475 -0.4027 -0.8132
  169SAPE  H12R19107  -0.031   4.013   7.832 -0.7373 -2.7514 -0.1588
  169SAPE  C21319108  -0.249   3.991   7.829  0.4869 -0.1209  0.7181
  169SAPE  H13R19109  -0.246   3.904   7.899  1.2837  0.7329  1.7583
  169SAPE  H13S19110  -0.323   3.953   7.755  1.2323 -2.2982  1.0714
  169SAPE  C21419111  -0.322   4.105   7.897  0.6196 -0.3842 -0.1851
  169SAPE  H14R19112  -0.364   4.175   7.823  2.6319 -0.1635 -1.1735
  169SAPE  C21519113  -0.347   4.141   8.025  0.2675  0.6760  0.0903
  169SAPE  H15R19114  -0.405   4.232   8.046  1.2744  0.9937  1.5260
  169SAPE  C21619115  -0.311   4.066   8.152  0.1962 -0.7965 -1.0060
  169SAPE  H16R19116  -0.236   4.125   8.209 -0.3962 -0.5623 -0.4592
  169SAPE  H16S19117  -0.268   3.969   8.118 -0.0759 -0.6388 -1.7872
  169SAPE  C21719118  -0.431   4.037   8.245  0.1448 -0.1248 -1.3428
  169SAPE  H17R19119  -0.408   3.959   8.321 -0.0788  1.1897  0.1100
  169SAPE  H17S19120  -0.510   3.999   8.177 -1.5477 -1.1426  1.0990
  169SAPE  C21819121  -0.484   4.165   8.316 -0.3765  0.3260 -0.2348
  169SAPE  H18R19122  -0.455   4.260   8.267 -0.0983  0.0295 -0.6446
  169SAPE  H18S19123  -0.444   4.161   8.420 -0.7260 -0.7834 -0.1281
  169SAPE  C21919124  -0.641   4.146   8.325  0.0272  0.3353  0.9234
  169SAPE  H19R19125  -0.657   4.061   8.396  1.1937 -1.8182 -1.3150
  169SAPE  H19S19126  -0.691   4.119   8.230  0.4269  2.1555  0.1833
  169SAPE  C22019127  -0.718   4.275   8.377  0.0355  0.0632 -0.2643
  169SAPE  H20R19128  -0.719   4.281   8.488 -1.1538 -1.0524 -0.2129
  169SAPE  H20S19129  -0.825   4.267   8.350  0.5415  1.6428 -2.9019
  169SAPE  H20T19130  -0.667   4.364   8.335  0.1290 -0.3417 -1.0157
  169SAPE   C3319131  -0.420   3.376   6.843  0.4707  0.0509 -0.1984
  169SAPE   H3X19132  -0.438   3.272   6.876 -2.1723  0.2228 -0.9925
  169SAPE   H3Y19133  -0.523   3.417   6.832 -0.1154 -1.4907 -0.5332
  169SAPE   C3419134  -0.353   3.459   6.949 -0.2549 -0.1165 -0.2195
  169SAPE   H4X19135  -0.345   3.566   6.923 -0.8715  0.1937  0.8358
  169SAPE   H4Y19136  -0.248   3.424   6.953 -0.0978  0.3848  0.0505
  169SAPE   C3519137  -0.419   3.431   7.089  1.2098  0.1762 -0.4411
  169SAPE   H5X19138  -0.429   3.322   7.106  0.1622  0.1324 -1.3144
  169SAPE   H5Y19139  -0.525   3.463   7.082  0.7405 -1.6607 -1.8224
  169SAPE   C3619140  -0.355   3.512   7.201  0.6533  0.1064  0.6631
  169SAPE   H6X19141  -0.354   3.614   7.158 -0.0926 -0.2819 -0.3045
  169SAPE   H6Y19142  -0.253   3.476   7.226  1.2166  1.3396  0.1707
  169SAPE   C3719143  -0.450   3.511   7.324  0.3143  0.3118  0.2670
  169SAPE   H7X19144  -0.483   3.410   7.358 -0.4653  0.5184  0.1278
  169SAPE   H7Y19145  -0.544   3.563   7.297  1.1191  1.2327 -0.8270
  169SAPE   C3819146  -0.377   3.583   7.438 -0.7937  0.2932 -0.6070
  169SAPE   H8X19147  -0.356   3.688   7.412  0.7167  1.1505  3.6918
  169SAPE   H8Y19148  -0.275   3.539   7.450  0.3659  2.9092 -0.7016
  169SAPE   C3919149  -0.455   3.578   7.574 -0.1141  0.1212  0.1876
  169SAPE   H9X19150  -0.471   3.479   7.621  2.7737 -0.2288  0.5371
  169SAPE   H9Y19151  -0.552   3.623   7.546 -1.2531 -2.0393  0.6015
  169SAPE  C31019152  -0.371   3.640   7.680 -0.4041  0.0284 -0.2833
  169SAPE  H10X19153  -0.433   3.666   7.769 -0.8628  1.2357 -0.9468
  169SAPE  H10Y19154  -0.343   3.736   7.633 -0.4987 -1.2259 -3.0153
  169SAPE  C31119155  -0.249   3.549   7.728  0.0453  0.6958 -0.5067
  169SAPE  H11X19156  -0.177   3.539   7.644  1.8762  0.0857  1.1022
  169SAPE  H11Y19157  -0.292   3.448   7.743  1.5537 -0.4227 -3.3139
  169SAPE  C31219158  -0.171   3.600   7.852  0.1351  0.0991 -0.2805
  169SAPE  H12X19159  -0.127   3.695   7.815 -0.8854  0.5594 -0.3493
  169SAPE  H12Y19160  -0.095   3.524   7.877 -1.5752 -1.8649 -0.8945
  169SAPE  C31319161  -0.258   3.615   7.979 -0.2922 -0.1534  0.1667
  169SAPE  H13X19162  -0.335   3.535   7.980 -0.6203 -0.0176 -4.0255
  169SAPE  H13Y19163  -0.308   3.713   7.966  1.9126  0.8640 -0.9750
  169SAPE  C31419164  -0.183   3.618   8.108 -0.0135 -0.1854  0.2566
  169SAPE  H14X19165  -0.101   3.692   8.103 -0.3960  0.2158 -0.0719
  169SAPE  H14Y19166  -0.121   3.527   8.124  0.5559  0.0605 -0.5412
  169SAPE  C31519167  -0.264   3.648   8.225  0.0457 -0.0523  0.1248
  169SAPE  H15X19168  -0.347   3.580   8.256 -0.4358  2.6946  5.5132
  169SAPE  H15Y19169  -0.324   3.738   8.200  0.0885  0.5955  2.2317
  169SAPE  C31619170  -0.188   3.663   8.359  0.4510  0.2520  0.4346
  169SAPE  H16X19171  -0.122   3.750   8.340  1.2135 -0.9950 -2.9963
  169SAPE  H16Y19172  -0.129   3.572   8.383 -1.3750 -1.2270 -0.5397
  169SAPE  C31719173  -0.269   3.704   8.477 -0.1761 -0.4474  0.1750
  169SAPE  H17X19174  -0.321   3.797   8.445 -0.6988 -0.6392  0.4616
  169SAPE  H17Y19175  -0.202   3.738   8.558  2.3763 -0.4299 -1.8564
  169SAPE  C31819176  -0.367   3.605   8.529  0.6415 -0.0804 -0.9430
  169SAPE  H18X19177  -0.430   3.566   8.446 -1.2867 -0.9278  0.8731
  169SAPE  H18Y19178  -0.439   3.653   8.598 -0.5791 -4.0653  0.7470
  169SAPE  H18Z19179  -0.322   3.517   8.579  1.4477  0.9892  0.2231
  170SAPE     N19180   0.546   6.671   6.103  0.9976 -0.1799 -0.2883
  170SAPE   HN119181   0.443   6.679   6.102  1.0765  0.9109 -1.5341
  170SAPE   HN219182   0.579   6.572   6.103  0.5245 -0.3659  2.1754
  170SAPE   HN319183   0.584   6.710   6.191  1.8411 -1.4294 -0.0779
  170SAPE   C1219184   0.599   6.762   5.997  1.2983 -0.6236  0.3433
  170SAPE  H12A19185   0.595   6.706   5.901  2.2374  0.8842 -0.5836
  170SAPE  H12B19186   0.705   6.787   6.019  0.7070  1.6603  0.7213
  170SAPE   C1119187   0.523   6.891   6.010  0.2233  0.0188  0.0767
  170SAPE  H11A19188   0.414   6.869   6.011  0.5876 -1.8975  1.9758
  170SAPE  H11B19189   0.536   6.948   5.916  1.4861  1.5168  1.1383
  170SAPE     P19190   0.480   7.068   6.200 -0.1507 -0.2162 -0.1511
  170SAPE   O1319191   0.558   7.193   6.169 -0.4216  0.0526  0.6262
  170SAPE   O1419192   0.340   7.054   6.167 -0.5207  0.2889 -0.6694
  170SAPE   O1219193   0.566   6.964   6.131  0.6286  0.5793  0.7293
  170SAPE   O1119194   0.513   7.031   6.349  0.4559  0.3721  0.0435
  170SAPE    C119195   0.428   6.958   6.441  0.2621  0.4566 -0.4439
  170SAPE    HA19196   0.400   6.861   6.396  2.0828  0.7198 -2.2061
  170SAPE    HB19197   0.493   6.940   6.529  2.1816  0.3935 -1.8395
  170SAPE    C219198   0.296   7.030   6.484  0.3851  0.2095 -0.2623
  170SAPE    HS19199   0.251   7.068   6.390  0.6401 -2.1522 -1.3910
  170SAPE   O2119200   0.335   7.144   6.562 -0.5552 -0.4954 -0.2577
  170SAPE   C2119201   0.233   7.223   6.589 -0.0449  0.0005  0.6460
  170SAPE   O2219202   0.139   7.239   6.510  0.4410  0.0595  0.4764
  170SAPE   C2219203   0.247   7.285   6.731 -0.5263  0.4819  1.1164
  170SAPE   H2R19204   0.198   7.220   6.806 -2.3551 -0.4935 -0.8618
  170SAPE   H2S19205   0.357   7.295   6.743 -0.2724 -0.7800  0.0051
  170SAPE    C319206   0.190   6.939   6.553 -0.1712  0.5358  0.0284
  170SAPE    HX19207   0.170   6.865   6.473 -3.3735  3.1184 -1.7081
  170SAPE    HY19208   0.093   6.992   6.567  0.6112  2.0253 -0.0448
  170SAPE   O3119209   0.226   6.891   6.681 -0.4594  0.4448 -0.0081
  170SAPE   C3119210   0.260   6.763   6.686  0.0481 -1.0216 -0.2345
  170SAPE   O3219211   0.268   6.684   6.593  0.1856  0.2713 -0.6098
  170SAPE   C3219212   0.289   6.735   6.831 -0.0802  0.0613 -0.2423
  170SAPE   H2X19213   0.192   6.743   6.884  1.7654  1.0043  3.1116
  170SAPE   H2Y19214   0.357   6.813   6.870  0.3928 -0.4290 -0.0753
  170SAPE   C2319215   0.178   7.419   6.747 -0.4886  0.2513 -0.3093
  170SAPE   H3R19216   0.215   7.501   6.682  0.1284 -0.4154 -0.8170
  170SAPE   H3S19217   0.208   7.436   6.853 -3.4670 -2.1711  0.9967
  170SAPE   C2419218   0.024   7.411   6.747  0.4760 -0.6826  0.1098
  170SAPE   H4R19219  -0.013   7.324   6.806 -0.8857 -0.8214 -0.9258
  170SAPE   H4S19220  -0.011   7.375   6.648  2.0386 -1.0779 -0.3144
  170SAPE   C2519221  -0.050   7.538   6.791  0.3579  0.6679  0.4053
  170SAPE   H5R19222  -0.076   7.622   6.725  0.9700  2.2678  2.1451
  170SAPE   C2619223  -0.094   7.554   6.920  0.1726  0.5609 -0.6626
  170SAPE   H6R19224  -0.158   7.641   6.942 -0.3488 -0.7024  3.1677
  170SAPE   C2719225  -0.062   7.460   7.033 -0.2730  0.0657 -0.1930
  170SAPE   H7R19226   0.042   7.486   7.065 -0.0541  0.1188 -0.9438
  170SAPE   H7S19227  -0.056   7.354   7.003  2.2727  0.4242 -1.0733
  170SAPE   C2819228  -0.163   7.475   7.144  0.8042  0.3420 -0.2138
  170SAPE   H8R19229  -0.255   7.529   7.117  0.3991 -0.5627 -0.6662
  170SAPE   C2919230  -0.142   7.421   7.266 -0.1810 -0.0933  0.5201
  170SAPE   H9R19231  -0.222   7.429   7.342 -2.3514 -0.1231 -1.6930
  170SAPE  C21019232  -0.018   7.349   7.314  0.4089 -0.6605 -0.4470
  170SAPE  H10R19233   0.033   7.309   7.223 -1.7374  0.7978 -2.3695
  170SAPE  H10S19234  -0.040   7.267   7.385  1.0166 -1.0365 -0.6861
  170SAPE  C21119235   0.069   7.454   7.377  0.1364 -0.6085 -0.5691
  170SAPE  H11R19236   0.135   7.509   7.308  1.6185  0.9015  1.9786
  170SAPE  C21219237   0.093   7.491   7.504 -0.2655  0.4421 -0.6539
  170SAPE  H12R19238   0.162   7.576   7.516 -0.3668  0.2810  1.1500
  170SAPE  C21319239   0.034   7.430   7.629  0.3414 -1.0070  0.4081
  170SAPE  H13R19240  -0.077   7.438   7.618  0.8409  2.4796 -3.3497
  170SAPE  H13S19241   0.064   7.493   7.715 -1.2141 -1.0602  1.0157
  170SAPE  C21419242   0.050   7.282   7.649 -0.0644 -0.3052 -0.0647
  170SAPE  H14R19243   0.100   7.231   7.565 -0.4540  0.7706 -0.9642
  170SAPE  C21519244   0.001   7.205   7.748  0.5453 -0.2810 -0.2261
  170SAPE  H15R19245   0.033   7.100   7.742 -0.3977 -0.4826 -2.0757
  170SAPE  C21619246  -0.068   7.250   7.876 -0.6430 -0.2950 -0.2438
  170SAPE  H16R19247  -0.151   7.177   7.887 -1.5412  0.7708  0.1171
  170SAPE  H16S19248  -0.125   7.344   7.859 -1.9315 -0.3145  3.5735
  170SAPE  C21719249   0.015   7.262   8.002  0.0725  0.1102  0.1309
  170SAPE  H17R19250   0.078   7.171   8.019  2.7317  1.9175  0.3367
  170SAPE  H17S19251  -0.055   7.273   8.087  0.3773  1.7135  0.1850
  170SAPE  C21819252   0.103   7.386   8.000 -0.2066 -0.3470 -0.6227
  170SAPE  H18R19253   0.025   7.465   8.004  0.4135  0.2901 -0.8445
  170SAPE  H18S19254   0.160   7.395   7.905  0.8375  0.1504  0.0411
  170SAPE  C21919255   0.189   7.410   8.124  0.1268 -0.1840 -0.5073
  170SAPE  H19R19256   0.248   7.503   8.109  0.4026  0.1088  2.2715
  170SAPE  H19S19257   0.263   7.331   8.146  0.2536 -0.6173 -2.4241
  170SAPE  C22019258   0.113   7.421   8.259  0.4613 -0.0368  0.0121
  170SAPE  H20R19259   0.040   7.504   8.252  0.6712  0.2777  1.4885
  170SAPE  H20S19260   0.186   7.436   8.341 -0.0248  2.0420  0.0738
  170SAPE  H20T19261   0.064   7.326   8.291 -0.5808  0.2805 -0.6104
  170SAPE   C3319262   0.359   6.595   6.862 -0.8614 -0.3376  0.2722
  170SAPE   H3X19263   0.468   6.604   6.843 -0.6953 -0.1284  1.2786
  170SAPE   H3Y19264   0.312   6.521   6.794  2.1551 -0.1337 -2.1314
  170SAPE   C3419265   0.341   6.547   7.007  0.1096  0.1411 -0.4122
  170SAPE   H4X19266   0.393   6.450   7.014  1.3245  0.8621  1.0078
  170SAPE   H4Y19267   0.232   6.554   7.032 -0.0582  0.4052 -1.2066
  170SAPE   C3519268   0.421   6.642   7.101 -0.1328 -0.1822 -0.2097
  170SAPE   H5X19269   0.368   6.740   7.110  0.5600  0.2855 -1.1138
  170SAPE   H5Y19270   0.526   6.649   7.066 -0.2265 -0.0397 -0.4650
  170SAPE   C3619271   0.423   6.585   7.238 -0.2793 -0.1088  0.3711
  170SAPE   H6X19272   0.475   6.488   7.250  0.7646  0.2044 -1.4279
  170SAPE   H6Y19273   0.317   6.564   7.264 -0.6663  1.3677  0.0180
  170SAPE   C3719274   0.460   6.680   7.349  0.5233  0.3675 -0.5201
  170SAPE   H7X19275   0.398   6.772   7.354  2.8628  1.9699  0.0363
  170SAPE   H7Y19276   0.561   6.724   7.331  2.5432 -2.5162  3.1251
  170SAPE   C3819277   0.467   6.617   7.491  0.1060 -0.3700  0.1544
  170SAPE   H8X19278   0.551   6.545   7.501 -0.1026 -0.5327  0.7608
  170SAPE   H8Y19279   0.373   6.560   7.506 -0.0578 -0.2771 -0.5141
  170SAPE   C3919280   0.474   6.723   7.602 -0.2955 -0.8526 -0.3360
  170SAPE   H9X19281   0.425   6.813   7.560  2.7058  0.5943 -0.8556
  170SAPE   H9Y19282   0.581   6.745   7.621  0.2366 -2.4038 -1.4851
  170SAPE  C31019283   0.410   6.690   7.735 -0.4719 -0.0239 -1.5416
  170SAPE  H10X19284   0.471   6.609   7.781 -0.7405  1.0096  0.7149
  170SAPE  H10Y19285   0.310   6.645   7.715 -0.4318 -0.4561 -0.8130
  170SAPE  C31119286   0.400   6.811   7.821 -0.1680  0.6331 -0.1541
  170SAPE  H11X19287   0.331   6.885   7.773  0.1524  0.6566 -0.5748
  170SAPE  H11Y19288   0.503   6.852   7.826  0.0894  0.0351 -0.5227
  170SAPE  C31219289   0.342   6.787   7.963 -0.3468 -0.5934 -0.0334
  170SAPE  H12X19290   0.426   6.751   8.026  0.1597 -2.1964 -1.5727
  170SAPE  H12Y19291   0.257   6.716   7.958  1.5008 -2.7967 -1.4532
  170SAPE  C31319292   0.271   6.910   8.022  0.1613 -0.3242 -0.0610
  170SAPE  H13X19293   0.172   6.924   7.974 -1.2610  2.5893  3.4909
  170SAPE  H13Y19294   0.337   6.996   7.998 -1.2594  0.4442 -1.3041
  170SAPE  C31419295   0.246   6.896   8.176  0.1583  0.3990  0.2157
  170SAPE  H14X19296   0.345   6.881   8.224 -0.3161 -1.2856  0.7119
  170SAPE  H14Y19297   0.191   6.805   8.207 -0.7769  0.9523  0.2123
  170SAPE  C31519298   0.173   7.012   8.243  0.7061 -0.3742 -0.0895
  170SAPE  H15X19299   0.097   7.055   8.174  0.2642 -0.7193  0.1789
  170SAPE  H15Y19300   0.242   7.097   8.263 -0.6399  0.9780 -1.0706
  170SAPE  C31619301   0.112   6.984   8.381 -0.5065 -0.3143  0.0011
  170SAPE  H16X19302   0.183   6.989   8.466  0.0562  0.1953 -0.4940
  170SAPE  H16Y19303   0.066   6.883   8.378  0.6306 -0.8393 -0.1851
  170SAPE  C31719304   0.000   7.082   8.414 -0.1374  0.5045 -0.4793
  170SAPE  H17X19305  -0.076   7.084   8.334 -0.3112 -0.0506 -0.3356
  170SAPE  H17Y19306   0.036   7.184   8.439 -0.0744  0.5614 -0.8097
  170SAPE  C31819307  -0.064   7.046   8.556 -0.4502 -0.5890  0.4849
  170SAPE  H18X19308  -0.131   7.129   8.586  0.0630 -0.3868  1.0748
  170SAPE  H18Y19309   0.013   7.025   8.633  1.1256  0.2497 -0.8282
  170SAPE  H18Z19310  -0.116   6.948   8.553 -3.3287  0.8544  1.2480
  171SAPE     N19311   1.747   1.819   6.333  0.2420 -1.3964 -0.0804
  171SAPE   HN119312   1.677   1.853   6.265  0.8175 -0.7835 -0.3679
  171SAPE   HN219313   1.712   1.727   6.365  2.3785 -2.2921 -0.2282
  171SAPE   HN319314   1.747   1.889   6.411 -3.2446 -0.2629 -1.0272
  171SAPE   C1219315   1.882   1.801   6.273 -0.1962  0.3344 -0.8180
  171SAPE  H12A19316   1.922   1.894   6.229  1.8598  0.3266  0.9735
  171SAPE  H12B19317   1.873   1.728   6.189  0.2060  1.1020 -1.5357
  171SAPE   C1119318   1.986   1.739   6.374  0.2965 -0.2050 -0.0304
  171SAPE  H11A19319   1.960   1.632   6.386 -2.2144  0.2186 -1.3190
  171SAPE  H11B19320   1.979   1.796   6.469 -1.1488  2.4319 -1.6715
  171SAPE     P19321   2.228   1.850   6.406 -0.2153  0.2052  0.2033
  171SAPE   O1319322   2.363   1.848   6.335 -0.3253 -0.2905  0.2690
  171SAPE   O1419323   2.168   1.987   6.420  0.0374 -0.1898  0.0523
  171SAPE   O1219324   2.128   1.746   6.332  0.1981  1.0199  0.5192
  171SAPE   O1119325   2.229   1.787   6.550 -0.1237 -0.6610  0.3052
  171SAPE    C119326   2.301   1.660   6.570  0.8074 -0.4832 -0.5742
  171SAPE    HA19327   2.262   1.585   6.497  1.1634 -0.2864 -0.9675
  171SAPE    HB19328   2.404   1.683   6.536  1.9241 -3.2653  0.7882
  171SAPE    C219329   2.309   1.608   6.722  0.4763  0.3393 -0.2846
  171SAPE    HS19330   2.205   1.581   6.751  0.3033  1.2330 -0.0531
  171SAPE   O2119331   2.361   1.720   6.800  0.1116 -0.5916  0.5110
  171SAPE   C2119332   2.298   1.759   6.914 -0.6905  0.4512  0.2186
  171SAPE   O2219333   2.215   1.698   6.974 -0.2976 -0.1351 -0.1493
  171SAPE   C2219334   2.344   1.894   6.944 -0.1081  0.3331  0.2008
  171SAPE   H2R19335   2.440   1.892   6.999 -0.0008 -1.8407 -0.0574
  171SAPE   H2S19336   2.369   1.939   6.845  0.5722 -1.4673 -0.4676
  171SAPE    C319337   2.376   1.472   6.741 -0.1375 -0.0298 -0.1649
  171SAPE    HX19338   2.478   1.477   6.698 -0.5167  2.4022 -0.9037
  171SAPE    HY19339   2.325   1.397   6.677  0.4904  0.3211 -1.0942
  171SAPE   O3119340   2.385   1.444   6.882  0.1743 -0.4804 -0.0513
  171SAPE   C3119341   2.283   1.382   6.947  0.0106 -0.0651  0.1380
  171SAPE   O3219342   2.179   1.344   6.897 -0.1093  0.7292  0.2713
  171SAPE   C3219343   2.306   1.379   7.097 -0.1130  0.3323 -0.0560
  171SAPE   H2X19344   2.273   1.476   7.140  0.1509  0.7075 -0.6849
  171SAPE   H2Y19345   2.415   1.361   7.108 -0.4760 -1.2801  1.1041
  171SAPE   C2319346   2.250   1.982   7.027  0.1211 -0.6875 -0.7848
  171SAPE   H3R19347   2.145   1.989   6.989 -0.3521  0.3633  0.6589
  171SAPE   H3S19348   2.287   2.086   7.017 -2.1008  0.2344  0.2032
  171SAPE   C2419349   2.251   1.947   7.175 -0.2289  0.2158  0.4044
  171SAPE   H4R19350   2.356   1.951   7.208 -0.3554 -0.8222  0.9683
  171SAPE   H4S19351   2.206   1.846   7.187 -0.4656  0.3035  0.2666
  171SAPE   C2519352   2.177   2.043   7.261  0.0416 -0.3213  0.1237
  171SAPE   H5R19353   2.101   2.103   7.209 -0.6826 -0.6905  0.7384
  171SAPE   C2619354   2.208   2.073   7.389 -0.4052 -0.4582  0.1638
  171SAPE   H6R19355   2.148   2.152   7.437  1.4978  1.2120 -0.1365
  171SAPE   C2719356   2.307   2.007   7.481 -0.3362 -0.0072 -0.1074
  171SAPE   H7R19357   2.350   1.912   7.441  1.2012  0.0739  1.2973
  171SAPE   H7S19358   2.256   1.985   7.576 -0.5376  0.7416 -0.0409
  171SAPE   C2819359   2.428   2.094   7.492  0.5393 -0.6743 -0.3165
  171SAPE   H8R19360   2.475   2.123   7.397  0.1701  1.0747  0.0179
  171SAPE   C2919361   2.480   2.134   7.610 -0.8323 -0.1362 -0.2145
  171SAPE   H9R19362   2.573   2.193   7.609 -0.7863 -0.2046 -3.0657
  171SAPE  C21019363   2.431   2.099   7.749 -0.0942 -0.4035  0.0313
  171SAPE  H10R19364   2.324   2.069   7.751 -0.5426  1.0228  5.2926
  171SAPE  H10S19365   2.422   2.195   7.804  0.0986 -0.1877 -0.3122
  171SAPE  C21119366   2.529   2.006   7.826 -0.1457 -0.0867  0.0507
  171SAPE  H11R19367   2.585   1.942   7.757  0.4424 -2.2428  2.4642
  171SAPE  C21219368   2.549   2.005   7.961  0.1798 -0.0419 -0.1296
  171SAPE  H12R19369   2.625   1.937   8.003 -1.4874 -0.1219  2.9023
  171SAPE  C21319370   2.471   2.078   8.075 -0.7544 -0.5740  0.9810
  171SAPE  H13R19371   2.367   2.089   8.038 -0.4085  2.3757  0.8144
  171SAPE  H13S19372   2.503   2.184   8.072 -1.5320 -0.3617 -1.3927
  171SAPE  C21419373   2.493   2.018   8.209  0.2468  0.9255 -0.3740
  171SAPE  H14R19374   2.598   2.018   8.240  0.6408 -3.1384 -1.4928
  171SAPE  C21519375   2.398   1.989   8.299 -0.0509 -0.0769 -0.2536
  171SAPE  H15R19376   2.435   1.945   8.393 -0.5911 -0.8624 -0.4013
  171SAPE  C21619377   2.253   2.001   8.277  0.4224  0.3821  0.6310
  171SAPE  H16R19378   2.226   2.092   8.220  1.7929  0.8133  0.6552
  171SAPE  H16S19379   2.204   2.008   8.376 -1.2944  1.5387 -0.2640
  171SAPE  C21719380   2.182   1.877   8.219 -0.1894 -0.6141 -0.0380
  171SAPE  H17R19381   2.076   1.884   8.249 -0.2471 -0.3605 -0.3033
  171SAPE  H17S19382   2.231   1.795   8.278  1.5179  0.5424  0.2007
  171SAPE  C21819383   2.191   1.856   8.067  0.4028  0.7503  0.3285
  171SAPE  H18R19384   2.297   1.842   8.035  0.3368  0.5643  0.1918
  171SAPE  H18S19385   2.160   1.949   8.016 -0.8110  0.7894  1.1186
  171SAPE  C21919386   2.115   1.732   8.004  0.0323 -0.3406 -0.4414
  171SAPE  H19R19387   2.007   1.721   8.027  0.2815 -0.6494  0.5874
  171SAPE  H19S19388   2.154   1.637   8.046 -0.9665 -0.4398  0.2716
  171SAPE  C22019389   2.122   1.724   7.849  0.3697 -0.6442 -0.4119
  171SAPE  H20R19390   2.224   1.693   7.818  0.1922 -1.5172 -0.1510
  171SAPE  H20S19391   2.097   1.818   7.795 -0.3687 -0.1138  0.8306
  171SAPE  H20T19392   2.044   1.650   7.820 -0.1645 -0.4598  0.5411
  171SAPE   C3319393   2.225   1.262   7.169  0.0834 -0.1709 -0.0204
  171SAPE   H3X19394   2.243   1.165   7.117 -0.8796 -0.2618 -0.1878
  171SAPE   H3Y19395   2.118   1.289   7.160  0.3144  1.3553  1.6210
  171SAPE   C3419396   2.254   1.240   7.320 -0.4666  0.2043 -0.2142
  171SAPE   H4X19397   2.364   1.227   7.329 -0.8787 -1.5006  2.8823
  171SAPE   H4Y19398   2.201   1.146   7.345 -0.2289  0.2148  0.3404
  171SAPE   C3519399   2.194   1.349   7.412 -0.9894 -0.0782  0.8764
  171SAPE   H5X19400   2.084   1.340   7.414 -1.0214 -0.0628 -0.3252
  171SAPE   H5Y19401   2.224   1.446   7.368  1.4234 -0.3375  1.8744
  171SAPE   C3619402   2.244   1.345   7.557  0.5626  0.1924  0.2752
  171SAPE   H6X19403   2.206   1.433   7.612 -0.1386  0.2403 -0.2868
  171SAPE   H6Y19404   2.354   1.356   7.571  0.7490 -0.2256 -0.7791
  171SAPE   C3719405   2.209   1.226   7.641 -0.4832 -0.0006  0.4204
  171SAPE   H7X19406   2.271   1.142   7.603 -0.3168  0.0156  0.6563
  171SAPE   H7Y19407   2.100   1.207   7.632 -0.5271 -0.4878  1.8859
  171SAPE   C3819408   2.242   1.257   7.790 -0.4041  0.0445  0.0682
  171SAPE   H8X19409   2.196   1.357   7.811  2.5870  1.6032 -0.5996
  171SAPE   H8Y19410   2.352   1.269   7.798 -0.7729  2.3731  2.0168
  171SAPE   C3919411   2.190   1.151   7.889  0.5124 -0.2325  0.2843
  171SAPE   H9X19412   2.226   1.049   7.862 -0.1381  0.1333 -2.0600
  171SAPE   H9Y19413   2.080   1.142   7.877  0.3936 -0.5208  1.4606
  171SAPE  C31019414   2.212   1.202   8.031 -0.4485 -0.5076  0.4516
  171SAPE  H10X19415   2.175   1.305   8.048 -1.9357 -0.9779  0.1789
  171SAPE  H10Y19416   2.321   1.203   8.052 -0.3514  1.3526 -0.0686
  171SAPE  C31119417   2.163   1.102   8.130 -0.1229 -0.1790 -0.2632
  171SAPE  H11X19418   2.205   1.001   8.109 -0.8837 -0.8133  1.2061
  171SAPE  H11Y19419   2.053   1.090   8.126 -0.0926 -0.8289  0.7601
  171SAPE  C31219420   2.191   1.124   8.283 -0.1203  0.2389  0.0073
  171SAPE  H12X19421   2.178   1.232   8.305 -0.9576 -0.1256  1.3378
  171SAPE  H12Y19422   2.301   1.115   8.297  0.1427 -0.6098 -2.4448
  171SAPE  C31319423   2.116   1.043   8.386 -0.0435  0.4472  0.7549
  171SAPE  H13X19424   2.127   0.935   8.364 -0.2800  0.1115  2.2915
  171SAPE  H13Y19425   2.008   1.070   8.385  0.3207  2.0055  1.3982
  171SAPE  C31419426   2.163   1.072   8.527  0.6062 -0.5042 -0.3428
  171SAPE  H14X19427   2.108   1.165   8.550 -0.2328 -0.9429 -0.5302
  171SAPE  H14Y19428   2.270   1.101   8.528  0.4116  0.1983  0.0365
  171SAPE  C31519429   2.122   0.962   8.625 -0.5503  0.1402  0.1916
  171SAPE  H15X19430   2.160   0.862   8.593 -0.5728  0.2162 -0.0718
  171SAPE  H15Y19431   2.013   0.942   8.620 -0.3312 -0.4369 -2.7329
  171SAPE  C31619432   2.163   0.988   8.766  1.3294 -0.3575  0.2415
  171SAPE  H16X19433   2.123   1.087   8.795  0.0559 -0.9936  0.7009
  171SAPE  H16Y19434   2.274   0.991   8.774  1.4489 -1.3640 -0.9172
  171SAPE  C31719435   2.120   0.874   8.865  0.5657  0.6514 -0.2502
  171SAPE  H17X19436   2.143   0.777   8.815 -0.8384  0.2413 -0.1035
  171SAPE  H17Y19437   2.014   0.883   8.895  1.2156  1.0558  2.0751
  171SAPE  C31819438   2.195   0.877   8.995 -0.0551  0.0506  0.1139
  171SAPE  H18X19439   2.305   0.877   8.983  0.0406 -1.0601  0.8467
  171SAPE  H18Y19440   2.163   0.787   9.053 -0.2006  0.0387  0.0156
  171SAPE  H18Z19441   2.173   0.975   9.043 -0.2928  0.9118 -1.7382
  172SAPE     N19442   1.248   6.646   6.232  0.1297 -0.0199  0.7450
  172SAPE   HN119443   1.221   6.547   6.216 -0.3865  0.4785 -1.6859
  172SAPE   HN219444   1.275   6.654   6.333 -1.6489 -0.1034  1.2454
  172SAPE   HN319445   1.163   6.705   6.221  0.0506  0.0807  1.8241
  172SAPE   C1219446   1.359   6.671   6.133  0.3234 -0.1659 -0.1450
  172SAPE  H12A19447   1.334   6.626   6.035  1.8584 -1.1611 -0.1047
  172SAPE  H12B19448   1.447   6.611   6.166 -0.0128 -0.5211  0.1179
  172SAPE   C1119449   1.397   6.817   6.127  0.3999  0.1798 -0.1313
  172SAPE  H11A19450   1.307   6.879   6.107 -0.5428 -1.0115  0.4258
  172SAPE  H11B19451   1.464   6.837   6.040 -0.2432  0.1951 -0.6306
  172SAPE     P19452   1.609   6.855   6.255 -0.0834 -0.0467  0.1393
  172SAPE   O1319453   1.648   6.723   6.194 -0.3389 -0.2883  0.2482
  172SAPE   O1419454   1.650   6.977   6.184  0.0549  0.4805 -0.6506
  172SAPE   O1219455   1.451   6.858   6.253  0.0406 -0.6859  0.0993
  172SAPE   O1119456   1.643   6.856   6.409 -0.4467 -0.7702 -0.2823
  172SAPE    C119457   1.611   6.974   6.493 -0.4105 -0.4063 -0.2234
  172SAPE    HA19458   1.699   7.041   6.498 -1.5234  1.0012  1.2219
  172SAPE    HB19459   1.532   7.037   6.445 -0.7771 -0.9632 -0.3563
  172SAPE    C219460   1.561   6.941   6.629  0.0497  0.7188  0.0959
  172SAPE    HS19461   1.536   7.028   6.693 -0.5802  0.3840  0.3118
  172SAPE   O2119462   1.656   6.856   6.703 -0.0111  0.0347  0.1747
  172SAPE   C2119463   1.745   6.929   6.775 -1.0012  0.3696  0.6464
  172SAPE   O2219464   1.768   7.044   6.752 -0.5193 -0.5730 -0.2533
  172SAPE   C2219465   1.820   6.833   6.871 -0.1913  0.4444 -0.6637
  172SAPE   H2R19466   1.882   6.765   6.809 -1.9130 -1.4245 -0.3815
  172SAPE   H2S19467   1.906   6.888   6.914 -0.1994  2.3894 -3.0006
  172SAPE    C319468   1.433   6.853   6.612  0.0693 -0.3051  0.1607
  172SAPE    HX19469   1.479   6.756   6.585 -0.1323  0.5328 -3.4700
  172SAPE    HY19470   1.370   6.884   6.526 -0.3476  1.8641  1.2038
  172SAPE   O3119471   1.362   6.829   6.734  0.1525  0.3059  0.0198
  172SAPE   C3119472   1.249   6.905   6.737  0.2316 -0.6120  0.0819
  172SAPE   O3219473   1.219   6.986   6.657 -0.3697  0.2499  0.2069
  172SAPE   C3219474   1.177   6.879   6.866 -0.9902 -1.0307 -0.2911
  172SAPE   H2X19475   1.249   6.886   6.949 -0.6711  1.2763 -0.7027
  172SAPE   H2Y19476   1.117   6.786   6.862 -0.1166 -1.5984 -0.1171
  172SAPE   C2319477   1.738   6.765   6.988  0.1129  0.6557  0.0334
  172SAPE   H3R19478   1.655   6.710   6.939  0.6913  0.4333 -0.7123
  172SAPE   H3S19479   1.688   6.844   7.047 -0.4889  0.1763  0.1711
  172SAPE   C2419480   1.814   6.674   7.089  0.2793  0.5172  0.2189
  172SAPE   H4R19481   1.869   6.594   7.035 -1.5954  0.5751 -1.8762
  172SAPE   H4S19482   1.744   6.618   7.155  1.1150  0.8620  1.4017
  172SAPE   C2519483   1.921   6.753   7.167 -0.7748  0.4137  0.1700
  172SAPE   H5R19484   1.996   6.799   7.101  0.1878 -1.4796 -0.0704
  172SAPE   C2619485   1.920   6.777   7.300  0.5613 -0.3242  0.3016
  172SAPE   H6R19486   1.992   6.851   7.338  0.3875 -0.8352  1.6645
  172SAPE   C2719487   1.816   6.735   7.405  0.1995 -0.6511 -0.2597
  172SAPE   H7R19488   1.713   6.742   7.363 -0.0851  0.5522  0.5992
  172SAPE   H7S19489   1.818   6.818   7.478 -0.0701 -1.0507  0.2055
  172SAPE   C2819490   1.849   6.600   7.460 -0.5543  0.1491  0.5365
  172SAPE   H8R19491   1.843   6.532   7.374 -1.2688  0.3925  0.3899
  172SAPE   C2919492   1.895   6.562   7.580 -0.2696 -0.0003  0.3577
  172SAPE   H9R19493   1.916   6.456   7.601 -0.1129 -0.6870 -2.8969
  172SAPE  C21019494   1.932   6.648   7.694 -0.4302  0.7486  0.2325
  172SAPE  H10R19495   1.918   6.584   7.783 -0.7115 -1.2864 -1.2474
  172SAPE  H10S19496   1.846   6.719   7.698 -0.3086  0.9027  0.1427
  172SAPE  C21119497   2.064   6.718   7.685 -0.4299 -0.0623 -0.3820
  172SAPE  H11R19498   2.107   6.728   7.585 -1.0692  0.1580 -0.6400
  172SAPE  C21219499   2.132   6.774   7.789  0.3742  0.4771  0.4563
  172SAPE  H12R19500   2.225   6.824   7.760  2.0274 -2.5104  0.3503
  172SAPE  C21319501   2.099   6.772   7.941 -1.2064  0.5822  0.4219
  172SAPE  H13R19502   2.001   6.723   7.961 -1.4585  0.5731 -0.7754
  172SAPE  H13S19503   2.064   6.872   7.974 -1.0838  0.3810  1.1695
  172SAPE  C21419504   2.208   6.709   8.031 -0.1460 -0.8172  0.6466
  172SAPE  H14R19505   2.265   6.627   7.985 -0.1646 -1.2986  1.4676
  172SAPE  C21519506   2.236   6.748   8.155  0.7225  0.5213  0.0401
  172SAPE  H15R19507   2.294   6.693   8.230 -1.8390 -1.7422  0.4199
  172SAPE  C21619508   2.165   6.853   8.223 -0.2257 -0.1086  0.4968
  172SAPE  H16R19509   2.072   6.819   8.274 -1.4802  0.6607 -1.1881
  172SAPE  H16S19510   2.136   6.931   8.148  0.6773  0.2895  0.5600
  172SAPE  C21719511   2.259   6.942   8.309 -0.0789 -0.4379  0.1676
  172SAPE  H17R19512   2.329   6.992   8.239 -0.1628  0.9166  1.0248
  172SAPE  H17S19513   2.322   6.888   8.383 -1.3105 -0.9082  0.8928
  172SAPE  C21819514   2.195   7.050   8.395  0.2531  0.4554 -0.1025
  172SAPE  H18R19515   2.134   7.006   8.476  0.0032 -0.3483 -0.7225
  172SAPE  H18S19516   2.118   7.104   8.336  0.0278 -0.0609 -0.2857
  172SAPE  C21919517   2.295   7.154   8.457  0.2371 -0.2160  0.2369
  172SAPE  H19R19518   2.346   7.212   8.376  0.8134 -0.0635  0.7055
  172SAPE  H19S19519   2.375   7.105   8.516  0.8057  1.2626  0.7350
  172SAPE  C22019520   2.224   7.270   8.535  0.4308  0.4957 -0.1972
  172SAPE  H20R19521   2.177   7.222   8.623  0.2473  2.0079  0.5564
  172SAPE  H20S19522   2.151   7.327   8.473  0.8588 -0.7465 -1.8908
  172SAPE  H20T19523   2.303   7.342   8.565 -0.1241  0.4886  1.2882
  172SAPE   C3319524   1.069   6.992   6.896 -0.2569  0.7890 -0.2717
  172SAPE   H3X19525   0.983   6.976   6.828  1.5131 -3.4270 -1.6633
  172SAPE   H3Y19526   1.096   7.094   6.860  2.3818 -0.1306 -0.9788
  172SAPE   C3419527   1.024   6.980   7.043 -0.1711  0.1076  0.2044
  172SAPE   H4X19528   1.006   6.874   7.070 -0.8772  0.6105  1.7928
  172SAPE   H4Y19529   0.934   7.044   7.055 -0.8671 -0.2544 -2.6782
  172SAPE   C3519530   1.127   7.048   7.131 -0.2645 -0.1321  0.5728
  172SAPE   H5X19531   1.152   7.149   7.091 -0.2644 -0.2650  0.2405
  172SAPE   H5Y19532   1.219   6.986   7.132  0.2778  0.6681  0.8804
  172SAPE   C3619533   1.086   7.065   7.276 -0.2020  0.0498  0.3036
  172SAPE   H6X19534   1.062   6.964   7.316  0.7681 -1.1925 -2.1397
  172SAPE   H6Y19535   0.996   7.129   7.280  0.5125  1.0019  1.3410
  172SAPE   C3719536   1.196   7.131   7.357 -0.2016  0.5444  0.6507
  172SAPE   H7X19537   1.229   7.221   7.301  1.0221 -0.4692 -0.2562
  172SAPE   H7Y19538   1.279   7.059   7.368 -0.2031  0.3637 -0.4900
  172SAPE   C3819539   1.151   7.170   7.498  0.3148  0.0730 -0.0638
  172SAPE   H8X19540   1.044   7.202   7.501  0.7853  1.5858  0.8209
  172SAPE   H8Y19541   1.216   7.244   7.548  0.8121  1.5512 -2.7661
  172SAPE   C3919542   1.167   7.050   7.596  0.2180  0.3159  0.1522
  172SAPE   H9X19543   1.266   7.001   7.584  0.4737  0.1519  2.7259
  172SAPE   H9Y19544   1.077   6.988   7.579  1.8021 -1.2879 -2.7108
  172SAPE  C31019545   1.170   7.108   7.739 -0.0643  0.0729  0.0329
  172SAPE  H10X19546   1.079   7.166   7.766 -0.4230 -0.6283  0.3618
  172SAPE  H10Y19547   1.257   7.176   7.749  0.8126 -0.9357 -0.6451
  172SAPE  C31119548   1.195   7.010   7.849  0.9417  0.5522  0.2757
  172SAPE  H11X19549   1.270   6.941   7.807 -0.0389 -0.3174 -0.0636
  172SAPE  H11Y19550   1.108   6.942   7.857  0.2850  1.3507  0.0683
  172SAPE  C31219551   1.240   7.066   7.991 -0.7845  0.4539 -0.0137
  172SAPE  H12X19552   1.145   7.094   8.041  0.2189  1.0492  1.6210
  172SAPE  H12Y19553   1.307   7.153   7.976 -0.4294  0.5259  1.7894
  172SAPE  C31319554   1.298   6.961   8.087  0.0486  0.8842  0.1514
  172SAPE  H13X19555   1.381   6.910   8.032 -0.7865 -0.9834  0.5968
  172SAPE  H13Y19556   1.236   6.876   8.121  0.7859 -0.3802 -1.5853
  172SAPE  C31419557   1.359   7.025   8.216 -0.7888 -0.2164  0.0142
  172SAPE  H14X19558   1.288   7.080   8.280 -0.9691  0.5096 -0.8043
  172SAPE  H14Y19559   1.425   7.108   8.183 -2.1833  0.9569  0.1592
  172SAPE  C31519560   1.434   6.934   8.311 -0.5612 -0.3238 -0.2962
  172SAPE  H15X19561   1.490   6.995   8.385  0.8228 -3.0473  0.9479
  172SAPE  H15Y19562   1.510   6.883   8.249  0.9974  1.8665 -0.2339
  172SAPE  C31619563   1.347   6.823   8.378  0.0281  0.2880  0.5296
  172SAPE  H16X19564   1.409   6.799   8.467 -0.7614  0.4487  1.1274
  172SAPE  H16Y19565   1.334   6.741   8.304  1.6901 -0.1690  0.7149
  172SAPE  C31719566   1.206   6.866   8.415  0.2212  0.3267 -0.1859
  172SAPE  H17X19567   1.136   6.881   8.329 -0.2608  1.0780  0.3313
  172SAPE  H17Y19568   1.216   6.968   8.459 -0.0713  1.1187 -1.9149
  172SAPE  C31819569   1.134   6.788   8.525 -0.1262  0.9080 -0.0583
  172SAPE  H18X19570   1.109   6.686   8.490 -1.6304  0.2382  2.8641
  172SAPE  H18Y19571   1.037   6.826   8.562 -0.3052  0.1907  0.2071
  172SAPE  H18Z19572   1.199   6.796   8.615 -0.2246  3.3726 -0.1630
  173SOPE     N19573   3.499   4.911  11.094 -0.3851 -0.2276 -0.3773
  173SOPE   HN119574   3.443   4.945  11.174  1.8296  2.4355  0.1174
  173SOPE   HN219575   3.587   4.870  11.132 -1.6050 -1.8585  0.7675
  173SOPE   HN319576   3.518   4.984  11.023 -0.5198 -0.4625 -0.6547
  173SOPE   C1219577   3.424   4.808  11.017 -0.0277  0.2194  1.4298
  173SOPE  H12A19578   3.358   4.865  10.948 -1.6701 -0.6910  2.2409
  173SOPE  H12B19579   3.369   4.741  11.086 -1.0753 -1.0924 -0.6277
  173SOPE   C1119580   3.521   4.721  10.939  0.5633 -0.0456  0.0927
  173SOPE  H11A19581   3.594   4.787  10.888 -0.6790  0.2712 -1.3221
  173SOPE  H11B19582   3.456   4.674  10.862 -0.8223  1.5565  0.2720
  173SOPE     P19583   3.567   4.466  10.973  0.0249 -0.4220 -0.4615
  173SOPE   O1319584   3.423   4.446  10.957  0.5969  0.1648  0.4175
  173SOPE   O1419585   3.648   4.388  11.069 -0.2716 -0.4892 -0.2783
  173SOPE   O1219586   3.580   4.623  11.014  0.1888 -0.3310  0.2602
  173SOPE   O1119587   3.639   4.457  10.824 -0.1493  0.1131  0.1975
  173SOPE    C119588   3.771   4.507  10.797 -0.1154 -0.0863 -0.0452
  173SOPE    HA19589   3.835   4.470  10.881  1.0289 -1.9331 -1.6968
  173SOPE    HB19590   3.764   4.618  10.795 -0.0413 -0.0419  1.4960
  173SOPE    C219591   3.828   4.438  10.668 -0.8621  0.7141  0.2147
  173SOPE    HS19592   3.926   4.491  10.654  0.4791 -1.1363  2.2781
  173SOPE   O2119593   3.739   4.465  10.564  0.4163 -0.4127 -0.5599
  173SOPE   C2119594   3.738   4.592  10.513  0.1720 -0.1010 -0.5894
  173SOPE   O2219595   3.804   4.685  10.555  0.0060 -0.2883  0.4719
  173SOPE   C2219596   3.649   4.592  10.390 -0.0146  0.0352 -0.3831
  173SOPE   H2R19597   3.574   4.670  10.413  1.4188  1.4578 -0.4916
  173SOPE   H2S19598   3.595   4.494  10.388 -0.5080  0.3302 -2.4408
  173SOPE    C319599   3.859   4.288  10.683 -0.2971  0.1458  0.5438
  173SOPE    HX19600   3.781   4.239  10.744  1.5720 -0.8725  2.1554
  173SOPE    HY19601   3.944   4.259  10.749  1.1018  0.0885 -1.2332
  173SOPE   O3119602   3.886   4.235  10.547  0.2961  0.1597  0.5116
  173SOPE   C3119603   3.784   4.178  10.489  0.4902  0.5018 -0.5537
  173SOPE   O3219604   3.669   4.173  10.533 -0.3261 -0.1970  0.3676
  173SOPE   C3219605   3.815   4.172  10.343  0.3712  0.6448 -0.1635
  173SOPE   H2X19606   3.886   4.089  10.323 -2.1235 -1.3387 -1.0581
  173SOPE   H2Y19607   3.846   4.276  10.319 -0.6584  1.2322  0.9564
  173SOPE   C2319608   3.729   4.623  10.258  0.1725 -0.1401 -0.1765
  173SOPE   H3R19609   3.808   4.545  10.248  0.0620 -0.5349  1.8345
  173SOPE   H3S19610   3.790   4.713  10.276  1.5845 -1.3086  0.9898
  173SOPE   C2419611   3.634   4.612  10.138  0.1774 -0.8350  0.0953
  173SOPE   H4R19612   3.555   4.535  10.151 -1.4471  0.8569  0.6167
  173SOPE   H4S19613   3.574   4.702  10.112 -0.6813 -0.6382  2.6002
  173SOPE   C2519614   3.711   4.563  10.021 -0.2782 -0.0417  0.3312
  173SOPE   H5R19615   3.793   4.491  10.044  0.0729  0.8279  1.8917
  173SOPE   H5S19616   3.640   4.517   9.949 -0.1039 -0.1729  0.2423
  173SOPE   C2619617   3.759   4.686   9.940  1.1962 -0.5669  0.5042
  173SOPE   H6R19618   3.690   4.773   9.946  0.3635 -1.2345  0.6342
  173SOPE   H6S19619   3.861   4.714   9.976  1.2648 -0.2304  0.0527
  173SOPE   C2719620   3.773   4.643   9.792  0.6162  0.0680  0.8510
  173SOPE   H7R19621   3.854   4.567   9.792  0.3010 -0.3418 -2.5043
  173SOPE   H7S19622   3.683   4.592   9.751  0.8499  0.0693  0.3374
  173SOPE   C2819623   3.798   4.759   9.700 -0.1429 -0.1155  0.3396
  173SOPE   H8R19624   3.708   4.825   9.701  1.0484  1.5661 -0.7726
  173SOPE   H8S19625   3.868   4.822   9.758 -0.3853 -1.1506  1.7754
  173SOPE   C2919626   3.846   4.719   9.560 -0.2021 -0.4202 -0.4518
  173SOPE   H9119627   3.933   4.651   9.569  1.5617  1.8301 -0.0023
  173SOPE  C21019628   3.801   4.748   9.439 -0.1770  0.2809  0.0754
  173SOPE  H10119629   3.840   4.695   9.351 -1.3479  2.7355 -1.9747
  173SOPE  C21119630   3.680   4.845   9.409 -0.2473 -0.6415  0.0562
  173SOPE  H11R19631   3.643   4.896   9.500 -1.5761 -0.4394 -0.5909
  173SOPE  H11S19632   3.598   4.782   9.368 -0.1533 -0.3504 -0.5853
  173SOPE  C21219633   3.711   4.954   9.303 -0.2449  0.1201 -0.8111
  173SOPE  H12R19634   3.622   5.016   9.280  0.2438  1.3412  0.5306
  173SOPE  H12S19635   3.738   4.904   9.208  0.1444 -1.5860  0.1816
  173SOPE  C21319636   3.832   5.038   9.341 -0.1151  0.2340 -0.3226
  173SOPE  H13R19637   3.924   4.982   9.314  0.1050 -1.5866  3.8583
  173SOPE  H13S19638   3.846   5.065   9.448  0.6161 -0.6022 -0.2033
  173SOPE  C21419639   3.845   5.168   9.254  0.5329  0.2424  1.1467
  173SOPE  H14R19640   3.827   5.252   9.326 -0.4473  0.1707  0.9897
  173SOPE  H14S19641   3.773   5.171   9.169  3.4434 -3.3983 -1.5856
  173SOPE  C21519642   3.982   5.181   9.186 -0.0548  0.5039  0.3199
  173SOPE  H15R19643   3.980   5.090   9.124  0.0358  0.5838  0.1973
  173SOPE  H15S19644   4.062   5.170   9.262 -0.0285 -0.6917  0.1280
  173SOPE  C21619645   4.005   5.294   9.097  0.6666  0.7923 -0.4983
  173SOPE  H16R19646   4.005   5.389   9.156 -0.4093 -1.6245  3.5958
  173SOPE  H16S19647   3.922   5.297   9.024  2.2841  0.0130 -2.3925
  173SOPE  C21719648   4.143   5.283   9.027  0.0026  0.8443 -0.5097
  173SOPE  H17R19649   4.224   5.301   9.101  1.2245  1.9007 -2.0640
  173SOPE  H17S19650   4.162   5.373   8.965 -0.7233  2.1490  1.1002
  173SOPE  C21819651   4.168   5.161   8.938 -0.6827  0.4762  1.6396
  173SOPE  H18R19652   4.105   5.156   8.847  1.1880 -0.1139  0.3428
  173SOPE  H18S19653   4.149   5.066   8.992 -1.2373  0.2161  0.9964
  173SOPE  H18T19654   4.274   5.157   8.903 -0.6571  2.8280  1.3035
  173SOPE   C3319655   3.693   4.133  10.249 -0.3211 -0.7308 -0.1399
  173SOPE   H3X19656   3.616   4.205  10.286  1.5071  1.1964 -0.0120
  173SOPE   H3Y19657   3.656   4.030  10.270 -2.0054 -0.2967 -0.9141
  173SOPE   C3419658   3.718   4.146  10.103  0.2173 -0.2587  0.1687
  173SOPE   H4X19659   3.818   4.100  10.090 -0.5304 -1.6226 -0.8048
  173SOPE   H4Y19660   3.717   4.253  10.073 -1.2265 -0.8794 -2.0334
  173SOPE   C3519661   3.611   4.084  10.020 -0.3938  0.2076 -0.3418
  173SOPE   H5X19662   3.516   4.139  10.033 -0.1210  1.1147 -1.9864
  173SOPE   H5Y19663   3.589   3.976  10.036 -2.9031  0.4845 -1.5850
  173SOPE   C3619664   3.642   4.107   9.869  0.1184 -0.5889  0.8480
  173SOPE   H6X19665   3.726   4.038   9.844 -0.8393 -0.3381 -3.3562
  173SOPE   H6Y19666   3.665   4.215   9.855  1.5169 -0.7303  1.8543
  173SOPE   C3719667   3.525   4.075   9.773 -0.3997 -0.7591  0.7900
  173SOPE   H7X19668   3.442   4.142   9.806  0.6524  0.4848  0.9219
  173SOPE   H7Y19669   3.511   3.966   9.791 -2.6964 -0.6451 -0.0729
  173SOPE   C3819670   3.549   4.107   9.626  0.2698 -0.3105 -0.5070
  173SOPE   H8X19671   3.628   4.039   9.586  0.7759  0.6135 -1.0765
  173SOPE   H8Y19672   3.583   4.212   9.629 -0.5518 -0.0211 -0.9701
  173SOPE   C3919673   3.428   4.083   9.537 -0.6081  0.2569 -0.3167
  173SOPE   H9X19674   3.343   4.153   9.553 -0.2401  0.6054  0.1124
  173SOPE   H9Y19675   3.389   3.985   9.573 -0.6527  0.5615  0.4568
  173SOPE  C31019676   3.465   4.046   9.395 -0.5676 -0.1394  0.3367
  173SOPE  H10X19677   3.547   3.971   9.400 -0.1133  0.2158 -1.3134
  173SOPE  H10Y19678   3.505   4.128   9.332 -2.3521 -0.2845 -1.0312
  173SOPE  C31119679   3.353   3.977   9.320 -0.4125  0.3612 -0.1334
  173SOPE  H11X19680   3.268   4.047   9.308 -0.1982  0.7308  0.5087
  173SOPE  H11Y19681   3.312   3.881   9.355 -1.7258  0.4096 -1.5067
  173SOPE  C31219682   3.421   3.956   9.174  0.0302  0.1353 -0.6372
  173SOPE  H12X19683   3.520   3.909   9.192 -0.4611 -1.8192 -2.8080
  173SOPE  H12Y19684   3.446   4.053   9.128 -2.1584  0.9761 -0.1396
  173SOPE  C31319685   3.339   3.876   9.072  0.5874  0.5295  0.2827
  173SOPE  H13X19686   3.239   3.924   9.083  0.4593 -0.1430  2.2365
  173SOPE  H13Y19687   3.329   3.769   9.103 -1.2906  0.0073 -1.9173
  173SOPE  C31419688   3.371   3.904   8.922 -0.3041 -0.3748 -0.2582
  173SOPE  H14X19689   3.456   3.844   8.883 -0.2127 -0.0308 -0.5939
  173SOPE  H14Y19690   3.415   4.006   8.928  0.4309 -0.6341 -1.2014
  173SOPE  C31519691   3.246   3.901   8.838  0.0236 -0.3711 -0.4786
  173SOPE  H15X19692   3.183   3.988   8.866 -1.1928 -1.9909  1.9689
  173SOPE  H15Y19693   3.176   3.816   8.851  1.6207 -1.7882 -0.9121
  173SOPE  C31619694   3.264   3.900   8.684 -0.6739  0.0317  0.0406
  173SOPE  H16X19695   3.323   3.812   8.648 -2.1144 -0.1300 -1.9972
  173SOPE  H16Y19696   3.331   3.985   8.658  0.2176 -0.0406  1.9727
  173SOPE  C31719697   3.135   3.937   8.610  0.5262  0.5030 -0.2233
  173SOPE  H17X19698   3.052   3.922   8.682  1.5494 -1.0169  0.6577
  173SOPE  H17Y19699   3.111   3.857   8.536 -2.5850  0.1505  1.0821
  173SOPE  C31819700   3.121   4.079   8.559 -0.8030  0.6421 -0.2170
  173SOPE  H18X19701   3.022   4.105   8.517 -1.8411 -1.1609  1.0550
  173SOPE  H18Y19702   3.198   4.104   8.483 -0.6197 -2.0138 -0.9568
  173SOPE  H18Z19703   3.151   4.142   8.646 -2.1113 -2.5062  2.6440
  174SOPE     N19704   2.879   4.662  10.999 -0.2408  0.5010  0.1825
  174SOPE   HN119705   2.872   4.569  11.046  0.6966 -0.6063 -1.8249
  174SOPE   HN219706   2.972   4.702  11.023  0.0007  0.7497 -1.1639
  174SOPE   HN319707   2.807   4.724  11.042 -1.9099  0.9639 -3.0987
  174SOPE   C1219708   2.854   4.637  10.851 -0.2231 -0.7256  0.1379
  174SOPE  H12A19709   2.915   4.554  10.811  2.0059  1.7296 -1.7972
  174SOPE  H12B19710   2.885   4.733  10.803  2.5899 -1.5303  0.2677
  174SOPE   C1119711   2.707   4.603  10.835  0.1182  0.0782 -0.5603
  174SOPE  H11A19712   2.693   4.591  10.725  1.0078 -1.3202 -0.5320
  174SOPE  H11B19713   2.645   4.690  10.864  1.4840  0.4656  1.2489
  174SOPE     P19714   2.654   4.352  10.854  0.2745 -0.1003  0.2475
  174SOPE   O1319715   2.529   4.358  10.786 -0.7148 -0.5502 -0.1577
  174SOPE   O1419716   2.681   4.252  10.961 -0.5954  0.2401  0.3777
  174SOPE   O1219717   2.675   4.492  10.918  0.0801 -0.2246  0.4383
  174SOPE   O1119718   2.775   4.348  10.748 -0.0618  0.2934  0.5158
  174SOPE    C119719   2.856   4.233  10.722 -0.0283  0.5914 -0.3356
  174SOPE    HA19720   2.794   4.145  10.691  1.3044 -0.0820 -1.1528
  174SOPE    HB19721   2.918   4.216  10.812  1.0107  2.6148 -0.6500
  174SOPE    C219722   2.948   4.255  10.602 -0.0188 -0.0822  0.1820
  174SOPE    HS19723   3.004   4.351  10.612 -2.9920  1.7661 -0.4256
  174SOPE   O2119724   2.871   4.258  10.481  0.5339  0.2377  0.7616
  174SOPE   C2119725   2.821   4.378  10.450 -0.3548  0.0625  0.3058
  174SOPE   O2219726   2.841   4.483  10.510  0.1314  0.2361  0.1708
  174SOPE   C2219727   2.766   4.369  10.307  0.1590  0.5082  0.0867
  174SOPE   H2R19728   2.774   4.471  10.265 -0.6891 -0.0586 -1.4825
  174SOPE   H2S19729   2.661   4.335  10.299  0.3982  0.2442 -2.3866
  174SOPE    C319730   3.049   4.136  10.587  0.4848 -0.5544 -0.3682
  174SOPE    HX19731   2.998   4.039  10.606 -0.6477  0.9801  5.5495
  174SOPE    HY19732   3.126   4.145  10.666 -1.1069  3.6210  0.8668
  174SOPE   O3119733   3.128   4.146  10.461  0.9116  0.5791 -0.1477
  174SOPE   C3119734   3.116   4.049  10.379  0.0189 -0.3699 -0.1360
  174SOPE   O3219735   3.044   3.948  10.391 -0.2957  0.0202  0.4734
  174SOPE   C3219736   3.200   4.080  10.259 -0.5620 -0.5798  1.1215
  174SOPE   H2X19737   3.296   4.126  10.291 -0.4192  0.5134 -0.8285
  174SOPE   H2Y19738   3.145   4.150  10.193  1.0820  0.7698  1.1309
  174SOPE   C2319739   2.845   4.276  10.214 -0.4170 -0.0978 -0.1372
  174SOPE   H3R19740   2.816   4.170  10.232 -0.9247  0.5439  3.0130
  174SOPE   H3S19741   2.953   4.288  10.234 -0.7782 -0.5718  2.2565
  174SOPE   C2419742   2.828   4.324  10.066 -0.0925  0.0931 -0.2904
  174SOPE   H4R19743   2.722   4.305  10.039 -0.4905  0.8130  0.7008
  174SOPE   H4S19744   2.850   4.431  10.047  1.4965 -0.0367  0.7366
  174SOPE   C2519745   2.909   4.218   9.980  0.3596  0.7948  0.2701
  174SOPE   H5R19746   3.018   4.215   9.999  0.1396  1.1053  1.6797
  174SOPE   H5S19747   2.862   4.119   9.998  0.7677  0.4862 -0.3501
  174SOPE   C2619748   2.888   4.239   9.822 -0.2835 -0.1373  0.9983
  174SOPE   H6R19749   2.784   4.210   9.797 -0.8544  2.7560 -0.2559
  174SOPE   H6S19750   2.909   4.346   9.800  0.2867 -1.0410 -3.3162
  174SOPE   C2719751   2.983   4.158   9.724  0.6126 -0.5026 -0.6457
  174SOPE   H7R19752   3.087   4.183   9.755  0.2904 -0.6524  0.5867
  174SOPE   H7S19753   2.976   4.049   9.742 -2.6310 -0.3705 -0.8791
  174SOPE   C2819754   2.972   4.194   9.583 -0.3530  0.2313  0.2015
  174SOPE   H8R19755   2.963   4.305   9.586  2.0209  0.4631 -0.5800
  174SOPE   H8S19756   3.062   4.169   9.523  0.8675 -1.7188  2.7802
  174SOPE   C2919757   2.842   4.144   9.525  0.5050 -0.3286 -0.0177
  174SOPE   H9119758   2.752   4.160   9.586  0.6431 -1.8969  0.6508
  174SOPE  C21019759   2.835   4.072   9.409 -0.3216 -0.4660  0.2927
  174SOPE  H10119760   2.736   4.038   9.374 -0.3499  0.2401 -0.3166
  174SOPE  C21119761   2.948   4.030   9.313  0.8725 -0.4412 -0.1889
  174SOPE  H11R19762   3.025   3.978   9.374  0.4204  0.4590  1.1737
  174SOPE  H11S19763   2.994   4.112   9.253 -1.0212  0.0167 -1.0455
  174SOPE  C21219764   2.908   3.940   9.192  0.1666  0.8052 -0.5852
  174SOPE  H12R19765   2.868   3.846   9.234 -0.3364  0.3257 -2.1169
  174SOPE  H12S19766   3.003   3.911   9.142 -0.1674 -2.8222  0.7877
  174SOPE  C21319767   2.814   4.012   9.096  0.8140 -0.0891  0.1579
  174SOPE  H13R19768   2.864   4.100   9.051 -0.6018  0.8643  0.4338
  174SOPE  H13S19769   2.725   4.054   9.148 -0.2712 -1.0171 -0.9272
  174SOPE  C21419770   2.743   3.924   8.991  0.1555  0.0362 -0.4947
  174SOPE  H14R19771   2.805   3.861   8.924 -0.7031 -1.7940  0.4068
  174SOPE  H14S19772   2.679   3.992   8.930 -1.0309 -0.4302  0.1941
  174SOPE  C21519773   2.664   3.817   9.063  0.3687  0.4907 -1.7435
  174SOPE  H15R19774   2.593   3.872   9.128  0.1829  0.4561 -1.9166
  174SOPE  H15S19775   2.728   3.754   9.128 -2.2819 -1.3126 -0.7535
  174SOPE  C21619776   2.582   3.722   8.981  0.1769 -0.6468 -0.9186
  174SOPE  H16R19777   2.648   3.663   8.913 -2.4005  0.1253 -4.2544
  174SOPE  H16S19778   2.519   3.786   8.915 -0.0737  1.9428  1.7330
  174SOPE  C21719779   2.489   3.623   9.050  0.0125  0.2900 -1.0307
  174SOPE  H17R19780   2.418   3.686   9.108  0.3905 -1.9318  2.0053
  174SOPE  H17S19781   2.547   3.567   9.126 -0.7583 -0.2428 -0.8334
  174SOPE  C21819782   2.401   3.536   8.958 -0.8012  0.1429 -0.6444
  174SOPE  H18R19783   2.344   3.456   9.011 -2.9547  1.3743 -1.0449
  174SOPE  H18S19784   2.467   3.476   8.891 -0.8650 -0.1506 -0.4471
  174SOPE  H18T19785   2.335   3.595   8.891 -2.6991 -1.0707  0.0957
  174SOPE   C3319786   3.232   3.965  10.165 -0.3257 -0.3460 -0.5458
  174SOPE   H3X19787   3.258   3.873  10.222 -0.3208  0.0371  0.0754
  174SOPE   H3Y19788   3.318   3.981  10.097 -0.6632  0.2010 -0.8433
  174SOPE   C3419789   3.114   3.933  10.065 -0.8397  0.4985  0.0153
  174SOPE   H4X19790   3.115   4.020   9.996 -0.5701  1.3835  1.1271
  174SOPE   H4Y19791   3.017   3.939  10.118  0.5201 -0.4057  2.7052
  174SOPE   C3519792   3.129   3.786  10.003  0.0572  0.9699  0.5383
  174SOPE   H5X19793   3.029   3.747   9.972  0.1352  1.1549  0.0462
  174SOPE   H5Y19794   3.146   3.712  10.084  2.7956 -0.3884 -1.2044
  174SOPE   C3619795   3.246   3.768   9.901 -0.9574 -0.3152  0.6271
  174SOPE   H6X19796   3.311   3.858   9.905  0.2543 -1.1469  0.0913
  174SOPE   H6Y19797   3.199   3.779   9.801  0.6899  2.9812  0.1417
  174SOPE   C3719798   3.327   3.645   9.920 -0.2304 -0.5180  0.0370
  174SOPE   H7X19799   3.266   3.552   9.927 -0.3484 -0.3611  1.1967
  174SOPE   H7Y19800   3.375   3.649  10.021  1.2576 -0.7207 -0.6524
  174SOPE   C3819801   3.433   3.630   9.815 -0.3663  0.2117 -0.5725
  174SOPE   H8X19802   3.494   3.541   9.840 -0.5549  0.5208  1.0826
  174SOPE   H8Y19803   3.499   3.719   9.828  1.7282 -1.3462 -0.3395
  174SOPE   C3919804   3.389   3.611   9.669 -0.2369  0.0811  0.0622
  174SOPE   H9X19805   3.342   3.708   9.639 -0.6197 -0.3858 -0.8468
  174SOPE   H9Y19806   3.322   3.524   9.657 -2.0323  1.1541  1.8812
  174SOPE  C31019807   3.509   3.593   9.580 -0.3614 -0.0519  0.9237
  174SOPE  H10X19808   3.580   3.517   9.619 -0.9630 -1.7582 -1.2289
  174SOPE  H10Y19809   3.561   3.692   9.578  1.5477 -0.9602  3.4375
  174SOPE  C31119810   3.477   3.561   9.432 -0.2814  0.2685  0.1796
  174SOPE  H11X19811   3.404   3.637   9.395  0.7228 -0.2488 -3.0062
  174SOPE  H11Y19812   3.442   3.456   9.421 -0.4250  0.2833  0.4909
  174SOPE  C31219813   3.589   3.591   9.331  0.0259  0.1091 -0.1477
  174SOPE  H12X19814   3.684   3.549   9.370  0.0271 -2.0097 -2.3449
  174SOPE  H12Y19815   3.603   3.701   9.326 -3.6178  0.7398  1.6896
  174SOPE  C31319816   3.560   3.538   9.188  0.3979 -0.0295 -0.0985
  174SOPE  H13X19817   3.475   3.599   9.150 -1.6987 -1.4325  2.2120
  174SOPE  H13Y19818   3.527   3.432   9.188  0.7384 -0.1533 -1.7310
  174SOPE  C31419819   3.679   3.571   9.084  0.7640 -0.3731  0.2597
  174SOPE  H14X19820   3.780   3.543   9.123 -0.4636 -1.4587  2.7934
  174SOPE  H14Y19821   3.671   3.679   9.062 -2.4930 -0.5703  0.2234
  174SOPE  C31519822   3.640   3.499   8.960 -0.1512  0.5071  0.7757
  174SOPE  H15X19823   3.655   3.389   8.970 -0.4221  0.4652  0.7310
  174SOPE  H15Y19824   3.724   3.522   8.890 -0.6284 -2.3064 -0.8107
  174SOPE  C31619825   3.504   3.522   8.896 -0.2753 -0.3073 -0.8899
  174SOPE  H16X19826   3.494   3.632   8.887 -0.2610 -0.1377  0.9083
  174SOPE  H16Y19827   3.420   3.492   8.963 -0.3674 -0.8948 -1.2648
  174SOPE  C31719828   3.485   3.433   8.774  0.1281  0.8376  0.1317
  174SOPE  H17X19829   3.584   3.407   8.729 -0.2173 -0.8048  0.2981
  174SOPE  H17Y19830   3.413   3.478   8.703  0.0406  0.7294  0.1526
  174SOPE  C31819831   3.431   3.301   8.813  0.0336  0.0611 -0.0720
  174SOPE  H18X19832   3.502   3.228   8.859 -0.3914 -1.1726 -1.3464
  174SOPE  H18Y19833   3.384   3.251   8.726  2.1665 -2.0793 -0.0394
  174SOPE  H18Z19834   3.350   3.318   8.887  0.3678  0.1779  0.2732
  175SOPE     N19835   5.202   5.826  10.534  0.2645 -0.5748 -0.2354
  175SOPE   HN119836   5.298   5.808  10.568  1.5604  2.2063 -2.2754
  175SOPE   HN219837   5.202   5.925  10.501  2.7812 -0.1415  0.9485
  175SOPE   HN319838   5.139   5.807  10.615  1.2935  0.8190  0.9240
  175SOPE   C1219839   5.169   5.737  10.413  0.7144 -0.5051  0.4973
  175SOPE  H12A19840   5.141   5.634  10.443  2.9805 -1.5287 -0.7828
  175SOPE  H12B19841   5.256   5.722  10.345  2.4239  0.7418  2.3664
  175SOPE   C1119842   5.052   5.799  10.325  0.3034 -0.0149 -0.2913
  175SOPE  H11A19843   5.041   5.734  10.235  0.3537  0.3676 -0.5767
  175SOPE  H11B19844   5.095   5.887  10.272  1.3229  1.7232  3.2565
  175SOPE     P19845   4.817   5.724  10.407  0.0506 -0.1160 -0.0267
  175SOPE   O1319846   4.708   5.760  10.316  0.0127 -0.1680  0.2681
  175SOPE   O1419847   4.783   5.706  10.552  0.5627  0.0955 -0.2294
  175SOPE   O1219848   4.933   5.832  10.397  0.3558 -0.5556 -0.0757
  175SOPE   O1119849   4.878   5.589  10.356 -0.2532  0.1671  0.8909
  175SOPE    C119850   4.794   5.488  10.287 -0.4804  0.3014 -0.8678
  175SOPE    HA19851   4.687   5.511  10.310 -0.3473 -0.3936  0.4886
  175SOPE    HB19852   4.793   5.392  10.344 -1.3634 -0.8116 -2.6968
  175SOPE    C219853   4.826   5.467  10.135  0.6933 -0.1613 -0.2310
  175SOPE    HS19854   4.759   5.392  10.088  0.8173  0.1722 -0.9500
  175SOPE   O2119855   4.958   5.422  10.113  0.3544  0.2545  0.0122
  175SOPE   C2119856   4.975   5.294  10.146 -0.1521 -0.0709 -0.2458
  175SOPE   O2219857   4.888   5.215  10.183  0.1995  0.5248 -0.6277
  175SOPE   C2219858   5.123   5.252  10.117 -0.3122  0.1902  0.7746
  175SOPE   H2R19859   5.169   5.219  10.212  2.3526  0.4571 -0.3522
  175SOPE   H2S19860   5.178   5.347  10.095 -3.5865  2.0311  0.2022
  175SOPE    C319861   4.806   5.595  10.046 -0.1809  0.4162 -0.1208
  175SOPE    HX19862   4.862   5.674  10.102 -1.7687  1.4735  0.0003
  175SOPE    HY19863   4.698   5.622  10.043 -0.2756  0.6722  3.1098
  175SOPE   O3119864   4.857   5.570   9.913  0.0179 -0.6220 -0.2284
  175SOPE   C3119865   4.871   5.684   9.851  0.0984 -0.5589  0.2543
  175SOPE   O3219866   4.831   5.792   9.888  0.0870  0.8299 -0.6363
  175SOPE   C3219867   4.946   5.670   9.717 -0.5597 -0.4512  0.3508
  175SOPE   H2X19868   4.982   5.564   9.717  0.8239 -0.0003 -0.7092
  175SOPE   H2Y19869   5.033   5.739   9.727  1.5068 -2.9473  0.3651
  175SOPE   C2319870   5.130   5.146  10.013  0.1983  0.1288  0.5615
  175SOPE   H3R19871   5.083   5.050  10.045 -0.4165 -0.9577 -3.2730
  175SOPE   H3S19872   5.234   5.114   9.989  0.1737  0.6387 -0.2382
  175SOPE   C2419873   5.063   5.184   9.885 -0.2693  0.1362  0.0727
  175SOPE   H4R19874   4.955   5.169   9.908  0.2277 -0.0452  2.3835
  175SOPE   H4S19875   5.077   5.293   9.868 -2.4265  0.4644  0.2669
  175SOPE   C2519876   5.107   5.103   9.762  0.0566 -0.0979 -0.3521
  175SOPE   H5R19877   5.212   5.131   9.743  0.0569  0.3284  0.2680
  175SOPE   H5S19878   5.112   4.992   9.769 -0.7902 -0.1645 -0.7786
  175SOPE   C2619879   5.006   5.134   9.659  0.8915 -0.6503 -0.0617
  175SOPE   H6R19880   5.024   5.073   9.568  2.0847  0.8267 -0.8521
  175SOPE   H6S19881   4.902   5.102   9.682 -0.2685  2.4039 -0.7718
  175SOPE   C2719882   5.011   5.278   9.605  0.0450  0.3190 -0.6095
  175SOPE   H7R19883   4.949   5.338   9.673  0.0508  0.5514 -0.8073
  175SOPE   H7S19884   5.111   5.327   9.600  0.5697 -0.5288  1.2213
  175SOPE   C2819885   4.951   5.285   9.465  0.1217 -0.1903 -0.8023
  175SOPE   H8R19886   4.865   5.215   9.459 -0.6326  0.7482 -1.2091
  175SOPE   H8S19887   4.904   5.385   9.449  0.1585  0.3770  2.3968
  175SOPE   C2919888   5.056   5.234   9.365  0.1325 -0.2793  0.0874
  175SOPE   H9119889   5.126   5.168   9.419  0.1714  0.0575  0.4613
  175SOPE  C21019890   5.076   5.260   9.237  0.2684  0.0174 -0.3259
  175SOPE  H10119891   5.143   5.205   9.169  0.4908 -0.7834  0.5363
  175SOPE  C21119892   4.976   5.339   9.154 -0.2906 -0.3727 -0.0898
  175SOPE  H11R19893   5.033   5.414   9.095  0.2684 -0.6963  0.0351
  175SOPE  H11S19894   4.895   5.382   9.217 -0.0701 -0.8574  0.5339
  175SOPE  C21219895   4.916   5.239   9.056  0.1529 -0.0080  0.2271
  175SOPE  H12R19896   4.839   5.300   9.004 -1.4827 -1.3718  1.0125
  175SOPE  H12S19897   4.854   5.165   9.111  1.6508 -0.6372  1.0875
  175SOPE  C21319898   5.009   5.160   8.968  0.3577 -0.0283  0.9976
  175SOPE  H13R19899   5.062   5.078   9.020 -2.7531 -3.4282 -0.9773
  175SOPE  H13S19900   5.079   5.232   8.921  0.7477 -1.7028 -1.0809
  175SOPE  C21419901   4.930   5.105   8.852  0.0951  0.0474 -0.1721
  175SOPE  H14R19902   4.877   5.192   8.810 -0.0831  0.2088  0.3866
  175SOPE  H14S19903   4.850   5.036   8.885 -1.3883  3.1836  3.1032
  175SOPE  C21519904   5.012   5.034   8.739  0.0317 -0.0789 -0.3630
  175SOPE  H15R19905   5.032   4.932   8.778  0.6425  0.7997  1.6782
  175SOPE  H15S19906   5.108   5.091   8.736  0.6737 -1.1653 -0.7022
  175SOPE  C21619907   4.924   5.024   8.614 -0.2637 -0.2836 -0.5030
  175SOPE  H16R19908   4.822   5.051   8.649  1.0968  1.3340  2.3211
  175SOPE  H16S19909   4.926   4.917   8.584 -0.6786  0.1086 -2.0040
  175SOPE  C21719910   4.958   5.129   8.506 -0.3076  0.2336  0.0499
  175SOPE  H17R19911   5.066   5.124   8.481 -0.6609  0.9252 -1.7034
  175SOPE  H17S19912   4.947   5.231   8.549 -0.9132 -0.0980  0.6846
  175SOPE  C21819913   4.881   5.112   8.381  0.0353  0.4412 -0.0430
  175SOPE  H18R19914   4.773   5.138   8.389 -0.3758 -1.4599  0.8641
  175SOPE  H18S19915   4.882   5.006   8.349  0.1881  0.5788 -0.5015
  175SOPE  H18T19916   4.928   5.177   8.304  1.9470 -2.3712 -1.3239
  175SOPE   C3319917   4.863   5.704   9.588  0.2177 -0.3226 -0.1984
  175SOPE   H3X19918   4.825   5.809   9.588 -0.8913 -0.7138  0.1263
  175SOPE   H3Y19919   4.770   5.644   9.593  0.8881 -1.2559  1.5198
  175SOPE   C3419920   4.947   5.685   9.459  0.3974 -0.3421 -0.7614
  175SOPE   H4X19921   5.013   5.596   9.463  1.7244  0.6949  1.7900
  175SOPE   H4Y19922   5.022   5.767   9.452 -0.8450  0.9483  0.6287
  175SOPE   C3519923   4.866   5.707   9.336 -0.0688 -0.2858 -0.4530
  175SOPE   H5X19924   4.813   5.805   9.340  1.1124  0.3831 -1.0109
  175SOPE   H5Y19925   4.778   5.641   9.323  1.6993 -3.2766  1.9978
  175SOPE   C3619926   4.954   5.708   9.204  0.5256  0.0952 -0.4364
  175SOPE   H6X19927   5.013   5.614   9.205  1.3121  0.5781 -1.0073
  175SOPE   H6Y19928   5.037   5.780   9.220 -0.9384  1.1512  2.9128
  175SOPE   C3719929   4.874   5.733   9.069  0.6488  0.4955 -0.1176
  175SOPE   H7X19930   4.804   5.816   9.090 -0.3852 -0.0613 -1.3393
  175SOPE   H7Y19931   4.804   5.648   9.055  1.6141 -0.4313  0.5188
  175SOPE   C3819932   4.955   5.747   8.939  0.2717 -0.5675  0.1344
  175SOPE   H8X19933   4.879   5.766   8.860 -1.0143  0.3852  1.5704
  175SOPE   H8Y19934   5.011   5.652   8.926 -0.3874 -1.1693  1.5904
  175SOPE   C3919935   5.033   5.878   8.954 -0.1725  0.3326 -0.2445
  175SOPE   H9X19936   5.112   5.861   9.031  0.0918 -0.4689 -0.6856
  175SOPE   H9Y19937   4.964   5.956   8.991  1.5094  2.0492 -0.6693
  175SOPE  C31019938   5.101   5.949   8.841  0.5227 -0.7307 -0.4449
  175SOPE  H10X19939   5.169   6.026   8.884  0.0747 -0.6457  0.1190
  175SOPE  H10Y19940   5.036   5.995   8.764 -0.1656 -0.2768  0.3996
  175SOPE  C31119941   5.191   5.853   8.759  0.0422  0.2272 -0.1893
  175SOPE  H11X19942   5.130   5.775   8.709 -0.1472  0.7349 -0.7509
  175SOPE  H11Y19943   5.270   5.804   8.819  1.6047  1.0519 -1.5291
  175SOPE  C31219944   5.268   5.927   8.652 -0.5328  0.4158  0.3311
  175SOPE  H12X19945   5.330   6.005   8.701  0.9602 -2.1827  2.7223
  175SOPE  H12Y19946   5.205   5.975   8.574  1.0447 -0.8001 -1.7584
  175SOPE  C31319947   5.356   5.848   8.561 -0.1262 -0.1334  1.0368
  175SOPE  H13X19948   5.327   5.742   8.575 -0.5216 -0.2641 -0.6208
  175SOPE  H13Y19949   5.463   5.854   8.589 -0.2683 -2.6305  2.2226
  175SOPE  C31419950   5.356   5.905   8.419  0.9130  0.1836  0.0818
  175SOPE  H14X19951   5.447   5.867   8.367 -0.9904 -0.7477 -2.7203
  175SOPE  H14Y19952   5.365   6.015   8.422 -2.0997  0.6328 -3.1889
  175SOPE  C31519953   5.235   5.853   8.333 -0.0198 -0.0924 -0.0872
  175SOPE  H15X19954   5.148   5.855   8.401  0.1257 -0.2891  0.1082
  175SOPE  H15Y19955   5.262   5.748   8.310 -0.6367 -0.4843  0.9134
  175SOPE  C31619956   5.205   5.929   8.198 -0.7640  0.2766  0.4015
  175SOPE  H16X19957   5.135   5.861   8.144 -0.4350 -0.0746  0.4096
  175SOPE  H16Y19958   5.300   5.932   8.140 -0.3952  0.3620  1.0051
  175SOPE  C31719959   5.149   6.068   8.222 -0.4183  0.4176 -0.1527
  175SOPE  H17X19960   5.231   6.131   8.263  1.0293 -0.6124 -1.4123
  175SOPE  H17Y19961   5.058   6.063   8.285  0.1194  1.5776  0.7290
  175SOPE  C31819962   5.091   6.133   8.089 -0.3322 -0.2115 -0.9140
  175SOPE  H18X19963   5.083   6.243   8.099 -1.1569 -0.3303 -0.2131
  175SOPE  H18Y19964   5.001   6.082   8.051  0.0935 -1.1978 -0.6096
  175SOPE  H18Z19965   5.170   6.127   8.011  0.3467 -1.1353 -0.1562
  176SOPE     N19966   4.419   4.810  11.119 -0.0275  0.0477  0.4031
  176SOPE   HN119967   4.362   4.806  11.206 -0.1419 -1.6079  0.2735
  176SOPE   HN219968   4.372   4.748  11.050  0.7182 -2.3177  1.9342
  176SOPE   HN319969   4.512   4.766  11.134  0.8156  1.6668 -0.0033
  176SOPE   C1219970   4.446   4.955  11.073  0.0302 -0.9555  0.0325
  176SOPE  H12A19971   4.501   4.998  11.160 -1.4894 -0.7159  0.9031
  176SOPE  H12B19972   4.350   5.009  11.055  0.2647 -0.2824  0.7654
  176SOPE   C1119973   4.538   4.969  10.948 -0.2407  0.2676 -0.5406
  176SOPE  H11A19974   4.571   5.075  10.951 -0.0045  0.2051 -0.9662
  176SOPE  H11B19975   4.473   4.951  10.860 -1.2980  1.1052  0.0622
  176SOPE     P19976   4.736   4.857  10.824  0.2241 -0.0684 -0.2808
  176SOPE   O1319977   4.842   4.760  10.863 -0.4192 -0.4939  0.2684
  176SOPE   O1419978   4.782   4.991  10.789 -0.8642  0.7926 -0.0310
  176SOPE   O1219979   4.645   4.871  10.949  0.1804 -0.1445 -0.1585
  176SOPE   O1119980   4.634   4.803  10.720  0.1393  0.0234  0.2805
  176SOPE    C119981   4.549   4.691  10.754 -0.1690  0.1594  0.3200
  176SOPE    HA19982   4.444   4.728  10.755 -0.2330  0.1003 -1.6278
  176SOPE    HB19983   4.575   4.651  10.854  0.8440  0.4984  0.1940
  176SOPE    C219984   4.537   4.584  10.641 -0.3413 -0.7414 -0.8260
  176SOPE    HS19985   4.629   4.523  10.652  0.5412  1.0024  1.7112
  176SOPE   O2119986   4.526   4.647  10.512  0.1059 -0.4529 -0.1939
  176SOPE   C2119987   4.641   4.661  10.452 -0.5180 -0.1195  1.2339
  176SOPE   O2219988   4.747   4.613  10.479 -0.5142  0.1395  0.0796
  176SOPE   C2219989   4.620   4.772  10.347  0.1393  0.5448  0.0321
  176SOPE   H2R19990   4.679   4.859  10.380 -0.0917  0.9792 -0.6892
  176SOPE   H2S19991   4.511   4.791  10.332  0.0587  0.3174  0.3232
  176SOPE    C319992   4.413   4.492  10.659  0.8020  0.3412 -0.6252
  176SOPE    HX19993   4.326   4.549  10.697 -0.3273 -1.1409 -0.9705
  176SOPE    HY19994   4.441   4.421  10.739  2.0149 -0.6253 -1.8866
  176SOPE   O3119995   4.381   4.408  10.542 -0.8528 -0.4679  0.7270
  176SOPE   C3119996   4.257   4.366  10.560  0.1880  0.2075 -0.1315
  176SOPE   O3219997   4.191   4.383  10.662 -0.4596 -0.1722 -0.4188
  176SOPE   C3219998   4.208   4.290  10.427 -0.2799 -0.2168  0.4302
  176SOPE   H2X19999   4.218   4.360  10.341 -0.0436 -2.7254 -1.6473
  176SOPE   H2Y20000   4.104   4.260  10.452 -0.8473  1.9926  0.9006
  176SOPE   C2320001   4.681   4.720  10.212 -0.0529 -0.4441  0.3144
  176SOPE   H3R20002   4.623   4.630  10.180 -0.6315 -0.1818  0.6222
  176SOPE   H3S20003   4.788   4.703  10.236  0.2139  1.8089  0.7995
  176SOPE   C2420004   4.687   4.833  10.099  0.0076  0.3553  0.2205
  176SOPE   H4R20005   4.582   4.860  10.076 -0.7613 -1.9611  0.8505
  176SOPE   H4S20006   4.746   4.919  10.136 -0.1962  0.4107  0.4143
  176SOPE   C2520007   4.753   4.777   9.967  0.2775 -0.0876 -0.0292
  176SOPE   H5R20008   4.859   4.743   9.966 -0.0490 -1.1965 -3.4557
  176SOPE   H5S20009   4.701   4.684   9.939  0.6817 -1.2643  2.9315
  176SOPE   C2620010   4.742   4.876   9.858 -0.5926 -0.4333 -0.4804
  176SOPE   H6R20011   4.633   4.900   9.859 -0.2968  1.0912 -1.5879
  176SOPE   H6S20012   4.804   4.966   9.876 -0.5467 -0.4674 -0.4716
  176SOPE   C2720013   4.772   4.819   9.720 -0.3707 -0.2739  0.8054
  176SOPE   H7R20014   4.882   4.814   9.707 -0.1379  2.2563  1.4922
  176SOPE   H7S20015   4.724   4.721   9.702  0.6882 -0.8174  0.9288
  176SOPE   C2820016   4.716   4.906   9.602  0.4771  0.4305  0.0064
  176SOPE   H8R20017   4.605   4.905   9.605  0.4443 -0.3290 -1.2432
  176SOPE   H8S20018   4.739   5.013   9.624 -0.5964  0.5312  0.7176
  176SOPE   C2920019   4.776   4.856   9.473 -0.1411 -1.1158 -0.4762
  176SOPE   H9120020   4.866   4.795   9.483  0.1212 -0.5707  0.5948
  176SOPE  C21020021   4.721   4.892   9.353 -0.5507  0.0242  0.2679
  176SOPE  H10120022   4.761   4.843   9.262 -0.2436 -0.4987  0.6785
  176SOPE  C21120023   4.600   4.988   9.346  0.8089  0.6661  0.5130
  176SOPE  H11R20024   4.627   5.096   9.338 -4.1987  2.1005  1.2430
  176SOPE  H11S20025   4.526   4.973   9.428 -0.7036  0.5482 -0.8418
  176SOPE  C21220026   4.520   4.952   9.215 -0.3877  0.5488  0.0124
  176SOPE  H12R20027   4.435   5.024   9.211 -0.5357  0.4639  1.3924
  176SOPE  H12S20028   4.473   4.853   9.235  1.8959 -0.3598  0.9784
  176SOPE  C21320029   4.588   4.937   9.076 -0.3432  0.0872 -0.1218
  176SOPE  H13R20030   4.677   4.873   9.093 -1.0569 -0.6083  1.0757
  176SOPE  H13S20031   4.610   5.042   9.047 -2.1152  0.3930 -0.3733
  176SOPE  C21420032   4.501   4.880   8.969  0.6350  0.0978 -0.1061
  176SOPE  H14R20033   4.407   4.938   8.983  0.5029 -0.3331  0.8742
  176SOPE  H14S20034   4.476   4.772   8.975  1.4322 -0.0539  0.5010
  176SOPE  C21520035   4.553   4.915   8.834 -0.2193  0.3191  0.0136
  176SOPE  H15R20036   4.660   4.891   8.817  0.0894  1.7418 -0.1567
  176SOPE  H15S20037   4.549   5.024   8.815 -2.0079  0.1886 -0.4976
  176SOPE  C21620038   4.471   4.844   8.732  0.0950 -0.5556  0.1858
  176SOPE  H16R20039   4.473   4.734   8.751 -1.1899 -0.6268 -0.0728
  176SOPE  H16S20040   4.504   4.862   8.628 -2.0973  1.7101 -0.1558
  176SOPE  C21720041   4.327   4.896   8.731  0.1470 -0.0674 -0.0348
  176SOPE  H17R20042   4.329   5.000   8.692  0.4649  0.0823  0.3711
  176SOPE  H17S20043   4.273   4.892   8.829 -1.1133 -0.6431 -0.7399
  176SOPE  C21820044   4.234   4.815   8.643 -0.4332 -0.0723  0.5836
  176SOPE  H18R20045   4.298   4.769   8.565 -0.0457 -0.4317  1.1097
  176SOPE  H18S20046   4.160   4.878   8.590  0.0775 -0.9079 -1.1490
  176SOPE  H18T20047   4.180   4.738   8.702  0.4121  1.1300  2.9806
  176SOPE   C3320048   4.301   4.174  10.379 -0.2348  0.2630 -0.1033
  176SOPE   H3X20049   4.319   4.104  10.464 -1.0849  0.8029  0.5347
  176SOPE   H3Y20050   4.387   4.227  10.333 -0.8400  0.1675 -1.3601
  176SOPE   C3420051   4.222   4.089  10.274  0.1350  0.3921 -0.2093
  176SOPE   H4X20052   4.119   4.076  10.313 -0.3794  0.8887 -1.3553
  176SOPE   H4Y20053   4.281   3.996  10.272  0.8715  0.8673 -1.4624
  176SOPE   C3520054   4.237   4.146  10.133 -0.2089 -0.2570 -0.1068
  176SOPE   H5X20055   4.336   4.113  10.094 -0.0499 -0.4754  0.4862
  176SOPE   H5Y20056   4.236   4.256  10.148  1.0733 -0.0074 -1.6711
  176SOPE   C3620057   4.115   4.099  10.048 -0.4852 -0.3036 -0.2342
  176SOPE   H6X20058   4.021   4.133  10.096 -0.6786  0.3482 -1.0603
  176SOPE   H6Y20059   4.116   3.988  10.038  0.9592 -0.1864 -1.6962
  176SOPE   C3720060   4.109   4.152   9.900 -0.1615  0.1995  0.8032
  176SOPE   H7X20061   4.050   4.084   9.835  0.3478  0.0196  0.5183
  176SOPE   H7Y20062   4.208   4.159   9.850 -0.8940 -1.2582 -0.9049
  176SOPE   C3820063   4.052   4.298   9.896 -0.7661 -0.6472  0.1743
  176SOPE   H8X20064   4.097   4.371   9.966  1.6506 -0.6678 -1.3011
  176SOPE   H8Y20065   3.946   4.285   9.927 -0.6980 -1.2196  0.1766
  176SOPE   C3920066   4.059   4.359   9.754  0.3557 -0.3415 -0.5346
  176SOPE   H9X20067   4.165   4.363   9.722  1.1654  1.2818  2.1759
  176SOPE   H9Y20068   4.031   4.467   9.756  1.0359 -0.1779  0.4993
  176SOPE  C31020069   3.968   4.290   9.651 -0.2397 -0.2240 -0.6711
  176SOPE  H10X20070   3.874   4.339   9.685 -1.0718 -2.3503  0.1771
  176SOPE  H10Y20071   3.974   4.180   9.670  1.4102 -0.0244  0.0556
  176SOPE  C31120072   3.972   4.339   9.499 -0.5038 -0.2604  0.0214
  176SOPE  H11X20073   4.024   4.257   9.444 -2.5512 -1.6803  0.1343
  176SOPE  H11Y20074   4.024   4.434   9.477 -0.6895  0.0338  0.8318
  176SOPE  C31220075   3.836   4.329   9.426 -0.4941 -0.2065 -0.1920
  176SOPE  H12X20076   3.762   4.394   9.477 -0.2336 -0.3263  0.3420
  176SOPE  H12Y20077   3.798   4.225   9.414  2.7018 -1.5313  0.7468
  176SOPE  C31320078   3.831   4.383   9.282 -0.3468 -0.6796  0.4528
  176SOPE  H13X20079   3.903   4.326   9.220  0.5601  1.3856 -0.4218
  176SOPE  H13Y20080   3.858   4.490   9.280 -1.5312 -0.3581  1.1332
  176SOPE  C31420081   3.694   4.367   9.213 -0.0284  0.4799 -0.4945
  176SOPE  H14X20082   3.633   4.440   9.272  0.8326 -0.0468  1.0833
  176SOPE  H14Y20083   3.657   4.265   9.234  1.3258  0.2504  0.8409
  176SOPE  C31520084   3.678   4.397   9.067  0.4253  0.3680 -0.0731
  176SOPE  H15X20085   3.581   4.353   9.034 -0.4506  1.2333  1.2680
  176SOPE  H15Y20086   3.751   4.334   9.013 -1.2114 -0.6174 -1.1989
  176SOPE  C31620087   3.687   4.549   9.035  0.0721  0.2349 -0.1416
  176SOPE  H16X20088   3.776   4.600   9.080 -0.3373  0.3909  0.5076
  176SOPE  H16Y20089   3.610   4.607   9.090 -0.5904 -0.8294  0.0632
  176SOPE  C31720090   3.677   4.599   8.887 -0.2220  0.7261 -0.4737
  176SOPE  H17X20091   3.677   4.710   8.877  0.6534  1.0336  2.6130
  176SOPE  H17Y20092   3.582   4.562   8.844 -1.6318 -0.5070  3.5053
  176SOPE  C31820093   3.779   4.539   8.793  0.2178  0.1902 -0.2640
  176SOPE  H18X20094   3.787   4.431   8.818 -0.5749  0.3154  0.5714
  176SOPE  H18Y20095   3.880   4.581   8.812 -1.0154  2.9680  0.3671
  176SOPE  H18Z20096   3.752   4.560   8.687 -1.7492  0.9275  0.3529
  177SOPE     N20097   3.418   3.237  11.213 -0.1672 -0.0859 -0.0779
  177SOPE   HN120098   3.447   3.331  11.178  0.8930 -0.3783 -0.0133
  177SOPE   HN220099   3.339   3.204  11.154  0.7982  0.0464 -1.4695
  177SOPE   HN320100   3.385   3.264  11.308  1.7762 -0.1312  0.6298
  177SOPE   C1220101   3.518   3.131  11.221 -0.0536  0.1273  0.0564
  177SOPE  H12A20102   3.472   3.042  11.270  0.6667  1.1407  2.6395
  177SOPE  H12B20103   3.598   3.175  11.283 -1.1427  2.4896 -0.1659
  177SOPE   C1120104   3.584   3.089  11.093 -0.2589 -0.1184 -0.4812
  177SOPE  H11A20105   3.502   3.038  11.037 -0.7264 -0.2617  0.3268
  177SOPE  H11B20106   3.645   2.998  11.109 -0.2829 -0.4460 -2.1026
  177SOPE     P20107   3.587   3.262  10.901 -0.0817  0.0133 -0.0489
  177SOPE   O1320108   3.682   3.341  10.817  0.5621  0.3621 -0.5865
  177SOPE   O1420109   3.468   3.329  10.943  0.5727 -0.0100 -0.1722
  177SOPE   O1220110   3.653   3.196  11.021  0.2067 -0.2436 -0.2702
  177SOPE   O1120111   3.539   3.140  10.810  0.1207 -0.5772  0.0116
  177SOPE    C120112   3.616   3.027  10.789  0.2573 -0.2711 -0.4473
  177SOPE    HA20113   3.568   2.939  10.836  0.4589 -0.6855 -1.0002
  177SOPE    HB20114   3.715   3.036  10.839 -0.5779 -1.2269  1.3979
  177SOPE    C220115   3.645   2.998  10.638 -0.6571 -0.2285  0.1603
  177SOPE    HS20116   3.727   2.923  10.631  0.3848  0.8798  0.2838
  177SOPE   O2120117   3.686   3.125  10.571  0.0607  0.2541 -0.0131
  177SOPE   C2120118   3.800   3.116  10.509 -0.2737  0.3313  0.4081
  177SOPE   O2220119   3.857   3.012  10.468 -0.2057 -1.2695  0.6509
  177SOPE   C2220120   3.836   3.263  10.489  0.2503  0.2510  1.0840
  177SOPE   H2R20121   3.844   3.310  10.590  4.0758 -2.3994  2.1433
  177SOPE   H2S20122   3.742   3.305  10.448  0.1821 -1.3401 -0.4330
  177SOPE    C320123   3.521   2.941  10.564  0.1825 -0.6494  0.2557
  177SOPE    HX20124   3.433   3.009  10.564 -0.5099 -1.5357 -0.0878
  177SOPE    HY20125   3.479   2.854  10.619 -2.0281 -0.6169 -1.3152
  177SOPE   O3120126   3.558   2.900  10.432 -0.1685 -0.7516 -0.6935
  177SOPE   C3120127   3.615   2.778  10.422 -0.5001  0.2255 -0.0809
  177SOPE   O3220128   3.638   2.704  10.515  0.1757  0.2481  0.1236
  177SOPE   C3220129   3.630   2.750  10.269 -0.2073  0.1323  0.2391
  177SOPE   H2X20130   3.702   2.827  10.233  1.0015 -1.0856  0.0297
  177SOPE   H2Y20131   3.533   2.782  10.224 -0.6999  1.2395  2.0225
  177SOPE   C2320132   3.975   3.281  10.414 -0.2546 -0.0993 -0.3155
  177SOPE   H3R20133   4.061   3.221  10.453  1.5639  1.7473 -1.4085
  177SOPE   H3S20134   4.018   3.382  10.429 -1.2270  0.3932 -0.8416
  177SOPE   C2420135   3.957   3.271  10.266 -0.3261  0.3322 -0.0403
  177SOPE   H4R20136   3.961   3.162  10.247  0.3801  0.2711  0.4333
  177SOPE   H4S20137   3.860   3.310  10.230  0.6853 -0.1781 -3.5355
  177SOPE   C2520138   4.066   3.334  10.186  0.6855 -0.1543 -0.2395
  177SOPE   H5R20139   4.076   3.442  10.210 -0.0882  0.1032 -1.0682
  177SOPE   H5S20140   4.161   3.280  10.209  1.3179  0.7784 -0.6354
  177SOPE   C2620141   4.055   3.323  10.026  0.5765  0.4034  0.3576
  177SOPE   H6R20142   3.991   3.236   9.999 -1.5605  1.8757  0.4943
  177SOPE   H6S20143   4.000   3.415   9.996 -3.7198 -1.6466  1.5630
  177SOPE   C2720144   4.182   3.301   9.944 -0.0031 -0.1864 -0.6873
  177SOPE   H7R20145   4.243   3.389   9.975 -1.6347  1.1101 -1.0976
  177SOPE   H7S20146   4.240   3.209   9.967 -0.2164  0.1157  1.1716
  177SOPE   C2820147   4.148   3.318   9.790 -0.2997 -0.7513  0.4554
  177SOPE   H8R20148   4.236   3.283   9.732 -1.6075 -2.5767 -0.4886
  177SOPE   H8S20149   4.071   3.241   9.768 -0.2902 -0.3397 -1.0938
  177SOPE   C2920150   4.112   3.456   9.738 -0.5883 -0.1033 -0.2925
  177SOPE   H9120151   4.082   3.527   9.816  0.1626 -2.5445  2.2935
  177SOPE  C21020152   4.111   3.487   9.605  0.7242 -0.3817  0.7052
  177SOPE  H10120153   4.079   3.589   9.581 -1.6934 -1.6331 -1.6847
  177SOPE  C21120154   4.125   3.405   9.477 -0.5498 -1.5747 -0.8676
  177SOPE  H11R20155   4.031   3.424   9.422 -1.5017 -1.1934  0.8600
  177SOPE  H11S20156   4.139   3.297   9.497  1.6312 -1.0968  0.2948
  177SOPE  C21220157   4.242   3.450   9.396  0.1793 -0.0458 -0.4381
  177SOPE  H12R20158   4.277   3.365   9.333  1.9518 -0.5532  1.2064
  177SOPE  H12S20159   4.332   3.482   9.453 -0.3278  0.4971  0.0568
  177SOPE  C21320160   4.216   3.560   9.288  0.2819  0.1606  0.1015
  177SOPE  H13R20161   4.181   3.650   9.343  1.2399 -0.9355  2.5737
  177SOPE  H13S20162   4.125   3.537   9.229  1.8938 -0.6837 -2.1046
  177SOPE  C21420163   4.350   3.582   9.212 -0.2307 -0.2270  0.1816
  177SOPE  H14R20164   4.401   3.486   9.187 -0.7125 -0.9901  1.9858
  177SOPE  H14S20165   4.411   3.640   9.284 -0.9396 -0.3907  0.9300
  177SOPE  C21520166   4.332   3.663   9.084  0.3240 -0.1113 -0.0862
  177SOPE  H15R20167   4.269   3.753   9.099 -0.0527 -0.1045 -1.6415
  177SOPE  H15S20168   4.268   3.600   9.018  0.4438 -2.2456  1.7601
  177SOPE  C21620169   4.465   3.704   9.024 -0.0685 -0.6945  0.0561
  177SOPE  H16R20170   4.503   3.782   9.093 -1.3777 -0.7487  0.8668
  177SOPE  H16S20171   4.439   3.771   8.939 -0.7033 -0.9572  0.0367
  177SOPE  C21720172   4.569   3.599   8.995 -0.0980  0.1804  1.0764
  177SOPE  H17R20173   4.594   3.562   9.096  1.3606  0.4560  0.8289
  177SOPE  H17S20174   4.658   3.655   8.960  2.1235 -2.4925  2.2826
  177SOPE  C21820175   4.542   3.486   8.890  0.1567  0.3465 -0.4969
  177SOPE  H18R20176   4.516   3.533   8.792  0.6704  1.1536 -0.2542
  177SOPE  H18S20177   4.461   3.418   8.924  1.2606 -0.9824 -0.4818
  177SOPE  H18T20178   4.636   3.431   8.870  0.4307  1.0221 -1.1112
  177SOPE   C3320179   3.673   2.611  10.229 -0.4362  0.7526  1.1199
  177SOPE   H3X20180   3.580   2.552  10.241  1.1221 -2.2372 -0.6643
  177SOPE   H3Y20181   3.754   2.579  10.298  1.4211 -0.0140 -1.3459
  177SOPE   C3420182   3.731   2.601  10.076 -1.1251 -0.0262  0.7763
  177SOPE   H4X20183   3.748   2.493  10.054 -2.0935 -0.4682  2.1273
  177SOPE   H4Y20184   3.833   2.642  10.066 -1.4466  0.2771 -1.4494
  177SOPE   C3520185   3.657   2.683   9.965  0.2194  0.5790 -0.1617
  177SOPE   H5X20186   3.626   2.783  10.002 -1.8041 -0.4804  1.1495
  177SOPE   H5Y20187   3.562   2.629   9.944  0.5654 -0.0351 -0.1455
  177SOPE   C3620188   3.732   2.699   9.835  0.3338  0.0259 -0.1738
  177SOPE   H6X20189   3.802   2.614   9.813 -0.4089 -1.0307  1.4722
  177SOPE   H6Y20190   3.793   2.791   9.842  1.2182 -0.6795  1.6714
  177SOPE   C3720191   3.637   2.690   9.715  0.0569 -0.8448  0.0630
  177SOPE   H7X20192   3.552   2.758   9.738 -1.2551 -2.0115 -1.2544
  177SOPE   H7Y20193   3.596   2.587   9.706 -3.2267  0.3389  0.7521
  177SOPE   C3820194   3.696   2.743   9.583  0.2666  0.7184  0.3401
  177SOPE   H8X20195   3.779   2.679   9.548 -0.4785 -0.5014  0.7521
  177SOPE   H8Y20196   3.729   2.847   9.602 -0.0410  0.4547  2.4630
  177SOPE   C3920197   3.609   2.731   9.454 -0.2415 -0.3958 -0.0015
  177SOPE   H9X20198   3.528   2.806   9.472  0.5470  0.4413  0.0685
  177SOPE   H9Y20199   3.548   2.639   9.441  1.5292 -1.7018  0.8196
  177SOPE  C31020200   3.693   2.761   9.325  0.3393 -0.2159 -0.2991
  177SOPE  H10X20201   3.796   2.720   9.327  0.3985 -0.1474 -1.7468
  177SOPE  H10Y20202   3.687   2.872   9.323 -3.7894 -0.3802 -0.1305
  177SOPE  C31120203   3.611   2.702   9.208 -0.4300 -0.3089  0.1776
  177SOPE  H11X20204   3.514   2.756   9.207  0.2553  0.9480 -1.5097
  177SOPE  H11Y20205   3.591   2.598   9.241  1.3331 -1.7682 -3.1511
  177SOPE  C31220206   3.686   2.716   9.078  0.0242  0.6627  0.2863
  177SOPE  H12X20207   3.763   2.636   9.070  0.0603  0.8588 -1.3245
  177SOPE  H12Y20208   3.734   2.816   9.078  0.7146  0.3415  1.2591
  177SOPE  C31320209   3.603   2.712   8.945  0.3245 -0.2161 -0.4381
  177SOPE  H13X20210   3.533   2.798   8.952 -1.1531 -1.4991  1.1322
  177SOPE  H13Y20211   3.548   2.615   8.951 -1.2622  0.7892  1.6526
  177SOPE  C31420212   3.676   2.722   8.813 -1.1028  1.0165 -0.0348
  177SOPE  H14X20213   3.747   2.637   8.805 -0.4854  1.4895  0.3697
  177SOPE  H14Y20214   3.739   2.813   8.809 -0.8528  0.9269  1.4559
  177SOPE  C31520215   3.591   2.726   8.691  0.8066 -0.1421 -1.0553
  177SOPE  H15X20216   3.515   2.646   8.678 -0.6805  0.4399  3.2464
  177SOPE  H15Y20217   3.659   2.712   8.605  0.7156 -0.1248 -1.1297
  177SOPE  C31620218   3.510   2.856   8.678 -0.4373 -0.2130  0.1826
  177SOPE  H16X20219   3.582   2.940   8.691  0.8873 -1.2581 -0.2638
  177SOPE  H16Y20220   3.429   2.854   8.754 -0.4116 -1.4200  0.1865
  177SOPE  C31720221   3.436   2.868   8.544  0.0488  0.5067 -0.0323
  177SOPE  H17X20222   3.413   2.768   8.502  2.3363  0.8000 -2.1079
  177SOPE  H17Y20223   3.504   2.915   8.470  0.4991  0.3571  0.2856
  177SOPE  C31820224   3.313   2.960   8.560 -0.4497  0.0597 -0.0485
  177SOPE  H18X20225   3.262   2.968   8.462 -1.8013  0.0947  0.6408
  177SOPE  H18Y20226   3.354   3.056   8.596 -0.6982 -0.4068  1.5279
  177SOPE  H18Z20227   3.241   2.930   8.639 -2.3937  2.8986 -0.6942
  178SOPE     N20228   0.981   1.741  10.754  0.1217 -0.0933 -0.1577
  178SOPE   HN120229   1.017   1.803  10.678 -1.5385  0.2623 -0.6729
  178SOPE   HN220230   0.877   1.738  10.762  0.1164 -2.5612 -0.7768
  178SOPE   HN320231   1.017   1.782  10.842  0.7670 -0.6343 -0.1659
  178SOPE   C1220232   1.044   1.610  10.729  0.2133 -0.0044 -0.5505
  178SOPE  H12A20233   1.012   1.537  10.806  0.4375  0.5633  0.0830
  178SOPE  H12B20234   1.154   1.621  10.728  0.3237 -1.0489 -0.5059
  178SOPE   C1120235   1.002   1.558  10.590  0.3472  0.0392  0.3695
  178SOPE  H11A20236   1.061   1.614  10.515  1.4373 -0.4253  0.8684
  178SOPE  H11B20237   0.894   1.582  10.581  0.7312  1.3528 -1.0389
  178SOPE     P20238   0.938   1.301  10.557 -0.2846  0.3970  0.1224
  178SOPE   O1320239   0.821   1.320  10.647  0.1788  0.4380 -0.2934
  178SOPE   O1420240   1.008   1.173  10.573  0.3406 -0.5902  0.2460
  178SOPE   O1220241   1.033   1.421  10.583  0.0878 -0.1857 -0.2145
  178SOPE   O1120242   0.894   1.317  10.404  0.0919  0.4421 -0.5754
  178SOPE    C120243   0.985   1.357  10.303 -0.5004 -0.1561  0.0193
  178SOPE    HA20244   1.059   1.428  10.346 -0.4473  0.4742 -1.1217
  178SOPE    HB20245   0.932   1.412  10.223  0.7638 -1.1635 -1.5298
  178SOPE    C220246   1.050   1.231  10.238  0.3994 -0.1788  0.5565
  178SOPE    HS20247   1.099   1.169  10.316 -0.2939 -0.2815  0.9060
  178SOPE   O2120248   1.144   1.273  10.138  0.3723  0.3072  0.6905
  178SOPE   C2120249   1.219   1.170  10.100  0.1145 -0.6840  0.5826
  178SOPE   O2220250   1.234   1.064  10.161  0.0930 -0.3820  0.2159
  178SOPE   C2220251   1.282   1.214   9.966  0.2322  0.2001 -0.6363
  178SOPE   H2R20252   1.362   1.144   9.936  0.8074  0.7769 -0.4667
  178SOPE   H2S20253   1.320   1.318   9.976 -0.3553  0.3746 -0.1972
  178SOPE    C320254   0.943   1.138  10.183 -0.4800  0.7349  0.0336
  178SOPE    HX20255   0.889   1.106  10.274  0.4359 -0.6205  0.1030
  178SOPE    HY20256   0.987   1.044  10.142  2.9756  3.0748 -1.8609
  178SOPE   O3120257   0.858   1.207  10.089 -0.9466 -0.0663  0.2109
  178SOPE   C3120258   0.731   1.195  10.121  1.3062  0.3713 -0.0189
  178SOPE   O3220259   0.682   1.137  10.216 -0.1191  0.9428 -0.1468
  178SOPE   C3220260   0.639   1.259  10.006 -0.1861  0.4499  0.0178
  178SOPE   H2X20261   0.665   1.209   9.911  2.0634  0.9021  0.3847
  178SOPE   H2Y20262   0.669   1.366  10.008  0.9939  0.1056  1.2645
  178SOPE   C2320263   1.171   1.218   9.856  0.6571 -0.6069 -0.3767
  178SOPE   H3R20264   1.230   1.269   9.777 -1.3659 -2.2822 -3.0531
  178SOPE   H3S20265   1.085   1.287   9.874 -1.0443 -2.5237 -0.9781
  178SOPE   C2420266   1.145   1.086   9.790  0.9001 -0.0034  0.0271
  178SOPE   H4R20267   1.236   1.023   9.787 -0.3328 -2.0719  3.3493
  178SOPE   H4S20268   1.075   1.041   9.864  2.0534  1.7836  2.2898
  178SOPE   C2520269   1.086   1.114   9.654  0.1198  0.4654 -0.4934
  178SOPE   H5R20270   0.997   1.180   9.663  0.5460  0.7057  2.3018
  178SOPE   H5S20271   1.172   1.169   9.609  2.3886 -1.7762  0.9040
  178SOPE   C2620272   1.057   0.989   9.572 -0.1838 -0.0596 -0.4775
  178SOPE   H6R20273   1.154   0.935   9.565 -0.7752 -1.1794 -0.1879
  178SOPE   H6S20274   0.999   0.915   9.631 -1.3564  0.7269 -0.6364
  178SOPE   C2720275   0.999   1.012   9.436  0.0071  0.2817  1.0726
  178SOPE   H7R20276   0.972   0.918   9.384 -0.2746  0.7274  0.4025
  178SOPE   H7S20277   0.904   1.068   9.450 -1.8255 -2.2863 -0.6753
  178SOPE   C2820278   1.081   1.096   9.341  0.3096 -0.6756 -0.5309
  178SOPE   H8R20279   1.021   1.120   9.251 -0.6337  0.5514  0.4188
  178SOPE   H8S20280   1.079   1.198   9.384 -1.4045 -0.4761 -1.0588
  178SOPE   C2920281   1.224   1.060   9.324 -0.8692  0.5901  0.6248
  178SOPE   H9120282   1.290   1.115   9.393 -3.7895  3.0308  1.5648
  178SOPE  C21020283   1.256   0.976   9.226  0.1229  0.3422  0.0404
  178SOPE  H10120284   1.361   0.946   9.210  0.2317  0.4149  0.6074
  178SOPE  C21120285   1.161   0.920   9.120  0.1065  0.0616  0.0228
  178SOPE  H11R20286   1.077   0.982   9.083 -0.1709 -0.4975 -0.2977
  178SOPE  H11S20287   1.121   0.828   9.168 -0.6714  0.7051  0.6050
  178SOPE  C21220288   1.222   0.883   8.983  0.0273 -0.0901 -0.4888
  178SOPE  H12R20289   1.143   0.831   8.926 -0.6207  0.0766  0.2472
  178SOPE  H12S20290   1.302   0.809   9.005  0.3246  0.3622 -0.0335
  178SOPE  C21320291   1.267   1.008   8.897 -0.7824 -0.2289  0.7159
  178SOPE  H13R20292   1.352   1.060   8.945 -0.6877  0.7471 -0.4835
  178SOPE  H13S20293   1.175   1.070   8.901 -1.6265 -1.2485 -1.6489
  178SOPE  C21420294   1.290   0.981   8.749 -0.4848 -0.3317 -0.1990
  178SOPE  H14R20295   1.315   1.066   8.683 -0.2865 -1.4618 -1.6146
  178SOPE  H14S20296   1.193   0.947   8.708  0.1087  0.0043 -1.8872
  178SOPE  C21520297   1.393   0.870   8.714  0.6072 -0.2664  0.1111
  178SOPE  H15R20298   1.392   0.862   8.603 -0.1037 -0.2519  0.1137
  178SOPE  H15S20299   1.357   0.771   8.750 -1.5494  1.2844  2.4003
  178SOPE  C21620300   1.539   0.905   8.754  0.3920 -0.1424  0.5781
  178SOPE  H16R20301   1.519   0.949   8.854 -3.0284 -0.3824  0.0634
  178SOPE  H16S20302   1.582   0.989   8.696  0.0336  1.2373  2.2713
  178SOPE  C21720303   1.637   0.785   8.740 -0.2935  0.0318  0.4499
  178SOPE  H17R20304   1.629   0.757   8.633  0.1087  1.3647  0.0645
  178SOPE  H17S20305   1.603   0.700   8.803  0.8472  0.7671  2.0886
  178SOPE  C21820306   1.781   0.827   8.772  0.4435 -0.0280 -0.6687
  178SOPE  H18R20307   1.787   0.892   8.862  4.3806  0.4705 -1.2048
  178SOPE  H18S20308   1.816   0.889   8.687 -0.9747  1.7979  0.0648
  178SOPE  H18T20309   1.846   0.739   8.792  0.2077  0.2012  1.1903
  178SOPE   C3320310   0.487   1.244  10.037 -0.0803  0.6931  0.0137
  178SOPE   H3X20311   0.435   1.319   9.973  1.7862  1.6275 -0.4556
  178SOPE   H3Y20312   0.467   1.271  10.143  2.5668 -0.6849  0.9114
  178SOPE   C3420313   0.427   1.100  10.015 -1.0395 -0.9905 -0.1078
  178SOPE   H4X20314   0.326   1.116  10.059 -0.4865  0.2895  0.7389
  178SOPE   H4Y20315   0.493   1.031  10.073  0.3317 -0.2483 -0.7826
  178SOPE   C3520316   0.417   1.067   9.864 -0.5457 -0.1142 -0.4510
  178SOPE   H5X20317   0.364   0.970   9.857  0.9292 -0.8627 -1.3975
  178SOPE   H5Y20318   0.521   1.052   9.828 -0.5730  2.3527 -1.6806
  178SOPE   C3620319   0.354   1.170   9.768 -0.5213  0.5718 -1.4588
  178SOPE   H6X20320   0.433   1.247   9.752  1.3924 -0.3214  2.9146
  178SOPE   H6Y20321   0.275   1.226   9.822 -2.8440 -1.6885 -2.4039
  178SOPE   C3720322   0.307   1.107   9.644  0.3082 -0.0763 -0.6119
  178SOPE   H7X20323   0.223   1.164   9.598 -0.1670  0.5877  1.0518
  178SOPE   H7Y20324   0.272   1.004   9.666  0.1387  0.1024 -0.0399
  178SOPE   C3820325   0.412   1.092   9.534  0.6223  0.5430  0.6234
  178SOPE   H8X20326   0.498   1.029   9.566  0.5428  1.0287  1.8166
  178SOPE   H8Y20327   0.466   1.188   9.518 -0.0402  1.0827  1.5479
  178SOPE   C3920328   0.356   1.039   9.404 -0.4096  0.0189 -1.1454
  178SOPE   H9X20329   0.258   1.084   9.379 -0.7163  0.2807  0.4684
  178SOPE   H9Y20330   0.332   0.933   9.427  1.3280 -0.4429 -1.3978
  178SOPE  C31020331   0.456   1.042   9.281  0.7182  0.5988 -0.8061
  178SOPE  H10X20332   0.550   0.993   9.315  1.0061 -0.2188 -2.7597
  178SOPE  H10Y20333   0.481   1.150   9.269  1.4882  0.8390  2.5077
  178SOPE  C31120334   0.400   0.965   9.162 -0.5959 -0.1899  0.2396
  178SOPE  H11X20335   0.330   1.023   9.098  0.0645 -1.5205 -1.7357
  178SOPE  H11Y20336   0.338   0.881   9.200 -2.6094  1.3570  0.4812
  178SOPE  C31220337   0.513   0.909   9.074  0.8900  0.4361  0.7544
  178SOPE  H12X20338   0.587   0.858   9.139 -0.4191 -0.8430  1.2628
  178SOPE  H12Y20339   0.547   0.998   9.016  1.4765 -0.5400 -0.4275
  178SOPE  C31320340   0.457   0.804   8.973 -0.6754  1.6022  0.0516
  178SOPE  H13X20341   0.382   0.859   8.911 -1.2125 -0.6399 -1.3294
  178SOPE  H13Y20342   0.421   0.722   9.039  0.5074  0.2992 -0.9078
  178SOPE  C31420343   0.561   0.749   8.876 -0.8313 -0.7522 -0.3116
  178SOPE  H14X20344   0.504   0.674   8.816  0.1580 -0.6505 -1.3853
  178SOPE  H14Y20345   0.657   0.710   8.914  0.1359  1.2555 -0.6298
  178SOPE  C31520346   0.614   0.860   8.786  0.0041 -0.2428 -0.1106
  178SOPE  H15X20347   0.636   0.958   8.835 -0.2687 -0.3153  0.1559
  178SOPE  H15Y20348   0.529   0.884   8.718  0.0553  2.0801  0.6119
  178SOPE  C31620349   0.722   0.821   8.683  0.1928 -0.0772 -0.0971
  178SOPE  H16X20350   0.670   0.758   8.609  1.6569 -0.0832 -1.1477
  178SOPE  H16Y20351   0.808   0.771   8.733  0.4056  0.1321 -0.2527
  178SOPE  C31720352   0.772   0.947   8.612  0.1921  0.3822  0.4014
  178SOPE  H17X20353   0.679   1.000   8.583 -0.7022 -2.5984 -2.4195
  178SOPE  H17Y20354   0.820   0.924   8.515 -0.0066 -2.0054  0.8500
  178SOPE  C31820355   0.876   1.027   8.698 -0.5498  1.0906 -0.5752
  178SOPE  H18X20356   0.835   1.062   8.795 -0.3236 -0.0309 -0.0720
  178SOPE  H18Y20357   0.923   1.113   8.646  2.6622  0.2390  0.8001
  178SOPE  H18Z20358   0.951   0.951   8.727 -1.8632 -0.7282 -1.8528
  179SOPE     N20359   6.138   2.179   6.329  0.1831 -0.5551  0.1119
  179SOPE   HN120360   6.160   2.277   6.304 -1.9256  0.3185  1.5397
  179SOPE   HN220361   6.156   2.160   6.430  2.8485  0.6579 -0.1058
  179SOPE   HN320362   6.193   2.108   6.277  0.7248 -0.3947  0.4614
  179SOPE   C1220363   5.992   2.163   6.296  0.0731 -0.1836 -0.4318
  179SOPE  H12A20364   5.975   2.061   6.337 -0.8400  0.5235  0.9999
  179SOPE  H12B20365   5.981   2.170   6.186  1.2517 -2.4499 -0.7173
  179SOPE   C1120366   5.898   2.260   6.372  0.1616  0.5462  0.8052
  179SOPE  H11A20367   5.820   2.281   6.296  0.9138  1.8972  0.3866
  179SOPE  H11B20368   5.944   2.357   6.400 -2.5242  2.0689  0.0969
  179SOPE     P20369   5.927   2.170   6.616 -0.3704  0.1137 -0.0312
  179SOPE   O1320370   6.062   2.130   6.580 -0.5017 -0.3274  0.0125
  179SOPE   O1420371   5.850   2.089   6.712 -0.1911  0.1278  0.0420
  179SOPE   O1220372   5.837   2.184   6.483 -0.1478  0.4741  0.0923
  179SOPE   O1120373   5.925   2.323   6.663  0.3651  0.5953 -0.1891
  179SOPE    C120374   5.807   2.396   6.680  0.1898  0.2469  0.0359
  179SOPE    HA20375   5.718   2.329   6.680  2.0302 -2.2799 -1.0841
  179SOPE    HB20376   5.796   2.469   6.596  0.2734 -1.4392 -1.4792
  179SOPE    C220377   5.814   2.473   6.817 -0.1585 -0.3521  0.0937
  179SOPE    HS20378   5.909   2.530   6.823 -1.0480  1.2873 -0.9632
  179SOPE   O2120379   5.817   2.388   6.932 -0.5251  0.8977 -0.6847
  179SOPE   C2120380   5.933   2.352   6.979 -0.3495  1.1666 -0.6426
  179SOPE   O2220381   6.041   2.373   6.931 -0.1952 -0.1694  0.1080
  179SOPE   C2220382   5.897   2.286   7.108 -0.1416 -0.9643  0.1741
  179SOPE   H2R20383   5.828   2.199   7.104 -0.2762 -1.0012  2.3202
  179SOPE   H2S20384   5.850   2.361   7.176  2.3949 -1.0135  2.0355
  179SOPE    C320385   5.696   2.573   6.826  0.0856  0.3873  0.3569
  179SOPE    HX20386   5.598   2.520   6.825 -0.0343  0.5765  1.5853
  179SOPE    HY20387   5.701   2.631   6.731 -0.2849  2.0074  1.3270
  179SOPE   O3120388   5.696   2.652   6.949 -0.2198 -0.2506 -0.1689
  179SOPE   C3120389   5.769   2.764   6.943 -0.4311  0.4913 -0.4861
  179SOPE   O3220390   5.844   2.786   6.846 -0.1328 -0.1564 -0.3897
  179SOPE   C3220391   5.766   2.848   7.076  0.5773  0.6519  0.3913
  179SOPE   H2X20392   5.680   2.824   7.142  0.7991 -1.5595 -0.1087
  179SOPE   H2Y20393   5.752   2.955   7.050 -3.9297  0.1591  0.2977
  179SOPE   C2320394   6.022   2.222   7.176 -0.0885  0.4860 -0.2658
  179SOPE   H3R20395   6.100   2.300   7.184  0.6271 -0.1825 -0.7171
  179SOPE   H3S20396   6.058   2.139   7.111 -0.6974  0.8578 -1.0918
  179SOPE   C2420397   5.997   2.166   7.317  0.7263 -0.2405  0.2422
  179SOPE   H4R20398   5.918   2.230   7.362  1.6119 -0.4911  2.2138
  179SOPE   H4S20399   5.965   2.062   7.295  1.0692 -0.2812 -0.0721
  179SOPE   C2520400   6.120   2.179   7.407  0.5858 -0.0064 -0.7004
  179SOPE   H5R20401   6.210   2.145   7.353 -0.6972 -0.0520 -2.8615
  179SOPE   H5S20402   6.137   2.285   7.432 -1.1539  1.1517 -4.1392
  179SOPE   C2620403   6.095   2.108   7.549 -0.4203  0.1559  0.6780
  179SOPE   H6R20404   6.013   2.163   7.600 -0.7241 -0.0388  0.4020
  179SOPE   H6S20405   6.054   2.006   7.536 -0.6650  0.3357  0.0363
  179SOPE   C2720406   6.211   2.106   7.646  0.7360 -0.0249  0.0705
  179SOPE   H7R20407   6.289   2.032   7.619 -0.0915 -1.5664  1.7889
  179SOPE   H7S20408   6.248   2.210   7.640 -1.7879  0.9770  1.1411
  179SOPE   C2820409   6.153   2.062   7.783 -0.1168 -0.2833 -0.3633
  179SOPE   H8R20410   6.063   2.123   7.805  0.5010  0.4221  0.2253
  179SOPE   H8S20411   6.120   1.956   7.774 -1.9209  0.2403 -0.1014
  179SOPE   C2920412   6.267   2.079   7.881  0.0808 -0.5100 -0.2240
  179SOPE   H9120413   6.300   2.181   7.905 -2.6178  0.6759 -1.3175
  179SOPE  C21020414   6.328   1.971   7.947  0.7779  0.0702  0.8033
  179SOPE  H10120415   6.417   1.986   8.009 -0.1572 -1.6173  2.5931
  179SOPE  C21120416   6.306   1.827   7.925 -0.0095 -0.8142 -0.6140
  179SOPE  H11R20417   6.332   1.804   7.819 -0.0554  0.4956 -0.9090
  179SOPE  H11S20418   6.201   1.794   7.938 -0.1985 -0.3132 -0.8983
  179SOPE  C21220419   6.372   1.736   8.030 -0.3935  0.1360 -0.0921
  179SOPE  H12R20420   6.361   1.633   7.992 -0.5779  0.8825 -2.1467
  179SOPE  H12S20421   6.317   1.734   8.126 -1.8187 -0.7342 -0.9193
  179SOPE  C21320422   6.521   1.738   8.066  0.5509  0.3228 -0.1205
  179SOPE  H13R20423   6.542   1.665   8.147  0.4063 -0.6160 -0.9335
  179SOPE  H13S20424   6.554   1.840   8.095 -2.1926  0.9263  1.0136
  179SOPE  C21420425   6.595   1.710   7.940 -0.1324 -0.3410 -0.1566
  179SOPE  H14R20426   6.589   1.804   7.882 -0.3551  0.1384  0.6366
  179SOPE  H14S20427   6.559   1.625   7.877  2.0040 -1.1190 -0.3667
  179SOPE  C21520428   6.742   1.677   7.963  0.2153  0.2993 -0.5022
  179SOPE  H15R20429   6.738   1.611   8.053  0.5575  0.0312 -0.6813
  179SOPE  H15S20430   6.792   1.770   7.997 -0.0850  0.1468  0.3664
  179SOPE  C21620431   6.802   1.601   7.841 -0.1958  0.1832 -0.3125
  179SOPE  H16R20432   6.757   1.654   7.754 -2.3935  3.0259  2.3877
  179SOPE  H16S20433   6.767   1.496   7.833 -1.8230  0.7680 -1.2294
  179SOPE  C21720434   6.952   1.627   7.826 -0.4620 -0.1210  0.1196
  179SOPE  H17R20435   6.979   1.554   7.747 -1.8161  2.1024 -2.4572
  179SOPE  H17S20436   7.001   1.597   7.922  1.8643 -2.6213 -1.7817
  179SOPE  C21820437   6.990   1.769   7.774  0.7101 -0.3725  0.3855
  179SOPE  H18R20438   6.966   1.846   7.851 -0.1610 -0.8111  0.5592
  179SOPE  H18S20439   6.935   1.797   7.681  0.2950  0.2028  0.7994
  179SOPE  H18T20440   7.098   1.773   7.750  0.5953  1.8531  0.1522
  179SOPE   C3320441   5.895   2.836   7.161  0.2021  0.4986 -0.6533
  179SOPE   H3X20442   5.902   2.918   7.236  1.3200 -0.6227  0.4988
  179SOPE   H3Y20443   5.990   2.852   7.105  1.1156 -1.2844  0.3478
  179SOPE   C3420444   5.888   2.709   7.240  0.0365  0.3759  0.1908
  179SOPE   H4X20445   5.943   2.631   7.184  0.1995  1.1508 -0.7342
  179SOPE   H4Y20446   5.785   2.667   7.249 -0.2009  0.7385 -0.7754
  179SOPE   C3520447   5.955   2.720   7.381  0.7514  0.4860  0.2817
  179SOPE   H5X20448   5.892   2.792   7.438  0.7002  0.7992 -0.1670
  179SOPE   H5Y20449   6.060   2.758   7.376  0.6254  0.8307  0.1971
  179SOPE   C3620450   5.950   2.586   7.454 -0.2154  0.3977 -0.4778
  179SOPE   H6X20451   6.012   2.516   7.394 -0.3222 -0.7182  0.6900
  179SOPE   H6Y20452   5.848   2.545   7.439 -0.2036  1.2940 -3.2448
  179SOPE   C3720453   5.984   2.598   7.606  0.3521  0.5686 -0.3441
  179SOPE   H7X20454   5.889   2.626   7.656  0.0535 -0.4487 -0.3428
  179SOPE   H7Y20455   6.056   2.680   7.631 -0.5798  0.4286  3.0755
  179SOPE   C3820456   6.042   2.463   7.654  0.1072  0.4777 -0.5353
  179SOPE   H8X20457   6.137   2.437   7.603  0.4092 -0.3609  0.4212
  179SOPE   H8Y20458   5.969   2.384   7.627  0.7907 -1.0673  1.9575
  179SOPE   C3920459   6.069   2.451   7.808  0.1039 -0.9252  0.3801
  179SOPE   H9X20460   6.097   2.349   7.841  1.5929 -0.4133  0.7168
  179SOPE   H9Y20461   5.977   2.470   7.867  0.8507 -2.2053  1.9764
  179SOPE  C31020462   6.173   2.553   7.844  0.4753  0.0703 -0.1683
  179SOPE  H10X20463   6.132   2.652   7.816  0.1537  0.7066  2.3924
  179SOPE  H10Y20464   6.269   2.533   7.791 -0.3021  0.1720 -1.6138
  179SOPE  C31120465   6.209   2.546   7.997 -0.5670 -0.1762 -0.0814
  179SOPE  H11X20466   6.129   2.583   8.064 -0.1919  0.0525  0.2452
  179SOPE  H11Y20467   6.292   2.618   8.013  1.0092 -2.6416  3.4799
  179SOPE  C31220468   6.258   2.406   8.038  0.0603 -0.7730 -0.9283
  179SOPE  H12X20469   6.346   2.369   7.981  1.7615  1.0689  0.4534
  179SOPE  H12Y20470   6.181   2.326   8.040 -1.4493  0.6614 -0.3235
  179SOPE  C31320471   6.313   2.402   8.182 -0.6243  0.5800  0.1260
  179SOPE  H13X20472   6.237   2.439   8.255 -0.2209 -0.3413  1.0235
  179SOPE  H13Y20473   6.398   2.472   8.191 -0.3530  0.1458  1.0538
  179SOPE  C31420474   6.347   2.256   8.242 -0.8472  0.1418  0.7099
  179SOPE  H14X20475   6.427   2.215   8.177  0.1603 -0.3319  2.2242
  179SOPE  H14Y20476   6.258   2.193   8.222 -1.5967  1.7788 -1.2856
  179SOPE  C31520477   6.392   2.270   8.389  0.1092 -0.2881 -0.0730
  179SOPE  H15X20478   6.323   2.338   8.443 -0.5869 -1.1514  0.1366
  179SOPE  H15Y20479   6.491   2.321   8.391  0.6153 -1.2311 -0.6436
  179SOPE  C31620480   6.407   2.140   8.468  0.9802 -0.0127  0.2161
  179SOPE  H16X20481   6.483   2.072   8.423  2.0408  1.2064  0.1340
  179SOPE  H16Y20482   6.305   2.096   8.461  0.5098  0.8223  1.6625
  179SOPE  C31720483   6.439   2.157   8.617 -0.3471 -0.3071 -0.1255
  179SOPE  H17X20484   6.459   2.058   8.662  0.6142  0.6500  1.5822
  179SOPE  H17Y20485   6.358   2.206   8.675  0.3358  0.3620  0.2673
  179SOPE  C31820486   6.564   2.240   8.645 -0.0109  0.4297  0.4057
  179SOPE  H18X20487   6.643   2.201   8.578 -1.1684 -0.1135 -0.6665
  179SOPE  H18Y20488   6.601   2.232   8.750  2.1465  1.2675 -0.2627
  179SOPE  H18Z20489   6.530   2.340   8.609 -2.6428 -0.4208  0.3855
  180SOPE     N20490   5.611   2.037   6.437  1.0303 -0.0864  0.4993
  180SOPE   HN120491   5.587   1.949   6.386  0.1753  0.8471 -0.7124
  180SOPE   HN220492   5.711   2.061   6.427  0.8747  0.2995 -0.1403
  180SOPE   HN320493   5.592   2.026   6.539 -2.6097  1.9023  0.1208
  180SOPE   C1220494   5.532   2.157   6.395  0.4246 -0.2034 -0.0530
  180SOPE  H12A20495   5.555   2.173   6.287 -1.3863  0.0116 -0.4323
  180SOPE  H12B20496   5.570   2.248   6.446 -0.6555  0.7060 -0.8409
  180SOPE   C1120497   5.381   2.139   6.415  0.1193  0.3114 -0.3078
  180SOPE  H11A20498   5.367   2.123   6.524 -0.4578 -0.1207 -0.4428
  180SOPE  H11B20499   5.355   2.046   6.360 -2.0322  0.6785  0.0704
  180SOPE     P20500   5.158   2.250   6.372  0.1262 -0.0147 -0.1560
  180SOPE   O1320501   5.102   2.114   6.379  0.6233 -0.2919 -0.4571
  180SOPE   O1420502   5.109   2.338   6.255  0.2390  0.0695 -0.2698
  180SOPE   O1220503   5.317   2.253   6.367 -0.4093 -0.1826  0.3886
  180SOPE   O1120504   5.120   2.324   6.508  0.2320  0.0371  0.1133
  180SOPE    C120505   5.169   2.460   6.519 -0.1495 -0.7128 -1.0060
  180SOPE    HA20506   5.109   2.530   6.456  0.6235  4.1041  3.2988
  180SOPE    HB20507   5.275   2.464   6.487  0.0267  3.0620 -0.2219
  180SOPE    C220508   5.161   2.509   6.670 -0.5969  1.1472 -0.3088
  180SOPE    HS20509   5.223   2.600   6.683 -0.1006  0.5584  1.5679
  180SOPE   O2120510   5.210   2.404   6.755  0.5480 -0.2295  0.2998
  180SOPE   C2120511   5.335   2.364   6.746  0.1127 -0.5876 -0.8630
  180SOPE   O2220512   5.419   2.418   6.679 -0.5421 -0.5268 -0.3917
  180SOPE   C2220513   5.363   2.241   6.839  0.1715 -0.3120  0.2307
  180SOPE   H2R20514   5.367   2.145   6.784  1.5320 -0.9337  1.3858
  180SOPE   H2S20515   5.283   2.219   6.912  1.1147 -0.6846  1.1716
  180SOPE    C320516   5.022   2.545   6.709 -0.0338 -0.4362  0.0221
  180SOPE    HX20517   4.959   2.456   6.684 -1.4087  0.9224 -1.4763
  180SOPE    HY20518   4.984   2.632   6.652 -0.0983  1.1388  2.3849
  180SOPE   O3120519   5.021   2.585   6.848  0.5506 -0.1061  0.6655
  180SOPE   C3120520   4.926   2.549   6.921  0.0214 -0.3570 -0.5861
  180SOPE   O3220521   4.833   2.476   6.882  0.0279 -0.5185  0.0657
  180SOPE   C3220522   4.963   2.588   7.065 -0.6290 -0.5334 -0.3267
  180SOPE   H2X20523   4.872   2.630   7.114 -1.5193 -2.4957 -0.2641
  180SOPE   H2Y20524   5.048   2.660   7.068  0.0652 -1.3307 -0.6827
  180SOPE   C2320525   5.499   2.266   6.912 -0.0912  0.7810 -0.1644
  180SOPE   H3R20526   5.500   2.372   6.945 -1.2476  0.9038 -0.5006
  180SOPE   H3S20527   5.586   2.262   6.843  0.2788  0.1355  0.3349
  180SOPE   C2420528   5.526   2.172   7.034  0.0638 -0.3707  0.1267
  180SOPE   H4R20529   5.470   2.077   7.016 -1.4456  0.5547 -0.1693
  180SOPE   H4S20530   5.633   2.143   7.043 -0.6943 -3.0782  0.8588
  180SOPE   C2520531   5.474   2.235   7.160  0.2727  0.6888 -0.2358
  180SOPE   H5R20532   5.369   2.269   7.154 -0.5758 -1.8266  0.0505
  180SOPE   H5S20533   5.478   2.155   7.238  0.8421  1.2326  0.3037
  180SOPE   C2620534   5.561   2.354   7.203  0.5438 -0.3838 -0.4493
  180SOPE   H6R20535   5.635   2.311   7.274 -1.4873 -1.6443  0.9847
  180SOPE   H6S20536   5.614   2.413   7.125 -0.1725  2.1410  0.9489
  180SOPE   C2720537   5.469   2.450   7.283 -0.0444 -0.0032 -0.2516
  180SOPE   H7R20538   5.514   2.552   7.281  1.1498 -0.5003  0.7957
  180SOPE   H7S20539   5.368   2.459   7.237 -0.9361 -1.0474  1.4443
  180SOPE   C2820540   5.449   2.413   7.429 -0.5539 -0.9064  0.2020
  180SOPE   H8R20541   5.361   2.463   7.474  0.0743 -0.5507  1.0408
  180SOPE   H8S20542   5.433   2.304   7.441  3.1578 -1.5078  0.4236
  180SOPE   C2920543   5.557   2.456   7.521 -0.0523 -0.0240  0.1366
  180SOPE   H9120544   5.562   2.565   7.538 -1.4410 -0.0339  0.6884
  180SOPE  C21020545   5.643   2.379   7.588  0.0137 -0.2299  0.0608
  180SOPE  H10120546   5.716   2.428   7.655 -1.4694  3.7459 -1.1156
  180SOPE  C21120547   5.638   2.229   7.565 -0.0045 -0.6124 -0.7367
  180SOPE  H11R20548   5.722   2.198   7.500 -0.6243 -1.4656 -1.1409
  180SOPE  H11S20549   5.560   2.188   7.498  0.2930 -0.2158 -1.3257
  180SOPE  C21220550   5.635   2.158   7.701 -1.0802  0.3443  0.0794
  180SOPE  H12R20551   5.635   2.053   7.665  0.7495 -0.0326  1.1009
  180SOPE  H12S20552   5.545   2.171   7.764 -0.4041 -2.8842  1.7778
  180SOPE  C21320553   5.760   2.185   7.788  0.5338  0.6156  0.3587
  180SOPE  H13R20554   5.747   2.285   7.834  0.7379  1.5725 -1.6288
  180SOPE  H13S20555   5.851   2.178   7.725 -0.8074 -1.3955 -1.4079
  180SOPE  C21420556   5.778   2.086   7.898  0.4070  0.2934  0.0506
  180SOPE  H14R20557   5.870   2.026   7.878 -1.3634 -2.6243  0.2508
  180SOPE  H14S20558   5.696   2.011   7.907 -1.6495  2.5577  0.4724
  180SOPE  C21520559   5.792   2.149   8.037 -0.4677  0.5480  0.0340
  180SOPE  H15R20560   5.698   2.203   8.061  0.3383  1.0212  2.2283
  180SOPE  H15S20561   5.873   2.224   8.033 -1.9127  2.1974  0.9416
  180SOPE  C21620562   5.806   2.052   8.148  0.2138  0.3786 -0.1228
  180SOPE  H16R20563   5.718   1.984   8.150  1.7860 -1.7372 -0.6278
  180SOPE  H16S20564   5.795   2.112   8.241 -2.0650  2.0117 -1.4259
  180SOPE  C21720565   5.936   1.968   8.154 -0.7409  0.2138  0.0341
  180SOPE  H17R20566   6.026   2.031   8.169  0.2875 -1.0662 -0.7170
  180SOPE  H17S20567   5.958   1.918   8.057 -0.3793  1.7779 -0.7091
  180SOPE  C21820568   5.931   1.864   8.264 -0.4828  0.6225 -0.3560
  180SOPE  H18R20569   5.879   1.902   8.354 -1.3680  2.2873 -1.5370
  180SOPE  H18S20570   6.035   1.835   8.289 -0.4131 -0.1746 -1.4902
  180SOPE  H18T20571   5.879   1.773   8.226  0.6413  0.0143 -0.4385
  180SOPE   C3320572   5.006   2.467   7.146 -0.1337  0.7494 -0.0130
  180SOPE   H3X20573   5.111   2.443   7.118 -0.0895  2.1225 -1.0856
  180SOPE   H3Y20574   4.937   2.383   7.122 -0.2251  1.8819 -4.1144
  180SOPE   C3420575   4.998   2.489   7.299  0.2740 -0.1417 -0.0601
  180SOPE   H4X20576   4.891   2.496   7.329  0.7126  2.5520  1.0326
  180SOPE   H4Y20577   5.039   2.586   7.333  0.2436 -0.2428  0.2670
  180SOPE   C3520578   5.063   2.368   7.371  0.4731 -0.7117  0.4922
  180SOPE   H5X20579   5.168   2.344   7.345 -0.1045 -3.1928  0.2758
  180SOPE   H5Y20580   5.007   2.275   7.346 -1.7686  0.7338 -0.0588
  180SOPE   C3620581   5.066   2.396   7.519  0.4547 -0.5810 -1.2882
  180SOPE   H6X20582   4.960   2.391   7.554  0.2200 -0.2628 -1.9390
  180SOPE   H6Y20583   5.118   2.493   7.537 -1.2137  0.3358 -1.2488
  180SOPE   C3720584   5.136   2.284   7.597  0.1025  0.6979 -0.1186
  180SOPE   H7X20585   5.235   2.261   7.553 -0.1946 -0.8956  0.0300
  180SOPE   H7Y20586   5.070   2.197   7.576 -0.3827  1.8923 -4.0236
  180SOPE   C3820587   5.158   2.311   7.744 -0.7360  0.1517  0.3363
  180SOPE   H8X20588   5.152   2.211   7.791  2.4291 -0.3312 -0.1645
  180SOPE   H8Y20589   5.062   2.361   7.766 -1.0331 -0.0252 -0.5596
  180SOPE   C3920590   5.287   2.381   7.774 -0.1476  0.1285 -0.1789
  180SOPE   H9X20591   5.277   2.481   7.728  2.3638 -0.2023 -1.5473
  180SOPE   H9Y20592   5.369   2.324   7.724 -1.2117 -0.8729 -0.8078
  180SOPE  C31020593   5.314   2.389   7.926 -0.2746 -0.3760 -0.1589
  180SOPE  H10X20594   5.220   2.393   7.985 -0.1275  0.9178  0.0054
  180SOPE  H10Y20595   5.371   2.482   7.946  1.7443 -1.6956  0.3410
  180SOPE  C31120596   5.391   2.268   7.977 -0.0887 -0.2843  0.1721
  180SOPE  H11X20597   5.499   2.295   7.969 -0.6322  1.9805  0.0076
  180SOPE  H11Y20598   5.379   2.176   7.918 -0.7629 -0.4992  0.6382
  180SOPE  C31220599   5.346   2.239   8.115  0.3283  0.2538 -1.1647
  180SOPE  H12X20600   5.368   2.133   8.142 -0.1865  0.3995 -0.1398
  180SOPE  H12Y20601   5.235   2.241   8.119  0.2531 -1.8610 -1.1680
  180SOPE  C31320602   5.396   2.343   8.220  0.3472  0.3217 -0.5295
  180SOPE  H13X20603   5.367   2.446   8.191 -1.3763 -0.0887 -0.3570
  180SOPE  H13Y20604   5.505   2.330   8.238 -0.0335  0.8196  2.3231
  180SOPE  C31420605   5.321   2.323   8.351  0.3890  1.0411  0.7905
  180SOPE  H14X20606   5.214   2.338   8.327  0.0761  0.3531  1.7383
  180SOPE  H14Y20607   5.360   2.402   8.420  1.9443  0.3227  0.7627
  180SOPE  C31520608   5.333   2.184   8.419 -0.0453 -0.2492  0.0251
  180SOPE  H15X20609   5.283   2.114   8.348  1.1409 -0.3394 -0.7319
  180SOPE  H15Y20610   5.281   2.192   8.517 -0.9944  3.7384 -0.6883
  180SOPE  C31620611   5.481   2.136   8.432  0.3799 -0.5602 -0.1901
  180SOPE  H16X20612   5.540   2.224   8.465 -0.1454  0.3299 -1.5910
  180SOPE  H16Y20613   5.525   2.109   8.333 -3.9611 -2.9185 -1.6160
  180SOPE  C31720614   5.488   2.021   8.535  0.3806  0.5686  0.0728
  180SOPE  H17X20615   5.438   1.940   8.478  1.2525 -0.1888  0.3746
  180SOPE  H17Y20616   5.431   2.056   8.623  0.1351 -1.2718  0.6563
  180SOPE  C31820617   5.637   1.994   8.570  0.1730 -0.0532  0.1848
  180SOPE  H18X20618   5.646   1.909   8.641 -0.3649 -2.6454 -2.6833
  180SOPE  H18Y20619   5.680   2.087   8.611 -0.8553  1.0417 -1.1681
  180SOPE  H18Z20620   5.693   1.974   8.476  0.9556 -0.2489  0.6906
  181SOPE     N20621   3.735   0.259   5.722 -0.2056 -0.0847  0.8097
  181SOPE   HN120622   3.679   0.181   5.682 -0.3599  0.4780 -0.1025
  181SOPE   HN220623   3.698   0.347   5.681  0.6695  2.4643  5.2043
  181SOPE   HN320624   3.827   0.240   5.678  0.3837  0.2596  1.8662
  181SOPE   C1220625   3.757   0.264   5.869  0.0149  0.2019 -0.3015
  181SOPE  H12A20626   3.653   0.251   5.906 -1.0263 -0.7987 -3.3409
  181SOPE  H12B20627   3.800   0.363   5.895  1.2823 -0.5726  0.6036
  181SOPE   C1120628   3.846   0.148   5.902 -0.1802 -0.4423 -0.8267
  181SOPE  H11A20629   3.852   0.148   6.013 -0.9516 -1.6442 -0.7722
  181SOPE  H11B20630   3.949   0.175   5.870 -0.1192 -0.0210 -0.2774
  181SOPE     P20631   3.877  -0.105   5.869  0.0022  0.0461  0.2466
  181SOPE   O1320632   3.948  -0.125   5.739 -0.0802 -0.6722  0.4931
  181SOPE   O1420633   3.794  -0.210   5.931 -0.9178  0.1580 -0.7553
  181SOPE   O1220634   3.800   0.025   5.853 -0.4557 -0.8372  0.5051
  181SOPE   O1120635   3.979  -0.062   5.977  0.2402 -0.4190  0.4628
  181SOPE    C120636   4.118  -0.090   5.983 -0.2665 -0.5244  0.0060
  181SOPE    HA20637   4.168  -0.005   5.933  0.5169 -0.7786  0.3488
  181SOPE    HB20638   4.140  -0.189   5.936 -0.2378 -0.1791 -0.7120
  181SOPE    C220639   4.164  -0.079   6.133  0.1721  0.2674  0.0744
  181SOPE    HS20640   4.272  -0.106   6.140  0.4204  2.0048  4.4817
  181SOPE   O2120641   4.095  -0.169   6.213 -0.4307 -0.3362  0.0165
  181SOPE   C2120642   4.152  -0.292   6.212 -0.1679  0.2336  0.0356
  181SOPE   O2220643   4.256  -0.331   6.160  0.1545  0.0611 -0.6105
  181SOPE   C2220644   4.057  -0.381   6.287 -0.9379  0.0379  0.0063
  181SOPE   H2R20645   4.029  -0.469   6.225  0.1215  0.8033 -1.5912
  181SOPE   H2S20646   3.959  -0.333   6.311 -0.8581  0.4360 -0.4556
  181SOPE    C320647   4.131   0.069   6.186 -0.2003 -0.3608  0.0612
  181SOPE    HX20648   4.024   0.095   6.170 -0.2474  0.4901  1.5884
  181SOPE    HY20649   4.185   0.139   6.119  0.0638 -0.6654 -0.0429
  181SOPE   O3120650   4.159   0.091   6.327 -0.0827  0.0085 -0.5040
  181SOPE   C3120651   4.287   0.123   6.349  1.0212  0.6671  0.0870
  181SOPE   O3220652   4.378   0.116   6.266  0.1864 -0.3634  0.1517
  181SOPE   C3220653   4.314   0.167   6.491  0.1092 -1.3103 -0.4915
  181SOPE   H2X20654   4.297   0.084   6.563 -0.9948 -0.5078  0.1937
  181SOPE   H2Y20655   4.244   0.252   6.510 -0.0151 -1.4140 -0.4857
  181SOPE   C2320656   4.116  -0.433   6.418  0.2004  0.4353 -0.7879
  181SOPE   H3R20657   4.201  -0.502   6.400  0.5940 -0.0210  2.5156
  181SOPE   H3S20658   4.043  -0.497   6.472 -0.5648  0.5701 -1.6390
  181SOPE   C2420659   4.168  -0.335   6.524 -0.3230 -0.1643 -0.1918
  181SOPE   H4R20660   4.186  -0.384   6.622  2.1935  0.2693 -0.3903
  181SOPE   H4S20661   4.270  -0.299   6.497 -0.2971 -0.3013 -0.2779
  181SOPE   C2520662   4.086  -0.207   6.549 -0.1111  0.3219 -0.1907
  181SOPE   H5R20663   4.106  -0.134   6.468 -1.0691  0.0767 -0.6605
  181SOPE   H5S20664   3.979  -0.237   6.538 -0.8396  3.0823 -1.1303
  181SOPE   C2620665   4.102  -0.136   6.687 -0.3452  0.2934  0.3568
  181SOPE   H6R20666   4.212  -0.133   6.705 -0.6121  1.2285  1.8932
  181SOPE   H6S20667   4.075  -0.028   6.682 -2.2776 -0.2630 -1.8306
  181SOPE   C2720668   4.020  -0.198   6.798  0.2934 -0.1658  0.1059
  181SOPE   H7R20669   3.914  -0.187   6.767  1.0429 -0.5186 -2.7053
  181SOPE   H7S20670   4.038  -0.306   6.818 -1.1964 -0.5141 -0.4391
  181SOPE   C2820671   4.017  -0.108   6.928  0.0433 -0.3216  0.1871
  181SOPE   H8R20672   3.999  -0.005   6.893  2.1792 -0.3046 -0.9897
  181SOPE   H8S20673   3.925  -0.129   6.987 -0.0579  2.0693  0.9005
  181SOPE   C2920674   4.145  -0.117   7.007  0.0187 -0.6088  0.3352
  181SOPE   H9120675   4.233  -0.069   6.962 -0.5914 -0.8859 -1.1664
  181SOPE  C21020676   4.145  -0.141   7.138 -0.4518  0.3234 -0.1817
  181SOPE  H10120677   4.237  -0.129   7.196  0.1297 -3.4242 -0.1840
  181SOPE  C21120678   4.030  -0.172   7.230 -0.1516  0.1924 -0.0392
  181SOPE  H11R20679   4.059  -0.253   7.299  1.5672  0.2347 -0.6886
  181SOPE  H11S20680   3.941  -0.196   7.168 -0.1658  0.1986 -0.0213
  181SOPE  C21220681   4.007  -0.051   7.317 -0.2818  0.5018  0.2324
  181SOPE  H12R20682   3.903  -0.068   7.352 -0.3113  1.5460  0.6911
  181SOPE  H12S20683   4.016   0.040   7.253 -2.1939 -0.0660 -0.8766
  181SOPE  C21320684   4.092  -0.045   7.441 -0.2744 -0.9495  0.0129
  181SOPE  H13R20685   4.202  -0.044   7.422 -0.9084 -1.8993 -4.1449
  181SOPE  H13S20686   4.069  -0.144   7.485 -1.9562 -1.3824 -1.7659
  181SOPE  C21420687   4.059   0.075   7.528 -0.0417 -0.1422 -0.4432
  181SOPE  H14R20688   3.949   0.073   7.544 -0.0676 -0.3689 -0.6465
  181SOPE  H14S20689   4.089   0.173   7.484  0.6952  0.3046  1.0489
  181SOPE  C21520690   4.130   0.078   7.667  0.2856 -0.0001 -0.7914
  181SOPE  H15R20691   4.239   0.065   7.651  0.7869  0.9916  1.5996
  181SOPE  H15S20692   4.090  -0.008   7.725 -2.0388  1.4022 -0.2099
  181SOPE  C21620693   4.092   0.208   7.737 -0.8185 -0.2780 -0.2179
  181SOPE  H16R20694   3.983   0.213   7.759 -0.5566  1.1630  0.8650
  181SOPE  H16S20695   4.123   0.296   7.677 -1.0380  0.8576  1.2964
  181SOPE  C21720696   4.146   0.222   7.882 -0.5738  0.0974  0.1159
  181SOPE  H17R20697   4.257   0.214   7.876 -0.7108 -0.5250 -1.7281
  181SOPE  H17S20698   4.116   0.139   7.949 -3.0485  1.9136  1.3151
  181SOPE  C21820699   4.120   0.363   7.930 -0.0617 -0.4903 -0.4168
  181SOPE  H18R20700   4.172   0.444   7.875 -1.7876  0.2798 -0.9369
  181SOPE  H18S20701   4.146   0.372   8.037 -1.7383 -1.7186  0.1191
  181SOPE  H18T20702   4.013   0.389   7.939  0.1688 -0.3138  1.9966
  181SOPE   C3320703   4.452   0.223   6.522 -0.6387  0.0972  0.7510
  181SOPE   H3X20704   4.477   0.303   6.449 -2.6903  0.3421  0.2817
  181SOPE   H3Y20705   4.522   0.138   6.507  0.6275  1.8539 -4.1237
  181SOPE   C3420706   4.462   0.290   6.658 -0.4871  0.3774 -0.6005
  181SOPE   H4X20707   4.404   0.384   6.660 -0.0385  0.6989  4.9102
  181SOPE   H4Y20708   4.569   0.318   6.671 -0.8340  1.6055 -0.3384
  181SOPE   C3520709   4.400   0.213   6.780 -0.3745  0.3093  0.8416
  181SOPE   H5X20710   4.433   0.108   6.789 -0.2014  0.2364 -0.4623
  181SOPE   H5Y20711   4.290   0.218   6.765 -0.2455 -0.7718 -0.5886
  181SOPE   C3620712   4.437   0.288   6.909 -0.0419 -0.1789 -0.2423
  181SOPE   H6X20713   4.401   0.393   6.901 -1.2759 -0.4711  1.1318
  181SOPE   H6Y20714   4.548   0.294   6.909 -0.0384 -0.2179  0.2144
  181SOPE   C3720715   4.388   0.225   7.037 -0.4267  0.3693  0.6462
  181SOPE   H7X20716   4.450   0.136   7.059  1.6868  1.1743 -1.8494
  181SOPE   H7Y20717   4.282   0.190   7.031 -0.5062  0.7463 -0.1517
  181SOPE   C3820718   4.400   0.318   7.156  0.4567 -0.7272 -0.5434
  181SOPE   H8X20719   4.364   0.420   7.134  0.3603 -0.5628  0.3424
  181SOPE   H8Y20720   4.506   0.337   7.183  0.2250 -2.4196  1.7438
  181SOPE   C3920721   4.342   0.245   7.276  0.1152 -0.1665  0.2515
  181SOPE   H9X20722   4.383   0.142   7.272 -0.0783 -0.1997 -1.0692
  181SOPE   H9Y20723   4.232   0.235   7.271  0.1644 -0.1026 -1.0885
  181SOPE  C31020724   4.392   0.306   7.407  0.2684 -0.5428 -0.2094
  181SOPE  H10X20725   4.500   0.284   7.422  0.4692  1.5485  1.7169
  181SOPE  H10Y20726   4.343   0.259   7.495 -1.6458  2.6840  0.5235
  181SOPE  C31120727   4.371   0.464   7.429 -0.8804  0.3437  0.1846
  181SOPE  H11X20728   4.266   0.492   7.405 -0.4875  0.2715 -1.6433
  181SOPE  H11Y20729   4.426   0.519   7.350  0.0820  2.0080  1.9777
  181SOPE  C31220730   4.394   0.513   7.574  0.0249  0.6630 -0.5448
  181SOPE  H12X20731   4.492   0.475   7.612 -0.9020 -1.5699 -0.3330
  181SOPE  H12Y20732   4.313   0.472   7.637  0.7950  0.0381  0.0587
  181SOPE  C31320733   4.380   0.664   7.603 -0.2539 -0.0300  0.5762
  181SOPE  H13X20734   4.286   0.700   7.557  0.3000  0.1333 -0.4332
  181SOPE  H13Y20735   4.455   0.722   7.546  0.0583 -0.6258  0.3768
  181SOPE  C31420736   4.375   0.696   7.755 -0.5222 -0.7929 -0.2151
  181SOPE  H14X20737   4.467   0.656   7.802  0.3952  2.4079  0.8416
  181SOPE  H14Y20738   4.289   0.646   7.804  0.0303 -2.5964 -1.0356
  181SOPE  C31520739   4.367   0.841   7.790  0.1154  0.0280 -0.2969
  181SOPE  H15X20740   4.275   0.897   7.763 -0.3381 -0.8252 -0.5492
  181SOPE  H15Y20741   4.447   0.901   7.741  0.4130 -1.2064 -1.3504
  181SOPE  C31620742   4.383   0.858   7.941  0.9191 -0.2245 -0.3984
  181SOPE  H16X20743   4.480   0.811   7.967 -0.2362 -2.2305  0.4063
  181SOPE  H16Y20744   4.305   0.792   7.984  0.8270 -1.5554 -2.5872
  181SOPE  C31720745   4.360   1.000   8.002 -0.0965 -0.1021  0.5848
  181SOPE  H17X20746   4.256   1.028   7.974  0.0264  1.9326  2.0781
  181SOPE  H17Y20747   4.417   1.074   7.943 -0.0883 -1.2192 -0.8520
  181SOPE  C31820748   4.386   1.003   8.151  0.3179  1.0169 -0.0308
  181SOPE  H18X20749   4.477   0.947   8.181  0.6419  1.9578  0.7978
  181SOPE  H18Y20750   4.309   0.947   8.208  1.1169  0.0058  0.0827
  181SOPE  H18Z20751   4.404   1.106   8.189  2.0676  0.5599  0.4545
  182SOPE     N20752   4.843   2.066   6.345  0.5190  0.0080 -0.1170
  182SOPE   HN120753   4.808   2.158   6.380 -0.0424 -1.2386  2.6299
  182SOPE   HN220754   4.945   2.061   6.363  0.2283 -3.1124  0.7692
  182SOPE   HN320755   4.815   2.057   6.245 -1.0126 -2.4043  0.5114
  182SOPE   C1220756   4.797   1.945   6.425 -0.5617  0.8267  0.4283
  182SOPE  H12A20757   4.841   1.955   6.526 -0.0174 -0.4396  0.3288
  182SOPE  H12B20758   4.840   1.853   6.380  0.2733  1.0518  0.7559
  182SOPE   C1120759   4.648   1.938   6.431  0.5103 -0.0503 -0.2505
  182SOPE  H11A20760   4.609   2.004   6.511 -2.2632 -0.6063 -1.0869
  182SOPE  H11B20761   4.622   1.841   6.478  0.2570 -0.1713 -0.6322
  182SOPE     P20762   4.479   1.875   6.238 -0.1933  0.0380 -0.2462
  182SOPE   O1320763   4.544   1.744   6.234  0.4723 -0.3496  0.4530
  182SOPE   O1420764   4.434   1.938   6.114 -0.7612  0.0913 -0.4907
  182SOPE   O1220765   4.576   1.972   6.314 -0.6462 -0.1957 -0.2757
  182SOPE   O1120766   4.352   1.864   6.329 -0.0653 -0.4967 -0.2032
  182SOPE    C120767   4.318   1.955   6.426  0.3415 -0.5516 -1.3288
  182SOPE    HA20768   4.253   2.033   6.379  0.0095 -1.4006 -2.2926
  182SOPE    HB20769   4.409   2.005   6.466  0.4915 -1.5965 -0.3371
  182SOPE    C220770   4.243   1.891   6.545 -0.7947  0.2090  0.4633
  182SOPE    HS20771   4.218   1.975   6.614  0.9449 -0.8756  2.4790
  182SOPE   O2120772   4.324   1.792   6.616 -0.4615 -0.4676  0.2848
  182SOPE   C2120773   4.415   1.835   6.699  0.3117  0.4685 -0.7612
  182SOPE   O2220774   4.452   1.949   6.703 -0.1208  0.0082  0.1125
  182SOPE   C2220775   4.468   1.725   6.792 -0.3515 -0.6582 -0.8121
  182SOPE   H2R20776   4.480   1.632   6.732 -0.4526 -1.7258  0.7896
  182SOPE   H2S20777   4.391   1.707   6.870 -1.1275  0.1396 -1.3824
  182SOPE    C320778   4.112   1.820   6.504 -0.2592 -0.8898  0.2431
  182SOPE    HX20779   4.146   1.723   6.463  2.0039  0.3102 -0.8154
  182SOPE    HY20780   4.057   1.878   6.427 -0.9000  1.1584  2.1812
  182SOPE   O3120781   4.031   1.799   6.622 -0.2659  0.0647  0.0924
  182SOPE   C3120782   3.981   1.906   6.674 -0.1410 -0.1439  0.3072
  182SOPE   O3220783   4.000   2.020   6.644  0.1851 -0.5830  0.1978
  182SOPE   C3220784   3.895   1.878   6.803 -0.0421  0.3613  0.4879
  182SOPE   H2X20785   3.791   1.884   6.766  0.1568  1.8988  0.1418
  182SOPE   H2Y20786   3.916   1.962   6.873  2.7311 -2.0054  2.6662
  182SOPE   C2320787   4.599   1.772   6.866 -0.5509 -0.7867  0.3243
  182SOPE   H3R20788   4.585   1.878   6.896  1.5785 -0.9142  1.8659
  182SOPE   H3S20789   4.687   1.775   6.799 -0.9960 -2.0199 -0.3390
  182SOPE   C2420790   4.604   1.684   6.985  0.2878 -0.1546 -0.2736
  182SOPE   H4R20791   4.512   1.683   7.046  1.0102 -1.6134  0.8114
  182SOPE   H4S20792   4.629   1.578   6.962 -0.3396 -0.1316 -1.0839
  182SOPE   C2520793   4.718   1.724   7.068 -0.1226  0.0029 -0.5997
  182SOPE   H5R20794   4.812   1.694   7.018  0.9075 -2.6112  2.7022
  182SOPE   H5S20795   4.723   1.832   7.096  0.5235 -0.1103 -0.2803
  182SOPE   C2620796   4.717   1.657   7.204  0.0411 -0.1649 -0.5564
  182SOPE   H6R20797   4.624   1.689   7.257 -0.6513 -0.8780 -1.3186
  182SOPE   H6S20798   4.706   1.549   7.179 -3.0285  0.5169 -2.5172
  182SOPE   C2720799   4.835   1.698   7.285  0.0007  0.3866 -0.0481
  182SOPE   H7R20800   4.931   1.664   7.242  0.3937  1.0299  0.3108
  182SOPE   H7S20801   4.837   1.808   7.303  0.4330  0.7498 -2.1786
  182SOPE   C2820802   4.823   1.653   7.429 -0.1707 -0.3354  0.5906
  182SOPE   H8R20803   4.732   1.683   7.484  1.0990 -0.7821  3.0063
  182SOPE   H8S20804   4.814   1.542   7.420  0.3075 -0.6039  3.1175
  182SOPE   C2920805   4.935   1.698   7.520  0.3976  0.1164  0.1014
  182SOPE   H9120806   5.009   1.775   7.491  1.4379 -1.3252 -1.0894
  182SOPE  C21020807   4.956   1.653   7.643 -0.2533  0.0480  0.2527
  182SOPE  H10120808   5.052   1.688   7.683  1.0402 -1.5424 -1.3648
  182SOPE  C21120809   4.880   1.554   7.733 -0.1473 -0.2325 -0.0184
  182SOPE  H11R20810   4.788   1.518   7.681  0.3035 -0.9713 -0.3116
  182SOPE  H11S20811   4.859   1.591   7.836  0.6489 -2.5424  1.0081
  182SOPE  C21220812   4.984   1.436   7.756 -0.1742 -0.3317  0.1963
  182SOPE  H12R20813   5.024   1.411   7.656  0.2760  1.3429 -0.0524
  182SOPE  H12S20814   4.932   1.349   7.800 -0.1697 -0.9006 -0.9136
  182SOPE  C21320815   5.099   1.461   7.852 -0.0684  0.2774  0.4982
  182SOPE  H13R20816   5.065   1.519   7.940 -0.8724 -0.0344  0.4000
  182SOPE  H13S20817   5.173   1.527   7.803 -1.4836  0.8963 -0.8283
  182SOPE  C21420818   5.159   1.329   7.907 -0.8411 -0.1636  0.0148
  182SOPE  H14R20819   5.207   1.268   7.828 -0.5672  0.8289 -0.6027
  182SOPE  H14S20820   5.081   1.289   7.975 -0.9419  1.1229  0.6758
  182SOPE  C21520821   5.278   1.374   8.002  0.5235  0.6376  0.3603
  182SOPE  H15R20822   5.256   1.458   8.071 -2.7072 -0.5968  0.9456
  182SOPE  H15S20823   5.353   1.417   7.932 -0.8169  0.4388 -1.2464
  182SOPE  C21620824   5.344   1.258   8.067 -0.2930  0.5106  0.1943
  182SOPE  H16R20825   5.333   1.178   7.991 -0.9491  0.3602  0.4464
  182SOPE  H16S20826   5.295   1.227   8.162 -0.3572 -0.8142 -0.2612
  182SOPE  C21720827   5.493   1.283   8.090  0.5261  0.4825  0.1457
  182SOPE  H17R20828   5.499   1.386   8.132 -0.4040  1.1229 -1.2720
  182SOPE  H17S20829   5.535   1.284   7.987  0.4253  1.3313  0.1101
  182SOPE  C21820830   5.568   1.183   8.175 -0.5859 -0.2808 -0.1336
  182SOPE  H18R20831   5.671   1.220   8.195  0.2122 -1.2578 -2.3248
  182SOPE  H18S20832   5.581   1.082   8.131  0.3338 -0.6632  0.9689
  182SOPE  H18T20833   5.517   1.179   8.274  1.0390  1.2609  0.8102
  182SOPE   C3320834   3.930   1.753   6.886  0.3072 -0.3286 -0.0861
  182SOPE   H3X20835   3.922   1.662   6.822 -3.9120  1.4488 -2.2509
  182SOPE   H3Y20836   3.859   1.753   6.971 -1.0779  3.7394 -1.1075
  182SOPE   C3420837   4.067   1.750   6.948 -0.3679  0.4871  0.1643
  182SOPE   H4X20838   4.143   1.766   6.869  0.4330 -1.7969  0.4412
  182SOPE   H4Y20839   4.078   1.645   6.982 -0.3328  1.1069  2.1199
  182SOPE   C3520840   4.097   1.838   7.064 -0.1867 -0.3148  0.0940
  182SOPE   H5X20841   4.038   1.811   7.154  1.4237  0.3049  1.3430
  182SOPE   H5Y20842   4.077   1.946   7.049  0.9953 -0.1503 -0.3488
  182SOPE   C3620843   4.244   1.816   7.118 -0.5958 -0.2275 -0.4397
  182SOPE   H6X20844   4.327   1.834   7.046 -0.7263  1.6935 -0.1264
  182SOPE   H6Y20845   4.251   1.715   7.164 -1.3136  0.4118  1.0957
  182SOPE   C3720846   4.285   1.900   7.238 -0.0616 -0.0801  0.0515
  182SOPE   H7X20847   4.197   1.942   7.291 -0.4886 -1.5404  0.5238
  182SOPE   H7Y20848   4.336   1.987   7.190  0.1197  0.3507  1.0022
  182SOPE   C3820849   4.370   1.832   7.341 -0.4446  0.5358 -0.4078
  182SOPE   H8X20850   4.472   1.828   7.297 -0.7449  1.5467 -1.2195
  182SOPE   H8Y20851   4.342   1.729   7.371  1.6377  0.0444 -0.0540
  182SOPE   C3920852   4.366   1.910   7.472 -0.0779 -0.7323  0.9307
  182SOPE   H9X20853   4.268   1.918   7.523  0.3977 -2.3327  2.1542
  182SOPE   H9Y20854   4.381   2.019   7.454 -1.5425 -0.5249  0.9019
  182SOPE  C31020855   4.444   1.856   7.587 -0.2168  0.0063  0.2727
  182SOPE  H10X20856   4.546   1.882   7.552 -0.8545  0.1108 -1.5621
  182SOPE  H10Y20857   4.433   1.746   7.593 -2.0240  0.2152  1.3016
  182SOPE  C31120858   4.415   1.920   7.725 -0.8614  0.7733 -0.3549
  182SOPE  H11X20859   4.306   1.929   7.746 -0.8083 -0.7202  0.6350
  182SOPE  H11Y20860   4.454   2.024   7.731 -1.0463  0.7906  0.5030
  182SOPE  C31220861   4.487   1.843   7.838  0.3450  0.6892 -0.1545
  182SOPE  H12X20862   4.594   1.864   7.817  0.7539  0.1791  1.3234
  182SOPE  H12Y20863   4.479   1.735   7.813  2.9468  0.1698  1.0220
  182SOPE  C31320864   4.441   1.885   7.977 -0.4075 -0.3318  0.6835
  182SOPE  H13X20865   4.330   1.884   7.976 -0.4723  1.7377 -1.9506
  182SOPE  H13Y20866   4.465   1.993   7.990 -1.5065 -0.0528  0.4686
  182SOPE  C31420867   4.497   1.799   8.089  0.2087  0.2917  0.2766
  182SOPE  H14X20868   4.467   1.693   8.078 -2.1029  0.6650  2.3554
  182SOPE  H14Y20869   4.463   1.835   8.190  0.0534 -1.0830  0.7206
  182SOPE  C31520870   4.653   1.778   8.085 -0.7616  0.6953  0.1980
  182SOPE  H15X20871   4.704   1.876   8.091 -0.2558  0.5985 -2.0907
  182SOPE  H15Y20872   4.688   1.736   7.988 -1.3022 -1.3215  0.8566
  182SOPE  C31620873   4.702   1.699   8.204 -0.2738 -0.4741  0.1116
  182SOPE  H16X20874   4.669   1.593   8.195 -2.6228  0.2999 -0.7081
  182SOPE  H16Y20875   4.668   1.738   8.303 -0.9775 -1.1513  0.1356
  182SOPE  C31720876   4.855   1.695   8.210 -0.2123 -0.7491 -0.4413
  182SOPE  H17X20877   4.888   1.798   8.234  0.3618 -1.5216  2.2387
  182SOPE  H17Y20878   4.885   1.646   8.114  1.4268  0.3848 -0.5107
  182SOPE  C31820879   4.910   1.610   8.329 -0.2878  0.0821  0.2145
  182SOPE  H18X20880   5.019   1.590   8.322 -0.0146  1.2456  1.0929
  182SOPE  H18Y20881   4.865   1.508   8.325  2.2917 -1.0747 -2.2527
  182SOPE  H18Z20882   4.888   1.665   8.422  2.4628 -0.1351  1.0299
  183SOPE     N20883   0.748   0.351   6.416  0.2218  0.5941  0.7149
  183SOPE   HN120884   0.695   0.395   6.494 -0.5644 -1.1125  1.1468
  183SOPE   HN220885   0.767   0.429   6.350  0.8072 -0.4419 -0.3455
  183SOPE   HN320886   0.691   0.276   6.374  1.0497 -0.3732  1.2926
  183SOPE   C1220887   0.877   0.295   6.474 -0.0350 -0.2015  0.2936
  183SOPE  H12A20888   0.926   0.376   6.532  0.3426 -0.1706 -0.0746
  183SOPE  H12B20889   0.939   0.250   6.393  0.0537  0.2579  0.1079
  183SOPE   C1120890   0.827   0.178   6.564 -0.1499  0.1087 -0.5430
  183SOPE  H11A20891   0.782   0.216   6.658 -0.1087 -2.0654  0.3882
  183SOPE  H11B20892   0.915   0.126   6.609 -1.0590 -0.8400  0.1583
  183SOPE     P20893   0.775   0.002   6.374 -0.0108 -0.0083 -0.4196
  183SOPE   O1320894   0.820   0.090   6.263  0.5296 -0.2842 -0.0081
  183SOPE   O1420895   0.673  -0.101   6.346  0.2102 -0.5118  0.4873
  183SOPE   O1220896   0.741   0.079   6.504  0.2965 -0.5157 -0.2066
  183SOPE   O1120897   0.904  -0.086   6.416 -0.0972  0.3685 -0.3269
  183SOPE    C120898   0.893  -0.229   6.417  0.2211  0.2474 -0.3285
  183SOPE    HA20899   0.996  -0.269   6.408  0.1280  0.2411 -1.4079
  183SOPE    HB20900   0.849  -0.266   6.322 -0.5556  1.1370 -0.3250
  183SOPE    C220901   0.821  -0.296   6.542  0.4413  0.1765 -0.1791
  183SOPE    HS20902   0.720  -0.249   6.541  0.2153 -0.2416  2.1083
  183SOPE   O2120903   0.901  -0.274   6.662 -0.0658  0.6032  0.0147
  183SOPE   C2120904   0.828  -0.247   6.768 -0.1130 -0.0289  0.2753
  183SOPE   O2220905   0.709  -0.223   6.772  0.2171 -0.0143 -0.2508
  183SOPE   C2220906   0.922  -0.249   6.880 -0.1362  0.1659  0.3022
  183SOPE   H2R20907   1.012  -0.192   6.851  0.9630 -1.1402  1.0979
  183SOPE   H2S20908   0.967  -0.348   6.900  0.8474  0.6547  0.5220
  183SOPE    C320909   0.779  -0.445   6.520 -0.2957  0.9685  0.0992
  183SOPE    HX20910   0.871  -0.507   6.518  0.0772  1.5089  0.5067
  183SOPE    HY20911   0.731  -0.455   6.420 -1.9153  0.3193  0.9299
  183SOPE   O3120912   0.702  -0.505   6.630 -0.8713  0.1829 -0.1462
  183SOPE   C3120913   0.578  -0.476   6.638  0.4085 -0.1111 -0.3116
  183SOPE   O3220914   0.510  -0.420   6.553  0.0930 -0.2694  0.3015
  183SOPE   C3220915   0.518  -0.550   6.751  0.1865  0.2955  0.1061
  183SOPE   H2X20916   0.515  -0.655   6.716  1.6614  1.1049 -2.5879
  183SOPE   H2Y20917   0.411  -0.519   6.757 -0.0984 -0.6433 -0.0411
  183SOPE   C2320918   0.851  -0.187   7.004  0.3537  0.6865  0.0535
  183SOPE   H3R20919   0.774  -0.263   7.028 -0.2264  1.1067 -0.4864
  183SOPE   H3S20920   0.815  -0.085   6.983  1.6129  1.3338  0.9516
  183SOPE   C2420921   0.936  -0.175   7.133  0.0840 -0.5994  0.0295
  183SOPE   H4R20922   0.973  -0.277   7.157  0.1090 -0.1762  1.8112
  183SOPE   H4S20923   1.025  -0.111   7.117 -1.3078  1.8568  1.7274
  183SOPE   C2520924   0.856  -0.126   7.251  0.0051 -0.0730  0.5187
  183SOPE   H5R20925   0.792  -0.040   7.221  0.4049 -0.5662 -1.8184
  183SOPE   H5S20926   0.773  -0.196   7.276 -0.8369  0.5844 -0.3736
  183SOPE   C2620927   0.937  -0.103   7.382 -0.0482 -0.2264  0.0283
  183SOPE   H6R20928   1.038  -0.136   7.349  0.0804  0.5948 -0.4087
  183SOPE   H6S20929   0.946   0.005   7.406  0.5647 -0.8852  2.9652
  183SOPE   C2720930   0.869  -0.195   7.493  0.2700 -0.4200 -0.1317
  183SOPE   H7R20931   0.760  -0.174   7.490  0.4756  0.8744  0.8673
  183SOPE   H7S20932   0.893  -0.300   7.466  0.0188 -0.7943  1.0576
  183SOPE   C2820933   0.921  -0.167   7.631 -0.2494 -0.8217  0.7541
  183SOPE   H8R20934   0.884  -0.244   7.701 -0.7645  0.5836  2.0498
  183SOPE   H8S20935   1.031  -0.180   7.619 -0.4434 -1.4205 -0.4753
  183SOPE   C2920936   0.891  -0.039   7.697 -0.6548 -0.4286  0.2867
  183SOPE   H9120937   0.837   0.032   7.632 -1.6375 -0.6615  0.8400
  183SOPE  C21020938   0.919  -0.018   7.828 -0.4058 -0.0458  0.2510
  183SOPE  H10120939   0.887   0.081   7.864  3.2332  1.3983 -0.2094
  183SOPE  C21120940   0.989  -0.099   7.931  0.5564  0.5447 -0.4434
  183SOPE  H11R20941   1.096  -0.111   7.904  1.2703 -1.5337  3.0305
  183SOPE  H11S20942   0.953  -0.203   7.921  0.5808  0.3429  1.4332
  183SOPE  C21220943   0.975  -0.052   8.082  0.4122  0.2340  0.3373
  183SOPE  H12R20944   0.986   0.058   8.076 -0.3401  0.2550 -0.8563
  183SOPE  H12S20945   1.051  -0.102   8.146  0.0385  0.9904  1.3817
  183SOPE  C21320946   0.833  -0.080   8.132 -0.0271  0.4301  0.0192
  183SOPE  H13R20947   0.834  -0.191   8.119  0.8288  0.1932  2.0310
  183SOPE  H13S20948   0.765  -0.029   8.060  0.7984  1.0940 -0.2958
  183SOPE  C21420949   0.808  -0.042   8.279 -0.3788 -0.4329  0.3293
  183SOPE  H14R20950   0.837   0.066   8.278 -1.4424 -0.1416 -0.5370
  183SOPE  H14S20951   0.877  -0.102   8.341 -0.5912  0.5058  1.4945
  183SOPE  C21520952   0.663  -0.066   8.304  0.0209 -0.2843  0.0477
  183SOPE  H15R20953   0.644  -0.160   8.247 -1.0340  1.1523 -2.0308
  183SOPE  H15S20954   0.611   0.020   8.257  1.0946  0.5706  0.4030
  183SOPE  C21620955   0.642  -0.081   8.454  0.3883  0.0337  0.2579
  183SOPE  H16R20956   0.682   0.006   8.510 -1.3330  0.7660  0.3858
  183SOPE  H16S20957   0.691  -0.173   8.493 -0.8535 -0.5219  0.5558
  183SOPE  C21720958   0.490  -0.089   8.498  0.1634  0.3218 -0.4382
  183SOPE  H17R20959   0.443  -0.001   8.448 -1.1804 -1.5564 -2.6171
  183SOPE  H17S20960   0.472  -0.087   8.608  0.1174  2.1851 -0.4666
  183SOPE  C21820961   0.414  -0.209   8.442 -0.5309 -0.1416  0.5260
  183SOPE  H18R20962   0.303  -0.200   8.438 -0.3589  1.3472 -1.5415
  183SOPE  H18S20963   0.445  -0.301   8.496  2.1571  1.3688  1.6652
  183SOPE  H18T20964   0.440  -0.243   8.340 -2.4957 -0.5583  0.1392
  183SOPE   C3320965   0.587  -0.530   6.886  0.2280  0.1515 -0.5612
  183SOPE   H3X20966   0.611  -0.422   6.889  3.1260 -0.4247 -1.1503
  183SOPE   H3Y20967   0.684  -0.585   6.882  0.1140 -0.0335 -0.8025
  183SOPE   C3420968   0.516  -0.581   7.013 -0.4218 -0.2773 -0.2519
  183SOPE   H4X20969   0.491  -0.689   7.010  2.0174 -0.9051  1.0017
  183SOPE   H4Y20970   0.410  -0.545   7.016 -0.4323 -0.3759  0.5808
  183SOPE   C3520971   0.592  -0.543   7.141  1.1896  0.1163  1.0324
  183SOPE   H5X20972   0.588  -0.432   7.147  0.9010  0.2502 -1.2156
  183SOPE   H5Y20973   0.688  -0.598   7.134  0.5806 -0.8246 -0.0803
  183SOPE   C3620974   0.522  -0.604   7.269 -0.9622  0.2394 -0.9310
  183SOPE   H6X20975   0.522  -0.715   7.258 -0.6370  0.2995 -1.5790
  183SOPE   H6Y20976   0.414  -0.582   7.278 -0.7992  0.3547  0.9716
  183SOPE   C3720977   0.594  -0.556   7.393  0.0490  0.5816  0.4293
  183SOPE   H7X20978   0.612  -0.447   7.383  0.2003  0.5563  0.4127
  183SOPE   H7Y20979   0.690  -0.613   7.402 -2.2232 -3.4396  0.3654
  183SOPE   C3820980   0.523  -0.586   7.525  0.3647 -0.1757 -0.5190
  183SOPE   H8X20981   0.502  -0.694   7.538 -0.1616  0.0375  0.4788
  183SOPE   H8Y20982   0.423  -0.537   7.528  0.6927  0.4450  1.7739
  183SOPE   C3920983   0.595  -0.527   7.648  0.4740 -0.3124 -0.1176
  183SOPE   H9X20984   0.600  -0.416   7.657 -2.8800 -0.2863  2.1933
  183SOPE   H9Y20985   0.700  -0.559   7.631 -0.0772 -1.2888 -1.7862
  183SOPE  C31020986   0.531  -0.574   7.785  0.4753  0.3615  0.1971
  183SOPE  H10X20987   0.533  -0.685   7.778 -1.1389  0.1202  2.8362
  183SOPE  H10Y20988   0.424  -0.545   7.778  0.3990 -0.2132 -1.1274
  183SOPE  C31120989   0.604  -0.535   7.914 -0.0630  0.3170 -0.4380
  183SOPE  H11X20990   0.613  -0.425   7.914 -1.3066  0.4945 -4.3388
  183SOPE  H11Y20991   0.707  -0.577   7.909  0.8746  2.2264  2.0144
  183SOPE  C31220992   0.528  -0.567   8.049  0.2560  0.1952  0.3870
  183SOPE  H12X20993   0.532  -0.678   8.060  1.6124  0.1621 -0.3164
  183SOPE  H12Y20994   0.422  -0.547   8.022  0.6518 -1.9507 -2.9820
  183SOPE  C31320995   0.574  -0.498   8.181  0.2044  0.4793  0.1773
  183SOPE  H13X20996   0.494  -0.507   8.257  0.9961 -0.0328  0.9603
  183SOPE  H13Y20997   0.570  -0.389   8.160 -1.9006  0.6905  1.5239
  183SOPE  C31420998   0.719  -0.535   8.231 -0.0058 -0.4050  0.4704
  183SOPE  H14X20999   0.792  -0.523   8.148  0.8107  0.2824  1.2654
  183SOPE  H14Y21000   0.719  -0.640   8.266 -0.0140 -0.8486 -0.8489
  183SOPE  C31521001   0.774  -0.441   8.340  1.1727  0.0523  0.0770
  183SOPE  H15X21002   0.696  -0.438   8.420  0.1553 -1.4284 -0.8312
  183SOPE  H15Y21003   0.798  -0.350   8.282 -0.5759 -0.6596 -1.8421
  183SOPE  C31621004   0.907  -0.497   8.397 -0.8095 -0.2616 -0.5176
  183SOPE  H16X21005   0.957  -0.412   8.448 -0.4174  0.6650 -2.4038
  183SOPE  H16Y21006   0.976  -0.529   8.316  2.0486  2.5504  0.7064
  183SOPE  C31721007   0.900  -0.609   8.503  0.0367 -0.3359 -0.0302
  183SOPE  H17X21008   0.998  -0.647   8.537 -0.2865 -1.5213 -0.3910
  183SOPE  H17Y21009   0.849  -0.692   8.450  1.8682 -2.0512  0.8294
  183SOPE  C31821010   0.820  -0.574   8.632 -0.6984  0.2504  0.0006
  183SOPE  H18X21011   0.814  -0.670   8.688 -0.2808 -0.3719 -0.9926
  183SOPE  H18Y21012   0.719  -0.544   8.597 -0.1002  0.7157 -1.3569
  183SOPE  H18Z21013   0.853  -0.494   8.702  2.5949  0.0123 -1.1537
  184SOPE     N21014   6.738   5.694   6.146 -0.6011  0.2673  0.4588
  184SOPE   HN121015   6.770   5.793   6.147  0.3031 -0.0137 -0.0970
  184SOPE   HN221016   6.652   5.693   6.205 -1.6547 -0.6746 -1.0700
  184SOPE   HN321017   6.799   5.636   6.206 -0.9051 -1.1536 -0.5923
  184SOPE   C1221018   6.696   5.639   6.008 -0.7190 -0.4911 -0.1669
  184SOPE  H12A21019   6.636   5.553   6.047  0.1697 -0.7261  0.7062
  184SOPE  H12B21020   6.782   5.603   5.948 -1.8262 -0.6628 -1.6827
  184SOPE   C1121021   6.621   5.744   5.930  0.5016  0.0408 -0.7071
  184SOPE  H11A21022   6.580   5.689   5.843 -0.1551 -1.8173  0.7400
  184SOPE  H11B21023   6.682   5.825   5.885  0.7401  1.3683  1.9192
  184SOPE     P21024   6.484   5.945   6.041  0.2825  0.0886  0.1195
  184SOPE   O1321025   6.337   5.970   6.051 -1.2308 -0.5168 -0.6147
  184SOPE   O1421026   6.552   6.025   5.938  0.2324  0.1522 -0.5949
  184SOPE   O1221027   6.508   5.790   6.010 -0.3303  0.2216  0.0997
  184SOPE   O1121028   6.550   5.948   6.188 -0.3469 -0.5574  0.2660
  184SOPE    C121029   6.464   5.999   6.287  0.0754 -0.2663 -0.0285
  184SOPE    HA21030   6.380   5.934   6.320 -0.8089  0.6930 -0.3721
  184SOPE    HB21031   6.415   6.093   6.255  0.0324 -0.1461  0.3932
  184SOPE    C221032   6.548   6.032   6.411  0.3651 -0.7284  0.2049
  184SOPE    HS21033   6.629   6.100   6.375 -2.0807  2.6051  0.7681
  184SOPE   O2121034   6.586   5.914   6.477 -0.0048  0.6171  0.2705
  184SOPE   C2121035   6.704   5.908   6.527 -0.4562  0.6974 -0.0761
  184SOPE   O2221036   6.790   5.995   6.516 -0.2396 -0.1553 -0.4596
  184SOPE   C2221037   6.733   5.781   6.604  0.3741 -0.4545 -0.2607
  184SOPE   H2R21038   6.758   5.700   6.532 -0.2775 -0.1206 -0.8601
  184SOPE   H2S21039   6.645   5.750   6.664  0.6890 -2.5531 -0.8597
  184SOPE    C321040   6.471   6.113   6.520 -0.2848  0.4129  0.6882
  184SOPE    HX21041   6.389   6.051   6.561 -1.6362  0.3014 -2.0968
  184SOPE    HY21042   6.439   6.205   6.466 -0.9702 -1.2503 -1.8450
  184SOPE   O3121043   6.554   6.156   6.634 -0.0486 -0.1364  0.8544
  184SOPE   C3121044   6.634   6.260   6.617 -0.5083  0.0811 -0.4696
  184SOPE   O3221045   6.613   6.347   6.529  0.3517 -0.1938 -0.1879
  184SOPE   C3221046   6.749   6.265   6.728  0.1188  0.1580  0.7112
  184SOPE   H2X21047   6.826   6.189   6.703 -0.9870 -1.5339  2.3462
  184SOPE   H2Y21048   6.707   6.238   6.827  0.4055 -0.9104  0.5392
  184SOPE   C2321049   6.860   5.792   6.692 -0.3126 -0.2268 -0.0846
  184SOPE   H3R21050   6.953   5.833   6.647 -0.4055  0.2673  0.1773
  184SOPE   H3S21051   6.883   5.694   6.738 -1.2030 -0.9847 -1.2088
  184SOPE   C2421052   6.847   5.889   6.826  0.5661  0.0209  0.3996
  184SOPE   H4R21053   6.847   5.993   6.789 -1.7532  0.4067  1.4057
  184SOPE   H4S21054   6.751   5.882   6.882  0.1928  0.0751 -0.2377
  184SOPE   C2521055   6.955   5.862   6.931  0.3928 -0.0948 -1.0015
  184SOPE   H5R21056   6.956   5.754   6.957  0.4816 -0.2732 -1.7363
  184SOPE   H5S21057   7.060   5.888   6.907  0.0970 -0.0989 -2.3443
  184SOPE   C2621058   6.906   5.932   7.068 -0.3807 -0.1256 -0.1035
  184SOPE   H6R21059   6.795   5.926   7.074 -0.5435  0.9360 -1.6064
  184SOPE   H6S21060   6.955   5.886   7.156 -1.2439 -3.4116 -1.2594
  184SOPE   C2721061   6.956   6.078   7.081  0.5732  0.9933  0.3883
  184SOPE   H7R21062   7.066   6.076   7.069  0.6138  0.4317  0.8333
  184SOPE   H7S21063   6.917   6.131   6.991 -0.5456 -1.5262 -0.6571
  184SOPE   C2821064   6.900   6.143   7.208 -0.6777  0.2592 -0.2718
  184SOPE   H8R21065   6.797   6.110   7.232 -1.4373  2.6277 -0.1584
  184SOPE   H8S21066   6.960   6.110   7.296 -0.6579  2.4731  0.5723
  184SOPE   C2921067   6.914   6.295   7.205 -0.2078 -0.4743 -0.0914
  184SOPE   H9121068   6.971   6.331   7.118 -1.3751  1.9444  0.0840
  184SOPE  C21021069   6.871   6.397   7.291 -0.0761 -0.0844  0.8935
  184SOPE  H10121070   6.885   6.501   7.259 -1.7005  0.0238  0.4910
  184SOPE  C21121071   6.802   6.375   7.422  0.5747  0.7266 -0.5715
  184SOPE  H11R21072   6.751   6.276   7.423 -1.4483  1.7385  0.9268
  184SOPE  H11S21073   6.720   6.449   7.434 -1.4412 -1.4290 -0.6951
  184SOPE  C21221074   6.904   6.385   7.530  0.1677  0.1073 -0.0123
  184SOPE  H12R21075   6.951   6.486   7.531  1.1911 -0.3689  0.3345
  184SOPE  H12S21076   6.988   6.318   7.505  0.7196  1.0189 -0.6508
  184SOPE  C21321077   6.835   6.360   7.665 -0.4101  0.0235 -0.1186
  184SOPE  H13R21078   6.813   6.251   7.664 -1.9018  0.3173 -0.2549
  184SOPE  H13S21079   6.742   6.419   7.658  0.2122  1.1378  0.8713
  184SOPE  C21421080   6.911   6.394   7.793 -0.1480  0.0564 -1.0108
  184SOPE  H14R21081   6.923   6.504   7.801 -1.1459  0.0762  0.3689
  184SOPE  H14S21082   7.014   6.352   7.782  1.2062  3.3356 -1.4064
  184SOPE  C21521083   6.839   6.330   7.916 -0.0578 -0.3740 -0.2339
  184SOPE  H15R21084   6.842   6.219   7.905 -0.3117 -0.5758  1.5311
  184SOPE  H15S21085   6.731   6.352   7.905 -0.9496 -2.9788  2.4507
  184SOPE  C21621086   6.910   6.366   8.053 -0.1010 -0.5258  0.8428
  184SOPE  H16R21087   6.889   6.474   8.070  0.2843 -0.2227 -0.5167
  184SOPE  H16S21088   7.019   6.369   8.037 -0.2898  2.7921 -0.3198
  184SOPE  C21721089   6.881   6.272   8.174 -0.4141 -0.5842  1.1155
  184SOPE  H17R21090   6.919   6.169   8.154 -1.4142 -0.6621 -0.5222
  184SOPE  H17S21091   6.772   6.254   8.188 -0.6694  1.4338  1.8766
  184SOPE  C21821092   6.914   6.330   8.311  0.5455 -0.3580  0.1702
  184SOPE  H18R21093   6.872   6.255   8.381 -0.9301  1.0165  0.7790
  184SOPE  H18S21094   6.873   6.430   8.334 -1.2141 -0.9107 -0.4506
  184SOPE  H18T21095   7.023   6.333   8.330  1.4113 -2.5525 -3.7272
  184SOPE   C3321096   6.812   6.407   6.748  0.2004 -0.6055 -0.9322
  184SOPE   H3X21097   6.856   6.437   6.651  2.5274 -1.2305 -0.1112
  184SOPE   H3Y21098   6.895   6.399   6.822  1.0312 -0.2377 -1.8111
  184SOPE   C3421099   6.699   6.509   6.797 -0.3873  0.3556  0.0564
  184SOPE   H4X21100   6.623   6.531   6.720  1.0939  0.4712 -1.4012
  184SOPE   H4Y21101   6.744   6.602   6.839 -2.0374  0.1746  2.3348
  184SOPE   C3521102   6.634   6.451   6.926  0.4822 -0.4277 -0.1354
  184SOPE   H5X21103   6.707   6.406   6.996 -1.2695 -0.6331  1.6109
  184SOPE   H5Y21104   6.558   6.374   6.898 -0.3126  0.3216 -0.0578
  184SOPE   C3621105   6.556   6.554   7.000  0.0774 -0.3926 -0.4725
  184SOPE   H6X21106   6.466   6.590   6.946  1.0884  4.0393  0.5409
  184SOPE   H6Y21107   6.613   6.647   7.023 -0.6105 -0.2039  0.5003
  184SOPE   C3721108   6.498   6.501   7.132 -1.0503 -0.1826  0.7198
  184SOPE   H7X21109   6.578   6.470   7.203  0.3281  1.0751 -0.2464
  184SOPE   H7Y21110   6.430   6.416   7.114 -1.1469  0.5078 -2.4329
  184SOPE   C3821111   6.424   6.609   7.213  0.2714  0.1022  0.2722
  184SOPE   H8X21112   6.335   6.650   7.160  0.2065 -0.8116 -0.3486
  184SOPE   H8Y21113   6.490   6.695   7.237 -1.5665  1.3531  0.9564
  184SOPE   C3921114   6.382   6.566   7.358 -0.6072 -0.3093 -0.2689
  184SOPE   H9X21115   6.344   6.655   7.413  1.4944 -0.7102  1.9245
  184SOPE   H9Y21116   6.477   6.536   7.406  1.0047  4.7975  0.0942
  184SOPE  C31021117   6.279   6.457   7.361 -0.2293  0.2601  0.0337
  184SOPE  H10X21118   6.308   6.383   7.283 -0.7850 -1.3498  1.3121
  184SOPE  H10Y21119   6.176   6.491   7.340 -0.3322  0.2388  0.4921
  184SOPE  C31121120   6.281   6.362   7.488 -0.7614 -0.0990 -0.2240
  184SOPE  H11X21121   6.385   6.325   7.502 -0.2711  1.1315 -0.5061
  184SOPE  H11Y21122   6.216   6.273   7.479 -0.4267 -0.3615 -0.0342
  184SOPE  C31221123   6.237   6.436   7.616 -0.5191 -0.5813  0.0445
  184SOPE  H12X21124   6.137   6.482   7.599  0.0843  0.1419 -1.6698
  184SOPE  H12Y21125   6.306   6.522   7.628 -1.2773  0.0751 -0.2685
  184SOPE  C31321126   6.232   6.337   7.737  0.3802 -0.4487 -0.4606
  184SOPE  H13X21127   6.327   6.282   7.755 -1.5654 -3.1749  2.0291
  184SOPE  H13Y21128   6.157   6.261   7.704  0.7104 -0.7851 -0.4321
  184SOPE  C31421129   6.172   6.392   7.862 -0.0624  0.3317  0.4895
  184SOPE  H14X21130   6.071   6.439   7.859  0.3430  1.2228  0.7226
  184SOPE  H14Y21131   6.236   6.477   7.893  1.7948 -1.6022  2.2179
  184SOPE  C31521132   6.141   6.302   7.985 -0.1634 -0.2032 -0.3508
  184SOPE  H15X21133   6.098   6.366   8.066 -2.5509  0.2951 -1.9515
  184SOPE  H15Y21134   6.236   6.266   8.029 -0.4741 -0.3583  0.2015
  184SOPE  C31621135   6.053   6.172   7.941 -0.4668 -0.7601  0.2400
  184SOPE  H16X21136   6.125   6.122   7.872  1.4604 -0.8071  2.2082
  184SOPE  H16Y21137   5.971   6.209   7.877 -0.6402  0.1181  0.9600
  184SOPE  C31721138   6.030   6.073   8.053  0.2292 -0.1486 -0.5126
  184SOPE  H17X21139   6.124   6.032   8.095 -0.3381 -1.3139 -0.3658
  184SOPE  H17Y21140   5.977   5.982   8.018  0.6145  0.1715 -1.9736
  184SOPE  C31821141   5.946   6.133   8.159 -0.6949 -0.0347 -0.9493
  184SOPE  H18X21142   5.848   6.163   8.116 -0.9879 -0.1648 -0.3810
  184SOPE  H18Y21143   5.990   6.229   8.195 -1.0741 -0.8377  1.7546
  184SOPE  H18Z21144   5.928   6.054   8.235  0.8376  1.5841  1.1449
  185SAPI   C1221145   4.379   3.029  10.963  0.1318  0.3454 -0.7638
  185SAPI    H221146   4.352   3.083  10.869 -1.3577 -2.3146 -1.9117
  185SAPI    O221147   4.268   3.021  11.044 -0.0212  0.0500 -0.0671
  185SAPI   HO221148   4.251   3.105  11.089  2.0145  0.3630  0.1764
  185SAPI   C1321149   4.417   2.883  10.923  0.3924 -0.4753  0.3808
  185SAPI    H321150   4.504   2.894  10.854  0.4272 -2.4436  0.0685
  185SAPI    O321151   4.323   2.820  10.837 -0.0204 -0.2058 -0.5389
  185SAPI   HO321152   4.240   2.810  10.885  0.3180 -1.1761 -0.1494
  185SAPI   C1421153   4.458   2.807  11.044 -0.1164  0.9548 -0.4143
  185SAPI    H421154   4.367   2.800  11.107 -0.3284  0.4181 -0.7843
  185SAPI    O421155   4.487   2.669  11.001 -0.0097 -0.3060  0.6476
  185SAPI   HO421156   4.553   2.658  10.932  1.4990  0.8744  1.8647
  185SAPI   C1521157   4.572   2.866  11.125 -0.2969 -0.5084 -0.1172
  185SAPI    H521158   4.672   2.871  11.077  0.2895  2.3810  1.3298
  185SAPI    O521159   4.584   2.793  11.246 -0.4330 -0.1119  0.5508
  185SAPI   HO521160   4.678   2.773  11.249 -0.1665  0.5451 -2.1189
  185SAPI   C1621161   4.535   3.009  11.156  0.2541 -0.2392  0.5073
  185SAPI    H621162   4.444   3.005  11.220  0.6819  1.0720  1.2155
  185SAPI    O621163   4.641   3.071  11.221  0.6474  0.2735 -0.5604
  185SAPI   HO621164   4.677   3.132  11.155  2.4967 -0.9228 -0.6752
  185SAPI   C1121165   4.498   3.089  11.026  0.0786 -0.0174 -0.2244
  185SAPI    H121166   4.584   3.083  10.956  1.0008 -1.9414  1.0270
  185SAPI     P21167   4.574   3.344  11.043 -0.6244  0.0998  0.0341
  185SAPI   O1321168   4.716   3.288  11.051 -0.3620  0.1210 -0.2924
  185SAPI   O1421169   4.535   3.445  11.145 -0.3322  0.4115  0.7238
  185SAPI   O1221170   4.460   3.227  11.039  0.2609 -0.0929  0.2643
  185SAPI   O1121171   4.559   3.399  10.896  0.6190  0.1504 -0.1903
  185SAPI    C121172   4.443   3.475  10.857 -0.2727 -0.0201  0.2111
  185SAPI    HA21173   4.391   3.521  10.944  1.6267  1.8882  0.4085
  185SAPI    HB21174   4.484   3.564  10.804 -0.7921  1.0499  1.5803
  185SAPI    C221175   4.353   3.397  10.763 -0.4529 -0.7276 -1.0369
  185SAPI    HS21176   4.332   3.298  10.809  0.8692 -0.3479  0.4214
  185SAPI   O2121177   4.415   3.374  10.634 -0.6401  0.0167 -0.2244
  185SAPI   C2121178   4.478   3.258  10.612  0.4939 -0.2868 -0.1556
  185SAPI   O2221179   4.494   3.169  10.690  0.6898 -0.0527  0.4714
  185SAPI   C2221180   4.527   3.262  10.472 -0.7237 -0.1034 -0.0535
  185SAPI   H2R21181   4.562   3.364  10.446  0.7052 -1.0122 -1.8060
  185SAPI   H2S21182   4.611   3.190  10.478  1.7138  2.7419  1.1066
  185SAPI    C321183   4.216   3.476  10.741 -0.2517 -0.6990 -0.0687
  185SAPI    HX21184   4.169   3.493  10.840  2.2146 -1.8465  1.3357
  185SAPI    HY21185   4.174   3.402  10.669  0.3357 -0.2350 -0.9078
  185SAPI   O3121186   4.244   3.593  10.670 -0.0240  0.5871  0.0199
  185SAPI   C3121187   4.128   3.657  10.651 -0.0222 -0.1576  1.4703
  185SAPI   O3221188   4.022   3.626  10.700 -0.2896 -0.1018  0.3971
  185SAPI   C3221189   4.147   3.773  10.551 -0.2628 -0.0457  0.5722
  185SAPI   H2X21190   4.220   3.739  10.475  1.2151  1.5707  1.2236
  185SAPI   H2Y21191   4.190   3.869  10.588  2.6901  0.3479 -3.4928
  185SAPI   C2321192   4.422   3.214  10.373  0.8037  0.2855  0.4202
  185SAPI   H3R21193   4.336   3.283  10.386  0.4627  0.2516 -1.4228
  185SAPI   H3S21194   4.386   3.117  10.412  2.4558 -1.1523 -1.4836
  185SAPI   C2421195   4.471   3.205  10.229 -0.0967 -0.2477  0.4518
  185SAPI   H4R21196   4.502   3.304  10.189  0.2192 -0.7348 -0.5033
  185SAPI   H4S21197   4.388   3.172  10.164 -0.0781 -0.2377  0.4232
  185SAPI   C2521198   4.589   3.108  10.220 -0.1901  0.7842  0.0513
  185SAPI   H5R21199   4.628   3.059  10.311  0.4076  1.8580  0.3834
  185SAPI   C2621200   4.632   3.055  10.102  0.2559  0.1088 -0.1867
  185SAPI   H6R21201   4.706   2.973  10.101  0.1095 -0.0264  0.1025
  185SAPI   C2721202   4.584   3.101   9.970 -0.4126 -0.7172 -0.3637
  185SAPI   H7R21203   4.473   3.106   9.963 -0.3426  1.1321 -0.4689
  185SAPI   H7S21204   4.609   3.015   9.905  0.4540  0.7245 -1.9921
  185SAPI   C2821205   4.636   3.223   9.896  0.0431 -0.3101  0.4081
  185SAPI   H8R21206   4.681   3.299   9.962  0.3371  0.2797 -0.4584
  185SAPI   C2921207   4.628   3.257   9.766  0.3293 -0.1176 -0.1744
  185SAPI   H9R21208   4.666   3.357   9.739 -1.0080  0.3217 -0.4594
  185SAPI  C21021209   4.559   3.173   9.661  0.2261 -0.2202  0.3097
  185SAPI  H10R21210   4.472   3.121   9.707  0.2935  2.5736  3.7944
  185SAPI  H10S21211   4.636   3.102   9.625  0.5573 -1.3092  2.9952
  185SAPI  C21121212   4.505   3.243   9.531  0.4308 -0.1197 -0.4563
  185SAPI  H11R21213   4.396   3.251   9.523  0.3267 -1.2535 -0.3076
  185SAPI  C21221214   4.581   3.279   9.426 -0.1835 -0.6599 -0.2047
  185SAPI  H12R21215   4.528   3.324   9.341  0.1750  3.4721  1.6678
  185SAPI  C21321216   4.727   3.275   9.415 -0.7585 -0.7971 -0.0469
  185SAPI  H13R21217   4.745   3.190   9.345 -0.3459 -0.7619  0.0163
  185SAPI  H13S21218   4.782   3.253   9.509 -1.4232  1.3551  0.8823
  185SAPI  C21421219   4.766   3.414   9.367  0.7437  0.1173  0.0548
  185SAPI  H14R21220   4.781   3.491   9.444 -0.5390  1.0818 -0.6388
  185SAPI  C21521221   4.803   3.440   9.240 -0.0853  0.1606  0.4200
  185SAPI  H15R21222   4.826   3.546   9.218 -1.8425  0.4281 -0.1877
  185SAPI  C21621223   4.804   3.352   9.119  0.0917  0.4374 -0.2515
  185SAPI  H16R21224   4.716   3.370   9.053 -0.2781 -0.6063 -0.0632
  185SAPI  H16S21225   4.784   3.249   9.155 -0.5406  2.2957  5.1229
  185SAPI  C21721226   4.930   3.361   9.035 -0.1109 -1.2171 -0.1297
  185SAPI  H17R21227   4.946   3.281   8.960 -0.3994 -2.2302  0.8802
  185SAPI  H17S21228   5.014   3.345   9.105 -1.4062 -0.7228  1.6012
  185SAPI  C21821229   4.938   3.492   8.966  0.1153  0.3954  0.7130
  185SAPI  H18R21230   4.908   3.576   9.032 -0.3673  0.8771 -0.1096
  185SAPI  H18S21231   4.865   3.484   8.882  2.5983  1.1581 -1.5875
  185SAPI  C21921232   5.070   3.518   8.895 -0.2553  0.0640 -0.0434
  185SAPI  H19R21233   5.108   3.419   8.861  0.0732 -0.2136  1.1140
  185SAPI  H19S21234   5.149   3.548   8.968 -0.4254  0.6436 -0.0978
  185SAPI  C22021235   5.065   3.627   8.790 -0.5010 -0.3152  0.2659
  185SAPI  H20R21236   5.063   3.726   8.841 -1.6313 -0.3367  0.2659
  185SAPI  H20S21237   4.975   3.609   8.729 -1.1581  3.4822 -0.0308
  185SAPI  H20T21238   5.158   3.618   8.729 -2.6902 -1.8082 -2.9472
  185SAPI   C3321239   4.013   3.812  10.485 -0.1111  0.2554  0.2838
  185SAPI   H3X21240   4.046   3.896  10.419 -0.9213 -0.0124 -0.4718
  185SAPI   H3Y21241   3.957   3.868  10.562  2.8471  4.0499 -0.1885
  185SAPI   C3421242   3.943   3.698  10.402  0.0778 -0.2961 -0.4433
  185SAPI   H4X21243   3.887   3.634  10.473  0.3425  1.6327  1.5512
  185SAPI   H4Y21244   4.023   3.626  10.375 -0.8860 -2.0866  1.3522
  185SAPI   C3521245   3.870   3.752  10.279 -0.3944 -1.1721  0.0311
  185SAPI   H5X21246   3.951   3.803  10.222  0.4303 -1.1978  1.1624
  185SAPI   H5Y21247   3.790   3.821  10.314  1.1510  0.1063  1.1271
  185SAPI   C3621248   3.806   3.636  10.209  0.0560 -0.5849 -0.1113
  185SAPI   H6X21249   3.718   3.600  10.267  0.1011  0.6606  0.7536
  185SAPI   H6Y21250   3.867   3.547  10.186 -1.5359 -1.6294 -0.3180
  185SAPI   C3721251   3.756   3.672  10.064 -1.1857 -0.0496 -0.0150
  185SAPI   H7X21252   3.671   3.744  10.065 -1.6356 -0.5988  1.6583
  185SAPI   H7Y21253   3.708   3.580  10.025  0.3067 -0.0843 -1.8350
  185SAPI   C3821254   3.862   3.715   9.967  0.3529 -0.1839 -0.2275
  185SAPI   H8X21255   3.936   3.633   9.966  0.6630  0.0626  0.9918
  185SAPI   H8Y21256   3.921   3.806   9.992  0.5354 -0.3644  0.0025
  185SAPI   C3921257   3.795   3.740   9.834 -0.5400 -0.1689 -0.1047
  185SAPI   H9X21258   3.707   3.808   9.838  0.2956  0.8685  1.2214
  185SAPI   H9Y21259   3.744   3.649   9.796 -2.1014  0.5671  0.1815
  185SAPI  C31021260   3.896   3.794   9.730  0.2615  0.1017  0.0905
  185SAPI  H10X21261   3.987   3.733   9.747 -0.0391 -0.4595 -0.3023
  185SAPI  H10Y21262   3.919   3.897   9.764  0.9592  1.0385 -2.9996
  185SAPI  C31121263   3.840   3.784   9.588 -0.1776 -1.0222  0.0189
  185SAPI  H11X21264   3.767   3.863   9.563  1.5385 -0.4296 -3.4268
  185SAPI  H11Y21265   3.793   3.684   9.578 -1.5990 -0.3723  0.1504
  185SAPI  C31221266   3.952   3.800   9.483 -0.2123 -0.0858  0.4230
  185SAPI  H12X21267   3.955   3.704   9.427  0.0272 -0.1794  0.5958
  185SAPI  H12Y21268   4.056   3.808   9.521  0.4041 -0.7203 -1.1267
  185SAPI  C31321269   3.917   3.908   9.371  0.6275  0.4414  0.3037
  185SAPI  H13X21270   3.946   4.010   9.404  0.0283  1.1713 -1.3652
  185SAPI  H13Y21271   3.813   3.893   9.336  1.2916 -0.5707 -1.3216
  185SAPI  C31421272   4.003   3.890   9.246  0.2046 -0.3975 -0.0667
  185SAPI  H14X21273   3.963   3.795   9.204 -1.1938  0.3832 -0.5514
  185SAPI  H14Y21274   4.110   3.877   9.272  1.1009 -0.1176 -3.4236
  185SAPI  C31521275   3.991   4.005   9.149 -0.5662 -0.4973  0.4613
  185SAPI  H15X21276   4.087   4.015   9.095 -0.0900  0.7310  1.5103
  185SAPI  H15Y21277   3.990   4.097   9.212  1.7536  0.8702 -1.4117
  185SAPI  C31621278   3.885   3.985   9.028  0.0188  0.0054 -0.2105
  185SAPI  H16X21279   3.787   3.980   9.081  0.1077 -0.7537 -0.1116
  185SAPI  H16Y21280   3.904   3.886   8.983  1.8432  0.6885 -0.9580
  185SAPI  C31721281   3.882   4.089   8.913  0.0686 -0.2881 -0.4393
  185SAPI  H17X21282   3.857   4.186   8.962 -1.3657 -0.4843 -0.7396
  185SAPI  H17Y21283   3.802   4.063   8.840 -1.1065 -1.0397  1.0697
  185SAPI  C31821284   4.013   4.112   8.837 -0.0539 -0.4941  0.7990
  185SAPI  H18X21285   4.101   4.110   8.905 -0.1184  1.0671  0.9537
  185SAPI  H18Y21286   4.014   4.211   8.786  1.2234 -0.0939  1.5866
  185SAPI  H18Z21287   4.020   4.047   8.748 -0.3977  0.4401  0.0851
  186SAPI   C1221288   4.527   2.318  10.600 -0.5870  0.3762 -0.2548
  186SAPI    H221289   4.440   2.290  10.537 -0.3918  0.3199 -0.4992
  186SAPI    O221290   4.651   2.283  10.540 -0.3158 -0.8249  0.0370
  186SAPI   HO221291   4.656   2.188  10.529  1.0388 -0.4364 -3.4132
  186SAPI   C1321292   4.528   2.464  10.634 -0.6279 -0.1046 -0.2084
  186SAPI    H321293   4.432   2.484  10.685 -1.4885  0.7070 -2.1041
  186SAPI    O321294   4.536   2.540  10.513 -0.3341 -0.7760 -0.2797
  186SAPI   HO321295   4.591   2.480  10.461 -0.4833 -0.5804 -0.6544
  186SAPI   C1421296   4.639   2.490  10.729 -0.2521  0.0928 -0.5282
  186SAPI    H421297   4.735   2.463  10.680 -1.0558  1.9569 -3.2185
  186SAPI    O421298   4.645   2.634  10.750 -0.3200 -0.1238 -0.1382
  186SAPI   HO421299   4.629   2.669  10.662 -1.0069 -0.4755 -0.1512
  186SAPI   C1521300   4.618   2.407  10.858 -0.3852 -0.2427  0.6483
  186SAPI    H521301   4.524   2.438  10.908 -0.0727  1.6037  0.1116
  186SAPI    O521302   4.716   2.438  10.965  0.4456  0.1900  0.2372
  186SAPI   HO521303   4.667   2.478  11.037 -0.1519 -0.8513  0.4157
  186SAPI   C1621304   4.614   2.264  10.835 -0.3811  0.0571 -0.2136
  186SAPI    H621305   4.714   2.237  10.796  0.4978  2.2732  0.4473
  186SAPI    O621306   4.587   2.189  10.953  0.1938  0.0799  0.4003
  186SAPI   HO621307   4.670   2.150  10.983  1.8219  3.0836 -0.0139
  186SAPI   C1121308   4.511   2.232  10.726  0.4089  0.0576 -0.7891
  186SAPI    H121309   4.411   2.250  10.770  0.3335 -2.0593 -0.0201
  186SAPI     P21310   4.399   1.998  10.697 -0.4828  0.1993  0.2918
  186SAPI   O1321311   4.334   2.001  10.828 -0.0603 -0.5047  0.4662
  186SAPI   O1421312   4.445   1.861  10.646  0.0284 -0.2481  0.2958
  186SAPI   O1221313   4.523   2.091  10.687 -0.2008  0.5285 -0.3300
  186SAPI   O1121314   4.295   2.048  10.580 -1.4385  0.6599  0.3821
  186SAPI    C121315   4.277   1.975  10.455 -0.2865  0.0309 -0.1841
  186SAPI    HA21316   4.273   1.866  10.479 -1.5861  0.1009 -0.0289
  186SAPI    HB21317   4.186   2.014  10.405  0.3776 -2.1622 -3.2337
  186SAPI    C221318   4.389   2.004  10.351  0.1272 -0.0269  0.3969
  186SAPI    HS21319   4.494   1.979  10.378 -0.5552 -2.4163  0.9538
  186SAPI   O2121320   4.394   2.148  10.324 -0.1099  0.1150  0.5548
  186SAPI   C2121321   4.496   2.203  10.274  0.8137  0.2271 -0.3984
  186SAPI   O2221322   4.605   2.149  10.258  0.3771 -0.1498 -0.1656
  186SAPI   C2221323   4.460   2.351  10.227  0.4793 -0.6869 -0.2128
  186SAPI   H2R21324   4.384   2.384  10.301  1.9157  4.7932 -0.9260
  186SAPI   H2S21325   4.557   2.401  10.250 -0.5281  1.4809 -0.5778
  186SAPI    C321326   4.362   1.918  10.223 -0.6792  0.0819  0.6909
  186SAPI    HX21327   4.260   1.938  10.185 -0.3958 -1.1305 -0.7328
  186SAPI    HY21328   4.351   1.814  10.259 -0.7968  0.6702  2.4050
  186SAPI   O3121329   4.454   1.932  10.113 -0.0190  0.0897  0.7043
  186SAPI   C3121330   4.576   1.875  10.141  0.5160  0.0414  0.2469
  186SAPI   O3221331   4.605   1.810  10.244  0.0723 -0.7670 -0.2732
  186SAPI   C3221332   4.672   1.903  10.022  0.0809  0.1787 -0.3189
  186SAPI   H2X21333   4.695   2.011  10.033  0.8559 -0.1155  0.9646
  186SAPI   H2Y21334   4.617   1.886   9.927  1.5741 -0.0117 -1.1576
  186SAPI   C2321335   4.416   2.364  10.076  0.4271  0.0166 -0.6487
  186SAPI   H3R21336   4.392   2.472  10.064 -0.5659  0.0247  1.2187
  186SAPI   H3S21337   4.329   2.301  10.046  0.1020  0.0514  0.2144
  186SAPI   C2421338   4.539   2.335   9.980  0.0258  0.1902 -0.5062
  186SAPI   H4R21339   4.553   2.225   9.972 -1.8151 -0.0055 -1.2145
  186SAPI   H4S21340   4.641   2.369  10.009 -0.2045 -0.4093  1.1133
  186SAPI   C2521341   4.522   2.395   9.842  0.1323  0.1655 -0.6973
  186SAPI   H5R21342   4.528   2.504   9.829  1.4590  0.0880 -0.7331
  186SAPI   C2621343   4.519   2.328   9.723 -0.3523 -0.0478  0.6010
  186SAPI   H6R21344   4.502   2.393   9.637  2.2937 -1.3850 -1.0267
  186SAPI   C2721345   4.518   2.182   9.696 -0.5092 -0.6087 -0.7998
  186SAPI   H7R21346   4.414   2.144   9.703 -0.6374 -0.4481 -1.7871
  186SAPI   H7S21347   4.570   2.120   9.772 -2.1167 -0.8118  0.1604
  186SAPI   C2821348   4.577   2.150   9.560 -0.0203 -0.5071 -0.6257
  186SAPI   H8R21349   4.662   2.081   9.568  1.0711  0.8330 -0.4357
  186SAPI   C2921350   4.541   2.187   9.433 -0.6725  0.7066  0.9555
  186SAPI   H9R21351   4.580   2.128   9.348  1.3315  1.4745  1.3328
  186SAPI  C21021352   4.418   2.272   9.391 -0.4184  0.0058 -0.2347
  186SAPI  H10R21353   4.358   2.299   9.481 -2.0145 -0.9484 -0.9887
  186SAPI  H10S21354   4.352   2.217   9.320 -1.3386  3.9981 -2.6523
  186SAPI  C21121355   4.452   2.412   9.338 -0.2927  0.1907  0.4360
  186SAPI  H11R21356   4.448   2.496   9.409  1.8796 -0.6466  1.5916
  186SAPI  C21221357   4.497   2.436   9.211 -0.3485  0.0327  0.6411
  186SAPI  H12R21358   4.519   2.536   9.171  1.1417 -0.8891 -0.9144
  186SAPI  C21321359   4.510   2.330   9.101  0.0554  0.1733  0.0732
  186SAPI  H13R21360   4.504   2.226   9.139  0.4047  0.7819  1.8257
  186SAPI  H13S21361   4.613   2.332   9.057 -0.5070 -1.6437 -1.4114
  186SAPI  C21421362   4.395   2.351   9.003 -0.4201  0.0383 -0.2164
  186SAPI  H14R21363   4.294   2.341   9.045 -0.3066  0.0443  0.0594
  186SAPI  C21521364   4.413   2.348   8.864  0.0164  0.2208 -0.4762
  186SAPI  H15R21365   4.327   2.348   8.795 -0.3226 -1.7495 -0.0609
  186SAPI  C21621366   4.543   2.336   8.792  0.4133 -0.0938 -0.8995
  186SAPI  H16R21367   4.569   2.228   8.792  0.9296  0.0310 -1.0153
  186SAPI  H16S21368   4.619   2.385   8.856 -0.5350 -0.0646  0.2205
  186SAPI  C21721369   4.552   2.366   8.643 -0.3088 -0.4524 -0.2644
  186SAPI  H17R21370   4.465   2.337   8.580 -1.5426  0.9455  0.7407
  186SAPI  H17S21371   4.644   2.312   8.611  0.0372 -0.3441  0.5454
  186SAPI  C21821372   4.570   2.517   8.624 -0.2248  0.6688  0.0558
  186SAPI  H18R21373   4.643   2.564   8.694 -0.8225  0.2894  0.9455
  186SAPI  H18S21374   4.476   2.565   8.658  0.4632  1.3457  1.0439
  186SAPI  C21921375   4.604   2.561   8.488 -0.9254  0.1052  0.3115
  186SAPI  H19R21376   4.551   2.486   8.425 -0.8785  0.4322 -0.1152
  186SAPI  H19S21377   4.714   2.555   8.480 -0.5752  2.8120  2.1367
  186SAPI  C22021378   4.541   2.694   8.458  0.6199  0.2140  0.4559
  186SAPI  H20R21379   4.553   2.733   8.355  1.2814 -0.4061  0.2942
  186SAPI  H20S21380   4.571   2.771   8.533 -0.7983 -0.9919  2.3222
  186SAPI  H20T21381   4.432   2.685   8.478  0.8798  1.2268  2.4940
  186SAPI   C3321382   4.801   1.814  10.032  0.1770 -0.4643  0.6214
  186SAPI   H3X21383   4.761   1.711  10.044 -1.0021  0.2123  2.8200
  186SAPI   H3Y21384   4.856   1.844  10.124 -0.8110 -2.9849  2.0974
  186SAPI   C3421385   4.882   1.830   9.905 -0.3157  0.6630 -0.7535
  186SAPI   H4X21386   4.985   1.801   9.934  0.5120  4.2980  0.1956
  186SAPI   H4Y21387   4.884   1.938   9.878 -0.2402  0.6722 -0.7122
  186SAPI   C3521388   4.832   1.764   9.783 -0.0258  0.3543 -0.0396
  186SAPI   H5X21389   4.730   1.799   9.755 -0.2262  1.2122  1.6946
  186SAPI   H5Y21390   4.819   1.657   9.808  0.0996  0.6924  1.5439
  186SAPI   C3621391   4.934   1.791   9.679  0.5547 -0.2688  0.4165
  186SAPI   H6X21392   5.033   1.746   9.701 -0.0616 -2.2791 -0.7979
  186SAPI   H6Y21393   4.952   1.901   9.683 -1.6687  0.1978 -1.0949
  186SAPI   C3721394   4.881   1.740   9.547 -0.2078  0.8592  0.4881
  186SAPI   H7X21395   4.830   1.641   9.549 -0.6350  1.0942  1.8627
  186SAPI   H7Y21396   4.970   1.726   9.482 -0.7214  0.5293 -0.1508
  186SAPI   C3821397   4.783   1.833   9.475 -0.0640 -0.1709  0.2306
  186SAPI   H8X21398   4.820   1.935   9.498  2.8759 -1.1075 -0.1198
  186SAPI   H8Y21399   4.683   1.834   9.523 -0.5234  0.6126 -0.7204
  186SAPI   C3921400   4.756   1.820   9.318  0.5577 -0.0448 -0.5450
  186SAPI   H9X21401   4.666   1.879   9.292 -1.2750 -0.7219  3.8014
  186SAPI   H9Y21402   4.729   1.714   9.302 -0.6951  0.7315 -4.1690
  186SAPI  C31021403   4.872   1.862   9.226 -0.4046 -0.4974 -0.3897
  186SAPI  H10X21404   4.958   1.795   9.244  0.5785  0.8621  0.0465
  186SAPI  H10Y21405   4.918   1.961   9.245 -1.3698 -0.1467  0.1589
  186SAPI  C31121406   4.833   1.842   9.088  0.4064  0.4302  0.0043
  186SAPI  H11X21407   4.730   1.878   9.069  1.5395  2.5808 -2.2881
  186SAPI  H11Y21408   4.837   1.735   9.055  0.6570  0.0302  1.3123
  186SAPI  C31221409   4.920   1.912   8.994 -0.3315  0.2989  0.0596
  186SAPI  H12X21410   5.023   1.871   9.005 -0.2386  0.4809 -0.1121
  186SAPI  H12Y21411   4.924   2.020   9.023  0.9787  0.2267  0.1880
  186SAPI  C31321412   4.893   1.896   8.841 -0.6524  0.4305  0.2586
  186SAPI  H13X21413   4.791   1.934   8.821  0.4263  2.4636 -1.6041
  186SAPI  H13Y21414   4.891   1.788   8.814 -1.6813  0.3179  0.7883
  186SAPI  C31421415   4.992   1.964   8.745 -0.2395 -0.6665 -0.1279
  186SAPI  H14X21416   5.089   1.912   8.729  0.6141  1.0462 -0.5850
  186SAPI  H14Y21417   5.002   2.067   8.786 -1.2556 -0.0793 -1.3260
  186SAPI  C31521418   4.921   1.988   8.612  0.1528  0.7745 -0.1140
  186SAPI  H15X21419   4.829   2.049   8.624 -1.0390 -1.0800  0.2083
  186SAPI  H15Y21420   4.890   1.887   8.579  1.1683 -0.1099  1.5447
  186SAPI  C31621421   5.013   2.048   8.506  0.7024 -0.7183 -0.4147
  186SAPI  H16X21422   5.085   1.969   8.476  0.9885  0.1427 -1.9868
  186SAPI  H16Y21423   5.060   2.135   8.556 -0.0974 -0.3611 -0.2634
  186SAPI  C31721424   4.936   2.101   8.381 -0.4643  0.0743 -0.6518
  186SAPI  H17X21425   4.855   2.028   8.358 -1.8458  0.8445  1.6230
  186SAPI  H17Y21426   4.999   2.110   8.290  2.8884 -1.0051  1.4706
  186SAPI  C31821427   4.884   2.241   8.409  0.8633  0.0209  0.7754
  186SAPI  H18X21428   4.807   2.233   8.489 -0.2289 -2.4365 -0.4489
  186SAPI  H18Y21429   4.844   2.294   8.320  0.5994 -0.3780  0.6559
  186SAPI  H18Z21430   4.965   2.303   8.452  2.0624 -1.6514  0.9803
  187SAPI   C1221431   1.032   2.322   6.358  0.1414 -0.0960 -0.0472
  187SAPI    H221432   0.982   2.361   6.450 -0.1666 -3.1756  1.1457
  187SAPI    O221433   1.144   2.402   6.320  0.1696  0.9501  0.4111
  187SAPI   HO221434   1.103   2.464   6.259 -2.4638  0.1481  1.2671
  187SAPI   C1321435   1.073   2.178   6.376 -0.2734  0.1901  0.0952
  187SAPI    H321436   0.983   2.117   6.398  0.8428 -0.9291  1.6925
  187SAPI    O321437   1.148   2.153   6.494 -0.3514  0.7055 -0.2133
  187SAPI   HO321438   1.235   2.188   6.472  1.1902 -1.9757  1.3790
  187SAPI   C1421439   1.120   2.116   6.238  0.0743  0.2355 -0.1281
  187SAPI    H421440   1.210   2.171   6.203 -0.2139  1.1660  0.5980
  187SAPI    O421441   1.160   1.978   6.265  0.4098 -0.2072  0.7408
  187SAPI   HO421442   1.211   1.965   6.345  3.1942 -1.6196 -1.1676
  187SAPI   C1521443   1.009   2.136   6.133 -0.3913  0.5091 -0.0762
  187SAPI    H521444   0.921   2.077   6.163 -0.2364  0.3958  0.1512
  187SAPI    O521445   1.065   2.082   6.011 -0.4794 -0.2272 -0.5513
  187SAPI   HO521446   1.007   2.014   5.976  0.1829 -0.6181 -0.8843
  187SAPI   C1621447   0.963   2.280   6.111 -0.4298 -0.3906  1.1638
  187SAPI    H621448   1.043   2.335   6.057 -1.3362 -0.2860 -0.1159
  187SAPI    O621449   0.854   2.277   6.017 -0.0497  0.0833  0.4747
  187SAPI   HO621450   0.776   2.299   6.068 -0.5794 -3.4441  1.2964
  187SAPI   C1121451   0.923   2.336   6.245 -0.0473 -0.3434  0.1578
  187SAPI    H121452   0.829   2.295   6.288 -1.1347  1.4061 -0.4763
  187SAPI     P21453   0.781   2.569   6.306  0.3088  0.5293  0.4366
  187SAPI   O1321454   0.659   2.490   6.329  0.1478 -0.6528 -0.1357
  187SAPI   O1421455   0.779   2.702   6.232 -0.3244  0.4300 -0.4746
  187SAPI   O1221456   0.889   2.471   6.224  0.5681 -0.0160  0.4019
  187SAPI   O1121457   0.859   2.593   6.445 -0.4881 -0.2014 -0.1514
  187SAPI    C121458   0.821   2.695   6.532 -0.2499  0.1518  0.3020
  187SAPI    HA21459   0.910   2.759   6.551  0.7676 -0.6668 -1.5305
  187SAPI    HB21460   0.739   2.758   6.490 -0.3632 -0.5781 -0.5945
  187SAPI    C221461   0.772   2.654   6.678  0.5883 -0.2427  0.3459
  187SAPI    HS21462   0.700   2.728   6.719 -1.1242 -2.1323  0.7797
  187SAPI   O2121463   0.880   2.646   6.780 -0.2504 -0.1987 -0.4175
  187SAPI   C2121464   0.916   2.765   6.829 -0.4730 -0.1885 -0.3620
  187SAPI   O2221465   0.872   2.873   6.792  0.0059 -0.8831  0.5344
  187SAPI   C2221466   1.004   2.735   6.950 -0.5011 -0.2724  0.7803
  187SAPI   H2R21467   0.943   2.667   7.015  0.2859  0.3435  2.1825
  187SAPI   H2S21468   1.090   2.673   6.918 -0.4506 -0.8994  2.0830
  187SAPI    C321469   0.685   2.523   6.673  0.7768 -0.2118  0.4086
  187SAPI    HX21470   0.741   2.445   6.617 -1.9535 -2.6263  0.8993
  187SAPI    HY21471   0.592   2.538   6.615  1.4625  1.8948 -0.1969
  187SAPI   O3121472   0.660   2.470   6.805  0.1399  0.2772  0.1249
  187SAPI   C3121473   0.548   2.503   6.873  0.1064  0.3828  0.2033
  187SAPI   O3221474   0.472   2.593   6.838 -0.3165  0.3870  0.0202
  187SAPI   C3221475   0.528   2.413   6.993  0.1407 -1.0660  0.2561
  187SAPI   H2X21476   0.613   2.342   6.990 -0.3256 -1.6009 -0.4175
  187SAPI   H2Y21477   0.432   2.362   6.972 -0.4522  0.5600 -1.0825
  187SAPI   C2321478   1.052   2.858   7.024 -0.3548  0.4582 -1.0999
  187SAPI   H3R21479   1.082   2.933   6.947  1.5059  0.3581 -0.4983
  187SAPI   H3S21480   1.135   2.840   7.095 -3.0280  1.1018  2.2962
  187SAPI   C2421481   0.943   2.944   7.101  0.3146 -0.3310 -0.6058
  187SAPI   H4R21482   0.863   2.985   7.035 -0.0293 -0.6895 -0.4195
  187SAPI   H4S21483   0.993   3.039   7.127 -1.9522  0.9861 -0.9040
  187SAPI   C2521484   0.874   2.866   7.211  0.3534  0.0445 -0.4387
  187SAPI   H5R21485   0.794   2.806   7.165 -0.3775  0.1115  0.7317
  187SAPI   C2621486   0.910   2.858   7.342  0.0868  0.4467  0.8721
  187SAPI   H6R21487   0.873   2.779   7.410 -1.2738 -1.5315 -2.0489
  187SAPI   C2721488   1.025   2.938   7.400  0.7702  0.1757  0.2395
  187SAPI   H7R21489   1.109   2.938   7.327  0.6143  0.6350  0.0644
  187SAPI   H7S21490   1.067   2.888   7.491  0.9956 -1.3221 -0.6712
  187SAPI   C2821491   0.979   3.075   7.443 -0.0663  0.4410  0.0978
  187SAPI   H8R21492   0.913   3.120   7.366  0.1879 -0.5734 -0.7236
  187SAPI   C2921493   1.000   3.136   7.554  0.3687 -0.7752  0.4963
  187SAPI   H9R21494   0.974   3.241   7.574 -0.7790 -1.1524  1.0480
  187SAPI  C21021495   1.080   3.085   7.671 -0.1114 -0.7468  0.6483
  187SAPI  H10R21496   1.132   2.991   7.640  0.4909 -0.3338  0.4103
  187SAPI  H10S21497   1.006   3.058   7.749 -0.7390 -1.0035 -0.0222
  187SAPI  C21121498   1.186   3.184   7.727  0.7250 -0.7045 -0.1558
  187SAPI  H11R21499   1.268   3.226   7.667 -0.2849  1.4426 -0.0672
  187SAPI  C21221500   1.202   3.213   7.860 -0.0039  0.1960  0.8262
  187SAPI  H12R21501   1.291   3.275   7.880 -0.3323  1.6249 -1.7730
  187SAPI  C21321502   1.113   3.157   7.972 -0.6238 -0.0233  0.1291
  187SAPI  H13R21503   1.176   3.151   8.063  1.1643  0.0356 -1.0832
  187SAPI  H13S21504   1.081   3.052   7.953  0.7914 -0.4057 -0.2163
  187SAPI  C21421505   1.004   3.257   8.005 -0.2558 -0.2501  0.2285
  187SAPI  H14R21506   0.919   3.244   7.937 -0.2147 -0.7681  0.2717
  187SAPI  C21521507   0.992   3.339   8.109  0.1973  0.0092  1.2813
  187SAPI  H15R21508   0.895   3.390   8.116  0.8406  1.3666  0.5740
  187SAPI  C21621509   1.100   3.375   8.211 -0.3475 -0.7384 -1.0565
  187SAPI  H16R21510   1.145   3.283   8.254 -0.7209  0.1663  1.3140
  187SAPI  H16S21511   1.054   3.427   8.297 -0.6793 -1.8157 -0.5653
  187SAPI  C21721512   1.210   3.476   8.148  0.3243  0.5320 -0.1626
  187SAPI  H17R21513   1.169   3.564   8.094  0.5973  1.2600  0.8143
  187SAPI  H17S21514   1.273   3.426   8.071  0.7105 -1.1168  1.2127
  187SAPI  C21821515   1.308   3.535   8.256 -0.2520 -0.0162 -0.5181
  187SAPI  H18R21516   1.249   3.582   8.338 -0.1084  1.1179 -1.0468
  187SAPI  H18S21517   1.360   3.616   8.202  1.6143  1.2072  2.9628
  187SAPI  C21921518   1.412   3.453   8.318  0.2661  0.3189  0.4637
  187SAPI  H19R21519   1.494   3.417   8.252  0.3013 -1.8157  1.6174
  187SAPI  H19S21520   1.367   3.362   8.363  0.6053  0.3276  0.8305
  187SAPI  C22021521   1.495   3.521   8.426  0.5705  0.2542 -0.2976
  187SAPI  H20R21522   1.539   3.617   8.391  0.0105  0.1694 -1.2399
  187SAPI  H20S21523   1.579   3.456   8.459 -0.6237 -3.1473 -3.5970
  187SAPI  H20T21524   1.429   3.545   8.512  0.9783 -1.2387  0.4518
  187SAPI   C3321525   0.500   2.487   7.129 -0.1735 -0.3543 -0.3195
  187SAPI   H3X21526   0.460   2.418   7.207 -3.1132  1.9517  0.3155
  187SAPI   H3Y21527   0.425   2.566   7.104 -1.0981 -0.7356  1.1683
  187SAPI   C3421528   0.620   2.550   7.191 -0.6169  0.4991  0.0550
  187SAPI   H4X21529   0.674   2.599   7.107  0.8190 -2.2230 -0.6349
  187SAPI   H4Y21530   0.695   2.470   7.206 -0.2524  0.6240 -1.0320
  187SAPI   C3521531   0.618   2.634   7.325 -0.0382 -0.0063 -0.0560
  187SAPI   H5X21532   0.722   2.669   7.341  0.1487  0.4649 -2.1395
  187SAPI   H5Y21533   0.582   2.574   7.412  0.5687 -0.7974 -0.3430
  187SAPI   C3621534   0.508   2.743   7.318  0.0515 -0.3092 -0.6798
  187SAPI   H6X21535   0.409   2.700   7.292 -1.1897  2.5477 -0.8506
  187SAPI   H6Y21536   0.526   2.814   7.234  0.5790  2.0581  1.3899
  187SAPI   C3721537   0.496   2.830   7.444 -0.2108 -0.0042 -0.9308
  187SAPI   H7X21538   0.450   2.760   7.517 -0.2245  0.6817 -0.2758
  187SAPI   H7Y21539   0.426   2.913   7.420 -0.8144 -0.8117 -1.9880
  187SAPI   C3821540   0.618   2.896   7.506 -0.5708 -0.1819 -0.3588
  187SAPI   H8X21541   0.651   2.966   7.426  2.2047 -1.0542 -0.0489
  187SAPI   H8Y21542   0.702   2.823   7.515 -0.8064 -0.3641  0.3443
  187SAPI   C3921543   0.577   2.947   7.648 -0.5241  0.6832 -0.2266
  187SAPI   H9X21544   0.582   2.858   7.713 -0.6042  0.9263  0.1161
  187SAPI   H9Y21545   0.473   2.985   7.639 -0.7135  0.5650  1.2906
  187SAPI  C31021546   0.674   3.052   7.699 -0.4228 -0.3509 -0.6461
  187SAPI  H10X21547   0.659   3.136   7.628  0.1648  0.5447  0.2738
  187SAPI  H10Y21548   0.782   3.025   7.693  0.0503  0.4642  2.9029
  187SAPI  C31121549   0.651   3.102   7.844 -0.6193 -0.1011 -0.0694
  187SAPI  H11X21550   0.544   3.128   7.853 -0.9038 -0.8930 -1.0290
  187SAPI  H11Y21551   0.704   3.200   7.848 -0.8186 -0.0698  3.0371
  187SAPI  C31221552   0.710   3.013   7.956 -0.0361  0.1342  0.4294
  187SAPI  H12X21553   0.818   2.998   7.932 -0.2237  0.4981 -0.6759
  187SAPI  H12Y21554   0.681   2.907   7.940  1.7689  0.0367 -2.7534
  187SAPI  C31321555   0.682   3.075   8.087 -0.4500 -0.2080  0.0885
  187SAPI  H13X21556   0.575   3.098   8.106 -0.9362 -1.2953 -1.3252
  187SAPI  H13Y21557   0.733   3.174   8.093  0.1482 -0.5331  0.3486
  187SAPI  C31421558   0.737   2.999   8.207  0.8287  0.5836 -0.0243
  187SAPI  H14X21559   0.846   3.016   8.215  0.8375 -0.0222  1.1840
  187SAPI  H14Y21560   0.715   2.891   8.191 -0.3209  0.7285  0.5281
  187SAPI  C31521561   0.688   3.037   8.345 -0.3449  0.0147 -0.5991
  187SAPI  H15X21562   0.578   3.053   8.346 -1.2082 -5.0069 -1.8162
  187SAPI  H15Y21563   0.737   3.133   8.371 -0.7629 -0.1408  0.8121
  187SAPI  C31621564   0.726   2.926   8.451  0.0611 -0.2474 -0.0522
  187SAPI  H16X21565   0.837   2.917   8.444  0.0953 -0.0499  0.2474
  187SAPI  H16Y21566   0.678   2.834   8.410 -1.0079 -0.2287  1.1282
  187SAPI  C31721567   0.679   2.954   8.590 -0.1476 -0.3879 -0.1604
  187SAPI  H17X21568   0.733   3.041   8.631 -1.4414 -0.4619  1.7711
  187SAPI  H17Y21569   0.697   2.858   8.643  2.1193 -0.0329 -0.2567
  187SAPI  C31821570   0.536   2.979   8.602  0.1708  0.1959 -0.0040
  187SAPI  H18X21571   0.477   2.904   8.545 -0.3708  0.5345  0.1065
  187SAPI  H18Y21572   0.507   3.080   8.566 -2.7772 -0.0016  1.6509
  187SAPI  H18Z21573   0.514   2.968   8.710  4.3736  0.1916  0.9283
  188SAPI   C1221574   1.671   6.348   6.556  0.4018 -0.1434 -1.0201
  188SAPI    H221575   1.661   6.280   6.644 -1.7075  1.2032 -0.1800
  188SAPI    O221576   1.543   6.382   6.515 -0.3104  0.5314 -0.6193
  188SAPI   HO221577   1.515   6.329   6.440  1.0272 -0.1597 -0.6484
  188SAPI   C1321578   1.743   6.468   6.610  0.1476 -0.6245 -0.3068
  188SAPI    H321579   1.831   6.436   6.669  0.5467  1.8362  0.4788
  188SAPI    O321580   1.673   6.532   6.718  0.1781  0.3614 -0.6209
  188SAPI   HO321581   1.583   6.544   6.685 -0.6289 -0.7539  1.1192
  188SAPI   C1421582   1.778   6.568   6.495 -0.2094  0.5479 -1.4098
  188SAPI    H421583   1.681   6.604   6.453 -0.1465  1.8647 -0.4733
  188SAPI    O421584   1.839   6.688   6.542 -0.2016 -0.8844  0.3715
  188SAPI   HO421585   1.768   6.751   6.552 -0.4585 -1.1860  0.4453
  188SAPI   C1521586   1.851   6.501   6.391 -0.1766 -0.1112 -0.5993
  188SAPI    H521587   1.949   6.464   6.429  0.7745 -0.1430 -3.0352
  188SAPI    O521588   1.886   6.596   6.292  0.4486  0.1806  0.3566
  188SAPI   HO521589   1.803   6.632   6.261 -0.5489 -0.4361  2.2220
  188SAPI   C1621590   1.781   6.381   6.333  0.3734  0.2293 -0.0954
  188SAPI    H621591   1.680   6.413   6.299  0.7160  1.2555 -0.1420
  188SAPI    O621592   1.854   6.327   6.226  0.2258  0.2137 -0.2015
  188SAPI   HO621593   1.789   6.275   6.179 -0.6983  1.3063 -0.1662
  188SAPI   C1121594   1.762   6.278   6.446  0.4138 -0.4668  0.1170
  188SAPI    H121595   1.865   6.270   6.486 -0.6278 -2.0403  2.5877
  188SAPI     P21596   1.726   6.008   6.459 -0.1062 -0.1735  0.0898
  188SAPI   O1321597   1.871   5.987   6.468 -0.0161  0.2175 -1.0502
  188SAPI   O1421598   1.650   5.913   6.382 -0.4439 -0.2279 -0.0322
  188SAPI   O1221599   1.691   6.161   6.407 -0.0966  0.6641  0.4097
  188SAPI   O1121600   1.668   6.025   6.601  0.1862 -0.0607 -0.1601
  188SAPI    C121601   1.529   6.023   6.628  0.1638 -0.2209 -0.2769
  188SAPI    HA21602   1.493   6.128   6.639  2.0383  0.3827  0.2400
  188SAPI    HB21603   1.474   5.980   6.542  0.6613 -0.3438 -0.5310
  188SAPI    C221604   1.506   5.939   6.759  0.4326 -0.9609 -0.0858
  188SAPI    HS21605   1.397   5.943   6.784 -0.0580  1.6377 -2.4703
  188SAPI   O2121606   1.572   5.999   6.874  0.3034 -0.7098 -0.4503
  188SAPI   C2121607   1.515   6.115   6.913  0.1768  0.5599 -0.1441
  188SAPI   O2221608   1.406   6.159   6.886  0.2118 -0.1041  0.3315
  188SAPI   C2221609   1.615   6.166   7.011  0.0254 -0.0235 -0.2537
  188SAPI   H2R21610   1.676   6.084   7.055 -0.6071  0.6832  2.0157
  188SAPI   H2S21611   1.697   6.214   6.954  2.7129 -0.8623  2.7866
  188SAPI    C321612   1.541   5.789   6.741  0.3158 -0.3535  0.1345
  188SAPI    HX21613   1.648   5.790   6.713  0.7759 -0.6810  1.8124
  188SAPI    HY21614   1.486   5.746   6.655  1.6190 -0.0040 -0.8763
  188SAPI   O3121615   1.516   5.702   6.854  0.1582  0.1370 -0.4611
  188SAPI   C3121616   1.613   5.684   6.932 -0.1045 -0.1611 -0.1581
  188SAPI   O3221617   1.721   5.733   6.931 -0.2491 -0.2168 -0.4176
  188SAPI   C3221618   1.568   5.561   7.021  0.1968  0.1321 -0.7804
  188SAPI   H2X21619   1.588   5.466   6.968  1.1482  0.1434 -0.4514
  188SAPI   H2Y21620   1.457   5.561   7.033  0.2985  0.6878  0.2188
  188SAPI   C2321621   1.556   6.270   7.103  0.3599 -0.7061  0.2329
  188SAPI   H3R21622   1.467   6.231   7.157 -0.1623  0.1497 -0.0009
  188SAPI   H3S21623   1.516   6.356   7.046  2.1748 -0.3474 -0.5377
  188SAPI   C2421624   1.663   6.326   7.193 -0.4549  0.0248 -0.0361
  188SAPI   H4R21625   1.613   6.403   7.254  2.1658  1.7871 -0.0526
  188SAPI   H4S21626   1.740   6.375   7.129 -0.0772  1.3213  1.3977
  188SAPI   C2521627   1.732   6.220   7.273 -0.5836 -0.8414  0.2619
  188SAPI   H5R21628   1.809   6.155   7.229  0.0985  0.1564 -0.0243
  188SAPI   C2621629   1.708   6.194   7.406  0.5016  0.3655  0.7249
  188SAPI   H6R21630   1.771   6.121   7.458 -0.9494 -2.7254 -1.7233
  188SAPI   C2721631   1.591   6.249   7.486  0.2623  0.1331  0.0151
  188SAPI   H7R21632   1.519   6.300   7.418  0.4693  1.1534  0.5551
  188SAPI   H7S21633   1.639   6.330   7.544 -1.5808  1.8745 -0.8439
  188SAPI   C2821634   1.521   6.152   7.578 -0.6014  0.3034  0.1937
  188SAPI   H8R21635   1.452   6.089   7.519  0.4148  0.5165 -1.2382
  188SAPI   C2921636   1.527   6.150   7.715  0.5644  0.9629 -0.1150
  188SAPI   H9R21637   1.467   6.079   7.774 -0.3677  0.9171 -1.1022
  188SAPI  C21021638   1.608   6.230   7.813  0.3538  0.0944  0.0806
  188SAPI  H10R21639   1.551   6.231   7.908 -0.9375 -0.3099 -0.6810
  188SAPI  H10S21640   1.605   6.338   7.790 -2.6195 -0.2190 -1.1881
  188SAPI  C21121641   1.752   6.179   7.816 -0.4107  0.3349 -0.5503
  188SAPI  H11R21642   1.795   6.169   7.715 -1.6285  0.1475 -1.0506
  188SAPI  C21221643   1.828   6.169   7.926  0.7511 -0.0340 -0.6579
  188SAPI  H12R21644   1.934   6.138   7.935 -0.1310 -2.9651  0.2882
  188SAPI  C21321645   1.785   6.206   8.066 -0.6042  0.2677 -0.8150
  188SAPI  H13R21646   1.686   6.255   8.060  0.0060  1.6873  0.2489
  188SAPI  H13S21647   1.851   6.286   8.106 -1.7756  0.3272  1.0301
  188SAPI  C21421648   1.779   6.090   8.165  0.0971  0.6839  0.5198
  188SAPI  H14R21649   1.803   5.992   8.122 -0.9613  0.4623  0.4375
  188SAPI  C21521650   1.766   6.086   8.297 -0.5222 -0.1463  0.6935
  188SAPI  H15R21651   1.771   5.985   8.341 -0.2238 -1.4699 -2.2625
  188SAPI  C21621652   1.747   6.199   8.395  0.1187 -0.6659  0.4480
  188SAPI  H16R21653   1.661   6.176   8.461 -0.1794  1.7664  0.9447
  188SAPI  H16S21654   1.707   6.284   8.335 -1.9223 -1.4953  0.5972
  188SAPI  C21721655   1.871   6.246   8.473 -0.5574  0.4240 -0.1957
  188SAPI  H17R21656   1.954   6.271   8.403  0.2609  0.2951  0.7149
  188SAPI  H17S21657   1.922   6.170   8.537 -0.7363 -0.0195 -0.5773
  188SAPI  C21821658   1.844   6.376   8.555 -0.1392 -0.0429  0.4497
  188SAPI  H18R21659   1.755   6.436   8.526 -0.2648 -0.8396 -0.8686
  188SAPI  H18S21660   1.931   6.445   8.550  1.7846 -2.3255  1.6931
  188SAPI  C21921661   1.823   6.348   8.701  0.2182 -0.3081 -0.1443
  188SAPI  H19R21662   1.909   6.301   8.754  1.9556  2.0887 -0.7752
  188SAPI  H19S21663   1.734   6.281   8.704 -0.4021  0.4019 -1.9578
  188SAPI  C22021664   1.814   6.478   8.790 -0.8698 -0.1436 -0.6563
  188SAPI  H20R21665   1.850   6.451   8.892  0.5223  1.7837 -0.6069
  188SAPI  H20S21666   1.714   6.526   8.777 -0.9890 -0.1124  0.3107
  188SAPI  H20T21667   1.880   6.558   8.749 -3.4710  2.2155 -0.3930
  188SAPI   C3321668   1.647   5.565   7.155 -0.0350  0.2732 -1.0612
  188SAPI   H3X21669   1.611   5.649   7.219  0.3011 -1.2897  1.2118
  188SAPI   H3Y21670   1.757   5.564   7.148 -0.0283 -1.3084 -0.8761
  188SAPI   C3421671   1.629   5.439   7.249 -0.1387  0.8865  0.2119
  188SAPI   H4X21672   1.637   5.355   7.177 -2.3838  0.2426  0.7128
  188SAPI   H4Y21673   1.526   5.427   7.286  0.4335  2.5532  2.4610
  188SAPI   C3521674   1.739   5.415   7.352  0.4692  0.2531 -0.9225
  188SAPI   H5X21675   1.730   5.497   7.427  0.8332  0.0001 -0.5974
  188SAPI   H5Y21676   1.832   5.431   7.295  2.1218  0.6605  1.7898
  188SAPI   C3621677   1.742   5.275   7.417 -0.0710  0.6210  0.7297
  188SAPI   H6X21678   1.845   5.266   7.458  0.8806  1.6002 -1.3951
  188SAPI   H6Y21679   1.738   5.197   7.338  1.1637  1.5147 -0.2512
  188SAPI   C3721680   1.639   5.241   7.530 -0.7303  1.3112  0.1291
  188SAPI   H7X21681   1.646   5.130   7.534 -1.3374  1.2849  0.7559
  188SAPI   H7Y21682   1.538   5.271   7.494  0.2476  1.0703 -2.9134
  188SAPI   C3821683   1.679   5.306   7.664 -0.0564 -0.4836 -0.2128
  188SAPI   H8X21684   1.683   5.416   7.657 -1.1626 -0.4413 -0.1739
  188SAPI   H8Y21685   1.780   5.268   7.693 -0.4623 -0.7206  0.9249
  188SAPI   C3921686   1.575   5.283   7.776 -0.5535  0.2462  0.7732
  188SAPI   H9X21687   1.524   5.185   7.760  2.7971 -1.2408 -1.2703
  188SAPI   H9Y21688   1.496   5.359   7.762 -0.6035  0.1401  0.4661
  188SAPI  C31021689   1.615   5.296   7.923 -0.4480  0.2638  0.5993
  188SAPI  H10X21690   1.653   5.398   7.946 -0.4757 -0.0291  1.9379
  188SAPI  H10Y21691   1.694   5.219   7.935 -0.5931 -0.4735 -2.5752
  188SAPI  C31121692   1.503   5.282   8.020  0.0487 -0.3543 -0.3409
  188SAPI  H11X21693   1.475   5.174   8.027 -0.1296 -0.1889  1.7102
  188SAPI  H11Y21694   1.428   5.353   7.980  2.4471  1.7657 -1.1372
  188SAPI  C31221695   1.546   5.320   8.162 -0.5346  0.3496  0.1339
  188SAPI  H12X21696   1.569   5.429   8.168 -0.6283  0.5637 -2.7640
  188SAPI  H12Y21697   1.636   5.256   8.176 -0.9643 -0.0419  1.1465
  188SAPI  C31321698   1.429   5.290   8.263 -0.0615 -0.7974  0.0701
  188SAPI  H13X21699   1.391   5.187   8.246  0.8853 -0.9946 -0.8922
  188SAPI  H13Y21700   1.344   5.359   8.245  0.5929 -0.3038 -1.1934
  188SAPI  C31421701   1.463   5.290   8.409  0.1148 -0.2696  0.0869
  188SAPI  H14X21702   1.379   5.318   8.476  0.5419  0.9092  0.1494
  188SAPI  H14Y21703   1.544   5.363   8.435 -1.4432  0.9544  1.6033
  188SAPI  C31521704   1.513   5.157   8.465 -0.1576 -0.0901 -0.3620
  188SAPI  H15X21705   1.592   5.111   8.402 -0.4807 -0.3191 -0.6082
  188SAPI  H15Y21706   1.428   5.086   8.474 -0.2441  0.4823  4.0420
  188SAPI  C31621707   1.576   5.166   8.611  0.8399 -0.3490 -0.5615
  188SAPI  H16X21708   1.498   5.192   8.685 -0.1488  0.2194 -1.7924
  188SAPI  H16Y21709   1.665   5.232   8.606  0.1948  0.5030 -0.8371
  188SAPI  C31721710   1.641   5.029   8.674  0.6391  0.1831  0.3477
  188SAPI  H17X21711   1.562   4.953   8.656  0.4452  0.6892 -0.9919
  188SAPI  H17Y21712   1.649   5.045   8.784 -3.3296  2.8064  0.3727
  188SAPI  C31821713   1.770   4.981   8.601 -0.7065  0.0404  0.4534
  188SAPI  H18X21714   1.754   4.966   8.492  1.6920  2.6897 -0.3209
  188SAPI  H18Y21715   1.815   4.889   8.644 -1.0147 -0.0028  0.6805
  188SAPI  H18Z21716   1.853   5.055   8.598  0.0092 -0.7406  0.4124
  189POPC     N21717   3.003   0.027  10.858 -0.3129  0.1953  0.2332
  189POPC   C1221718   3.028   0.157  10.931  0.0581  0.1988  0.9028
  189POPC  H12A21719   3.112   0.212  10.891 -0.0679 -0.4787 -0.3241
  189POPC  H12B21720   3.049   0.127  11.032  2.0714 -0.3494  0.3466
  189POPC   C1321721   3.124  -0.057  10.885  0.0681 -0.0785  0.6516
  189POPC  H13A21722   3.140  -0.067  10.991  3.1228  0.5075  0.2809
  189POPC  H13B21723   3.112  -0.156  10.842 -1.5850  0.6793 -0.7324
  189POPC  H13C21724   3.211  -0.011  10.841 -0.5481 -0.0623 -0.5863
  189POPC   C1421725   2.883  -0.041  10.912  0.2571 -0.1791  0.0618
  189POPC  H14A21726   2.786   0.005  10.911  0.3342  0.0420  1.9445
  189POPC  H14B21727   2.870  -0.143  10.878 -1.6063 -0.6449  2.0715
  189POPC  H14C21728   2.890  -0.061  11.018 -3.2694  1.3878  0.6350
  189POPC   C1521729   2.974   0.048  10.717 -0.1286  0.8156 -0.2289
  189POPC  H15A21730   3.063   0.091  10.673  2.8996 -3.1604  1.6632
  189POPC  H15B21731   2.889   0.114  10.706 -1.6805 -1.2058 -0.7391
  189POPC  H15C21732   2.959  -0.048  10.671  1.3282  1.7529 -2.7163
  189POPC   C1121733   2.904   0.257  10.948 -0.1758  0.0651 -0.2332
  189POPC  H11A21734   2.953   0.331  11.013 -0.0578  1.2393 -1.6383
  189POPC  H11B21735   2.828   0.193  11.000 -0.9515 -1.3993 -3.0567
  189POPC     P21736   2.740   0.423  10.845  0.1865  0.0331  0.0092
  189POPC   O1321737   2.799   0.533  10.928  0.4451  0.5381  0.0637
  189POPC   O1421738   2.622   0.353  10.895  0.0617  0.1415 -0.1144
  189POPC   O1221739   2.856   0.313  10.824  0.3006  0.0374 -0.5830
  189POPC   O1121740   2.723   0.475  10.696 -0.3297 -0.3058  0.4208
  189POPC    C121741   2.601   0.550  10.657  0.4609 -0.0246  0.1448
  189POPC    HA21742   2.579   0.635  10.725 -0.8224 -1.9802  2.2760
  189POPC    HB21743   2.518   0.477  10.654  0.7317 -0.3803  0.9946
  189POPC    C221744   2.625   0.605  10.511  0.0398 -0.6207  0.0234
  189POPC    HS21745   2.695   0.691  10.523  1.9732 -2.2281  0.6559
  189POPC   O2121746   2.507   0.625  10.442  0.3354 -0.1683 -0.1205
  189POPC   C2121747   2.466   0.747  10.440 -0.0684  0.4368  0.3596
  189POPC   O2221748   2.517   0.842  10.497 -0.2666  0.5562  0.1486
  189POPC   C2221749   2.344   0.762  10.343 -0.7153 -0.4730 -0.2780
  189POPC   H2R21750   2.321   0.870  10.335 -1.6993 -0.5845  0.9747
  189POPC   H2S21751   2.259   0.730  10.407 -1.5343  3.0586  0.4882
  189POPC    C321752   2.713   0.505  10.431 -0.4812 -0.3086  0.1984
  189POPC    HX21753   2.648   0.416  10.441 -1.2838  0.3538  0.9424
  189POPC    HY21754   2.815   0.483  10.469 -0.1291  0.7122 -0.1204
  189POPC   O3121755   2.726   0.539  10.291 -0.1847 -0.4722 -0.3330
  189POPC   C3121756   2.810   0.636  10.271  0.1576 -0.4421 -0.0902
  189POPC   O3221757   2.859   0.713  10.350  0.2322 -0.6151  0.2148
  189POPC   C3221758   2.831   0.646  10.116 -0.2339 -0.0038  0.5575
  189POPC   H2X21759   2.916   0.583  10.086  1.0322  1.9980 -0.1548
  189POPC   H2Y21760   2.850   0.754  10.096 -1.2355  0.1830  0.5729
  189POPC   C2321761   2.357   0.699  10.206  0.1574 -0.2276 -0.3237
  189POPC   H3R21762   2.376   0.589  10.212 -0.4687 -0.3142  0.1453
  189POPC   H3S21763   2.430   0.743  10.135 -0.2014  0.4213 -0.2920
  189POPC   C2421764   2.230   0.723  10.125  0.7405  0.7090  0.2372
  189POPC   H4R21765   2.216   0.832  10.114 -1.8596  0.4850  1.0489
  189POPC   H4S21766   2.143   0.679  10.178  1.7720 -0.4494  0.9929
  189POPC   C2521767   2.239   0.648   9.991 -0.0270  0.9513  0.7157
  189POPC   H5R21768   2.132   0.643   9.962 -0.4184 -0.7514  2.3494
  189POPC   H5S21769   2.281   0.545   9.996 -3.1418 -0.4457 -0.3464
  189POPC   C2621770   2.320   0.718   9.878 -1.2041  0.0077 -0.4640
  189POPC   H6R21771   2.418   0.768   9.894 -1.4832  0.1590  0.8880
  189POPC   H6S21772   2.265   0.812   9.858 -0.5953  0.7043  1.0646
  189POPC   C2721773   2.314   0.643   9.745 -0.9741  0.1188  0.1991
  189POPC   H7R21774   2.206   0.641   9.717 -1.2986  3.4080  1.0269
  189POPC   H7S21775   2.338   0.538   9.771  0.5317  0.8283  1.7415
  189POPC   C2821776   2.387   0.706   9.627  0.7840 -0.0213 -0.5636
  189POPC   H8R21777   2.496   0.720   9.645  0.4478  1.9157  0.0272
  189POPC   H8S21778   2.341   0.800   9.592  1.0325 -0.6756 -2.7127
  189POPC   C2921779   2.378   0.611   9.510  0.3328 -0.2815 -0.0268
  189POPC   H9121780   2.384   0.503   9.530 -0.0715  0.0141  1.7290
  189POPC  C21021781   2.382   0.650   9.378  0.2614  0.5273 -0.0649
  189POPC  H10121782   2.383   0.570   9.302 -1.1882 -0.0771  0.5293
  189POPC  C21121783   2.401   0.793   9.334 -0.6499  0.3746  0.4104
  189POPC  H11R21784   2.396   0.867   9.418  1.1949  0.4289  0.5009
  189POPC  H11S21785   2.312   0.816   9.271 -0.9986  0.5983  0.9829
  189POPC  C21221786   2.531   0.822   9.254  0.6135  0.2280 -0.5424
  189POPC  H12R21787   2.539   0.764   9.160  2.7921  2.8315 -2.0436
  189POPC  H12S21788   2.624   0.810   9.314  0.1081 -0.8721  0.0364
  189POPC  C21321789   2.515   0.967   9.199 -0.6532 -0.5738 -0.3090
  189POPC  H13R21790   2.523   1.039   9.283  3.8846  0.1184 -1.2135
  189POPC  H13S21791   2.411   0.969   9.158  0.2570 -0.8896 -2.7224
  189POPC  C21421792   2.609   1.008   9.082 -0.4992 -0.6496 -0.3727
  189POPC  H14R21793   2.605   0.923   9.010  1.5764 -0.1294 -1.1280
  189POPC  H14S21794   2.711   1.035   9.117 -0.3548 -1.5219 -0.1243
  189POPC  C21521795   2.556   1.133   9.014 -0.2874  0.1472  0.4175
  189POPC  H15R21796   2.536   1.201   9.099  0.0068 -0.9526  1.3738
  189POPC  H15S21797   2.462   1.127   8.955  0.6214  0.8342 -1.1584
  189POPC  C21621798   2.672   1.198   8.932  0.7316 -0.1197  0.6867
  189POPC  H16R21799   2.768   1.201   8.990  1.5873 -0.0586 -0.7167
  189POPC  H16S21800   2.640   1.301   8.907 -1.4682 -0.9905 -0.1345
  189POPC  C21721801   2.707   1.128   8.801 -0.1750 -0.0550  0.4250
  189POPC  H17R21802   2.731   1.022   8.824  3.0438 -0.1704 -2.9499
  189POPC  H17S21803   2.798   1.166   8.751  0.6202 -1.7483  0.5595
  189POPC  C21821804   2.592   1.118   8.702  0.7485  0.2321 -0.0349
  189POPC  H18R21805   2.598   1.033   8.630 -2.4901  1.4264 -1.8478
  189POPC  H18S21806   2.576   1.213   8.648 -0.9140  0.7664  1.3437
  189POPC  H18T21807   2.494   1.111   8.755  1.8161  2.9255  2.3677
  189POPC   C3321808   2.707   0.611  10.034 -0.6598  0.6495  0.2844
  189POPC   H3X21809   2.626   0.685  10.054 -0.0585  1.6769 -0.9646
  189POPC   H3Y21810   2.672   0.512  10.068  1.8822  0.2323  1.8180
  189POPC   C3421811   2.732   0.589   9.884 -0.1562 -0.2367 -0.2079
  189POPC   H4X21812   2.786   0.673   9.836 -0.0262 -1.2850 -1.9123
  189POPC   H4Y21813   2.640   0.586   9.823 -1.3021 -0.7377  1.4996
  189POPC   C3521814   2.794   0.451   9.865 -0.4287 -0.1879  0.4969
  189POPC   H5X21815   2.727   0.368   9.895 -0.9781  0.3702  0.8133
  189POPC   H5Y21816   2.880   0.441   9.934  1.3467 -0.1157 -1.6378
  189POPC   C3621817   2.842   0.420   9.722 -0.0374 -0.0019  0.0280
  189POPC   H6X21818   2.894   0.322   9.727  0.4171  0.0285 -3.3416
  189POPC   H6Y21819   2.914   0.495   9.682  0.5659 -1.3761 -1.4733
  189POPC   C3721820   2.722   0.417   9.626 -0.1119  0.6440 -0.1668
  189POPC   H7X21821   2.673   0.516   9.612  1.8614  1.6348 -0.2162
  189POPC   H7Y21822   2.648   0.335   9.639  0.8275 -0.6425 -2.5936
  189POPC   C3821823   2.762   0.391   9.477 -0.4320 -0.1719 -0.3736
  189POPC   H8X21824   2.826   0.300   9.469  0.8042  0.6251  0.4689
  189POPC   H8Y21825   2.823   0.482   9.462 -1.5935  0.2997 -2.5392
  189POPC   C3921826   2.650   0.386   9.374 -0.0225 -1.0541  0.1228
  189POPC   H9X21827   2.701   0.369   9.276 -2.9714 -0.9933 -1.4645
  189POPC   H9Y21828   2.587   0.476   9.352 -0.4230 -1.2822  0.3481
  189POPC  C31021829   2.550   0.269   9.372 -0.3541 -0.7059 -0.0418
  189POPC  H10X21830   2.476   0.297   9.450  0.1070 -0.6389  0.3805
  189POPC  H10Y21831   2.600   0.175   9.403 -1.6124 -1.0654  0.9164
  189POPC  C31121832   2.487   0.250   9.232 -0.0227  0.5476  0.1880
  189POPC  H11X21833   2.457   0.346   9.186  0.8077  0.2460 -0.9900
  189POPC  H11Y21834   2.394   0.189   9.237  0.7577 -0.5108  3.3529
  189POPC  C31221835   2.587   0.174   9.139  0.0081 -1.0806 -0.2220
  189POPC  H12X21836   2.593   0.069   9.175  3.2459 -0.8118  0.1620
  189POPC  H12Y21837   2.693   0.209   9.136 -1.0457  2.1563 -1.5926
  189POPC  C31321838   2.533   0.165   8.995  0.8244 -0.0103 -0.5761
  189POPC  H13X21839   2.504   0.263   8.951  2.8159  0.8406 -0.0721
  189POPC  H13Y21840   2.440   0.109   9.017  1.4775 -0.0278  2.2852
  189POPC  C31421841   2.629   0.090   8.899  0.4114  0.0660  0.4122
  189POPC  H14X21842   2.667  -0.000   8.950 -0.2255  0.4376  1.5488
  189POPC  H14Y21843   2.723   0.143   8.873  1.5678 -0.9943  2.3746
  189POPC  C31521844   2.568   0.054   8.763 -0.0852  0.1345  0.2592
  189POPC  H15X21845   2.533   0.139   8.701 -0.8699  1.0785  1.9593
  189POPC  H15Y21846   2.473  -0.003   8.773 -0.4146  0.2862 -1.8477
  189POPC  C31621847   2.662  -0.031   8.687 -0.3518  0.4241 -0.7470
  189POPC  H16X21848   2.760   0.018   8.671  0.4993 -0.9410  0.2800
  189POPC  H16Y21849   2.621  -0.065   8.589 -1.8446  1.7189 -0.5909
  189POPC  H16Z21850   2.690  -0.119   8.748  3.1508  2.3209  0.4917
  190POPC     N21851   5.143   4.139  11.119  0.1683 -0.6487 -0.2080
  190POPC   C1221852   5.053   4.045  11.199  0.0413  0.1806 -0.1922
  190POPC  H12A21853   4.986   4.109  11.254  0.3740  1.6933 -1.5173
  190POPC  H12B21854   5.114   3.994  11.272  1.7318  0.8870 -1.0958
  190POPC   C1321855   5.229   4.049  11.026 -0.1370 -0.1605 -0.2451
  190POPC  H13A21856   5.171   4.001  10.949  0.1388 -0.3161 -0.3550
  190POPC  H13B21857   5.308   4.097  10.970  0.3173  0.5856  1.0030
  190POPC  H13C21858   5.281   3.976  11.087  1.8645  1.6846  0.3268
  190POPC   C1421859   5.056   4.232  11.040 -0.2909 -0.3088 -0.1520
  190POPC  H14A21860   4.983   4.274  11.107 -0.3347 -0.6485  0.0090
  190POPC  H14B21861   5.120   4.310  10.999 -0.8452 -0.6337 -1.6846
  190POPC  H14C21862   5.009   4.179  10.958  0.0728 -0.0739 -0.5168
  190POPC   C1521863   5.239   4.206  11.212 -0.8341 -0.1574 -0.1363
  190POPC  H15A21864   5.294   4.282  11.158  0.2866 -0.0077  1.2072
  190POPC  H15B21865   5.300   4.134  11.265 -0.6685  0.9127  1.1532
  190POPC  H15C21866   5.190   4.255  11.294 -0.6205  0.2423 -0.2421
  190POPC   C1121867   4.974   3.938  11.128  0.6438 -0.4992  0.0857
  190POPC  H11A21868   4.910   3.969  11.043  2.1876  1.6890 -0.3031
  190POPC  H11B21869   4.906   3.898  11.207  0.8418 -1.7242 -0.3438
  190POPC     P21870   5.090   3.699  11.148  0.2503 -0.0002  0.1626
  190POPC   O1321871   4.970   3.664  11.230 -0.4801 -0.7043  0.0773
  190POPC   O1421872   5.217   3.713  11.221 -0.2484 -0.3243  0.6729
  190POPC   O1221873   5.051   3.832  11.071 -0.1698  0.2154  0.3455
  190POPC   O1121874   5.096   3.594  11.035  0.1282  0.4377  0.2514
  190POPC    C121875   5.216   3.583  10.957  0.4924 -0.1179 -0.2669
  190POPC    HA21876   5.230   3.487  10.902 -2.2157 -0.4941 -0.3953
  190POPC    HB21877   5.304   3.589  11.025 -0.9351  0.7699  1.5580
  190POPC    C221878   5.224   3.695  10.850 -0.1014  0.0249 -0.4781
  190POPC    HS21879   5.219   3.784  10.916 -1.0846  0.4857 -1.1769
  190POPC   O2121880   5.122   3.682  10.748 -0.0996  0.3063  0.2235
  190POPC   C2121881   5.056   3.792  10.711  0.4507  0.3033 -0.7095
  190POPC   O2221882   5.092   3.904  10.754 -0.1039 -0.6617  0.1953
  190POPC   C2221883   4.941   3.776  10.601  0.1954  0.0275 -0.6791
  190POPC   H2R21884   4.853   3.824  10.650 -1.1828 -1.3456 -1.7739
  190POPC   H2S21885   4.923   3.670  10.575 -0.8408 -0.3586  1.4440
  190POPC    C321886   5.367   3.702  10.793  0.5896  0.3318  0.4529
  190POPC    HX21887   5.432   3.756  10.865 -0.0749 -0.5022  1.6762
  190POPC    HY21888   5.366   3.758  10.696 -0.2676 -0.7449 -0.1756
  190POPC   O3121889   5.413   3.565  10.767  0.8617  0.0676  0.3609
  190POPC   C3121890   5.547   3.543  10.791 -0.0491  0.1893  0.5620
  190POPC   O3221891   5.631   3.626  10.825 -0.0451  0.2372 -0.1616
  190POPC   C3221892   5.570   3.401  10.762 -0.2676  0.4865  0.2253
  190POPC   H2X21893   5.479   3.357  10.715  0.6657  1.1821 -2.3258
  190POPC   H2Y21894   5.584   3.337  10.851 -2.3064 -0.5585 -0.1838
  190POPC   C2321895   4.978   3.857  10.472  0.1629  0.2972 -0.3355
  190POPC   H3R21896   5.076   3.831  10.427 -0.0160  0.9069 -1.0939
  190POPC   H3S21897   4.982   3.967  10.479  1.4874  0.2059  0.3929
  190POPC   C2421898   4.872   3.831  10.367 -1.0321  0.8551 -0.1850
  190POPC   H4R21899   4.790   3.906  10.376 -2.3774 -0.8013  2.1177
  190POPC   H4S21900   4.830   3.729  10.381  2.1574 -0.5498 -0.5950
  190POPC   C2521901   4.940   3.843  10.227 -0.2155 -0.0137  0.4128
  190POPC   H5R21902   5.024   3.772  10.214  0.6602  0.8767  1.1388
  190POPC   H5S21903   4.978   3.947  10.236  0.2022  0.1774 -2.8841
  190POPC   C2621904   4.845   3.844  10.104 -0.2007 -1.1701  0.2425
  190POPC   H6R21905   4.764   3.913  10.135  0.6935  1.1758 -2.4535
  190POPC   H6S21906   4.800   3.743  10.089 -0.1495 -1.3998  1.5897
  190POPC   C2721907   4.902   3.898   9.967  0.4712  0.0660  0.2131
  190POPC   H7R21908   4.997   3.847   9.939  1.2225  0.6127  1.7318
  190POPC   H7S21909   4.924   4.005   9.988  3.4795 -0.2898 -0.9615
  190POPC   C2821910   4.810   3.896   9.841  0.5161  0.0687 -1.1452
  190POPC   H8R21911   4.866   3.964   9.773  0.3897 -0.4102 -1.7249
  190POPC   H8S21912   4.716   3.943   9.877  1.1315  1.5790 -1.4424
  190POPC   C2921913   4.785   3.762   9.776  0.1205  0.5768  0.1465
  190POPC   H9121914   4.750   3.686   9.846  3.0107 -0.6179  0.3734
  190POPC  C21021915   4.802   3.730   9.651 -0.2479 -0.6806 -0.0903
  190POPC  H10121916   4.781   3.629   9.612 -1.0479 -0.4169 -0.3497
  190POPC  C21121917   4.868   3.827   9.551 -0.0178 -0.4130 -0.4653
  190POPC  H11R21918   4.965   3.784   9.515  0.3328  0.2276 -0.2987
  190POPC  H11S21919   4.884   3.933   9.581 -0.2781 -0.9198  1.4846
  190POPC  C21221920   4.785   3.827   9.420 -0.8668 -0.0397 -0.1189
  190POPC  H12R21921   4.695   3.881   9.455 -0.3487  1.3069 -0.8000
  190POPC  H12S21922   4.751   3.725   9.395 -1.2471  0.2827 -0.9420
  190POPC  C21321923   4.846   3.895   9.302  0.1255 -0.7787 -0.4934
  190POPC  H13R21924   4.921   3.825   9.259 -1.3909 -2.2324 -0.8355
  190POPC  H13S21925   4.900   3.987   9.331  0.8920 -1.8622  1.5956
  190POPC  C21421926   4.740   3.926   9.197 -0.7026  0.1301 -0.2313
  190POPC  H14R21927   4.665   3.993   9.245 -0.7781  1.2554 -1.8999
  190POPC  H14S21928   4.704   3.828   9.158  3.0156 -0.9375 -1.2653
  190POPC  C21521929   4.808   3.986   9.073 -0.6844 -0.1714  0.8907
  190POPC  H15R21930   4.895   3.927   9.037 -0.9891  0.4844 -0.9495
  190POPC  H15S21931   4.841   4.084   9.114 -2.9857  1.2135 -0.4543
  190POPC  C21621932   4.710   4.031   8.971 -0.5780 -0.8665 -0.8121
  190POPC  H16R21933   4.623   4.085   9.013 -0.0595 -0.1691 -0.6230
  190POPC  H16S21934   4.677   3.944   8.911  0.2653 -1.6397 -0.1624
  190POPC  C21721935   4.776   4.135   8.879 -0.4279 -0.6139 -0.4208
  190POPC  H17R21936   4.779   4.226   8.942 -0.7063  0.4186 -1.8512
  190POPC  H17S21937   4.696   4.144   8.802 -2.8346  2.9478  2.3117
  190POPC  C21821938   4.908   4.106   8.815  0.4124 -0.1277  0.4892
  190POPC  H18R21939   4.965   4.054   8.896  1.4236 -0.0845 -0.1784
  190POPC  H18S21940   4.964   4.200   8.796  0.2264 -0.2830 -0.8021
  190POPC  H18T21941   4.909   4.030   8.734 -2.0498 -0.6170  0.8786
  190POPC   C3321942   5.683   3.389  10.659 -0.0273 -0.5685 -1.2801
  190POPC   H3X21943   5.715   3.284  10.649  2.2044  0.1457 -2.0178
  190POPC   H3Y21944   5.778   3.444  10.682  0.4990 -2.4203  1.1185
  190POPC   C3421945   5.641   3.438  10.521 -0.0022  0.3060  0.1514
  190POPC   H4X21946   5.630   3.548  10.523  0.6085  0.4986 -3.6119
  190POPC   H4Y21947   5.538   3.403  10.501  0.4092 -0.8917  0.0720
  190POPC   C3521948   5.734   3.398  10.405 -0.0041  0.2644 -0.4631
  190POPC   H5X21949   5.702   3.299  10.367  0.6678 -0.7663  1.5677
  190POPC   H5Y21950   5.841   3.413  10.432 -0.2189  2.2333 -0.6057
  190POPC   C3621951   5.708   3.501  10.284  0.5023 -0.5529 -0.1931
  190POPC   H6X21952   5.745   3.598  10.325  0.4322 -0.0290 -1.3334
  190POPC   H6Y21953   5.600   3.506  10.262  0.9442  0.3105 -2.3108
  190POPC   C3721954   5.787   3.457  10.154  0.5657  0.6174 -0.3648
  190POPC   H7X21955   5.785   3.346  10.157 -0.7563  0.6311  0.0566
  190POPC   H7Y21956   5.892   3.492  10.163  0.6699  0.1685  0.2238
  190POPC   C3821957   5.726   3.499  10.025 -0.3971 -0.2479 -0.4483
  190POPC   H8X21958   5.721   3.610  10.021  2.0062 -0.0946  0.0538
  190POPC   H8Y21959   5.620   3.466  10.018  0.6102 -3.7448 -0.0645
  190POPC   C3921960   5.805   3.446   9.900 -0.6608  0.0585 -0.4088
  190POPC   H9X21961   5.812   3.336   9.913  1.4334  0.2231  0.0822
  190POPC   H9Y21962   5.902   3.499   9.886  0.1161 -1.7813 -2.2928
  190POPC  C31021963   5.725   3.467   9.767 -0.0855  0.1205 -0.9624
  190POPC  H10X21964   5.728   3.576   9.750  0.6150  0.1655 -0.5472
  190POPC  H10Y21965   5.623   3.426   9.783 -0.1170  0.7492  0.5081
  190POPC  C31121966   5.783   3.406   9.644  0.6575 -0.2751 -0.4217
  190POPC  H11X21967   5.778   3.295   9.643  0.3147 -0.2659 -0.1420
  190POPC  H11Y21968   5.889   3.440   9.645  0.2781  0.9699 -1.0042
  190POPC  C31221969   5.724   3.459   9.514 -0.3583  0.2534  0.6000
  190POPC  H12X21970   5.749   3.566   9.501  0.4074 -0.0867 -0.8818
  190POPC  H12Y21971   5.615   3.445   9.530 -0.8604  3.2293  0.0073
  190POPC  C31321972   5.776   3.370   9.399  0.1203 -0.4507 -0.1684
  190POPC  H13X21973   5.730   3.270   9.415 -1.2030  0.3549  1.1236
  190POPC  H13Y21974   5.886   3.362   9.412  0.0720  0.4200  0.8265
  190POPC  C31421975   5.725   3.418   9.269  0.0383  0.9209  0.5327
  190POPC  H14X21976   5.614   3.418   9.269 -0.0880  4.0252 -3.7237
  190POPC  H14Y21977   5.761   3.341   9.198 -0.3577  0.9842  0.2656
  190POPC  C31521978   5.781   3.554   9.216 -0.9623  0.4844 -0.0036
  190POPC  H15X21979   5.890   3.567   9.236 -1.0004  1.8390 -0.5879
  190POPC  H15Y21980   5.728   3.631   9.275 -1.3688 -1.7940  2.7184
  190POPC  C31621981   5.751   3.597   9.071 -1.2160  0.1776 -0.3136
  190POPC  H16X21982   5.808   3.684   9.032 -0.9145 -0.3530 -1.0683
  190POPC  H16Y21983   5.644   3.619   9.050 -1.3008  1.0092  0.9559
  190POPC  H16Z21984   5.764   3.508   9.006 -3.2457  0.1091 -0.6722
  191POPC     N21985   3.472   4.643   6.099  0.2361 -0.4743  0.3990
  191POPC   C1221986   3.559   4.551   6.184  0.4396  0.4841 -0.8561
  191POPC  H12A21987   3.659   4.592   6.179 -0.1534  2.0595 -0.0434
  191POPC  H12B21988   3.557   4.458   6.128  0.7722  2.7160 -4.7945
  191POPC   C1321989   3.334   4.599   6.102 -0.8220  0.1044 -0.2792
  191POPC  H13A21990   3.298   4.596   6.204 -1.2191 -0.3560 -0.4263
  191POPC  H13B21991   3.259   4.647   6.041 -1.4229  0.0005  0.3701
  191POPC  H13C21992   3.328   4.501   6.057  0.2228  1.1648 -2.7982
  191POPC   C1421993   3.477   4.784   6.158 -0.1311  0.1640  0.2009
  191POPC  H14A21994   3.407   4.852   6.110  0.9799 -0.4788 -2.3631
  191POPC  H14B21995   3.452   4.782   6.263  0.7349 -1.1247  0.3833
  191POPC  H14C21996   3.576   4.826   6.148  0.0301 -0.6329 -1.7460
  191POPC   C1521997   3.523   4.653   5.956  0.2627 -0.2949  0.4748
  191POPC  H15A21998   3.517   4.560   5.900 -2.6173  0.4691 -0.5604
  191POPC  H15B21999   3.619   4.702   5.952  0.0656 -0.0178 -0.9912
  191POPC  H15C22000   3.458   4.718   5.900  1.4493  1.4576  1.0967
  191POPC   C1122001   3.517   4.523   6.331 -0.5655 -0.0676  0.4646
  191POPC  H11A22002   3.577   4.443   6.379  2.2890  2.6133  1.5056
  191POPC  H11B22003   3.408   4.499   6.328 -0.9240  1.4740  0.7562
  191POPC     P22004   3.676   4.673   6.472 -0.0489  0.1653 -0.3739
  191POPC   O1322005   3.689   4.816   6.507 -0.5663  0.0826 -0.9290
  191POPC   O1422006   3.789   4.607   6.405  0.6470 -0.5910  0.2469
  191POPC   O1222007   3.534   4.645   6.404  0.6253 -0.0967 -0.2028
  191POPC   O1122008   3.647   4.615   6.621 -0.2531  0.1685  1.2000
  191POPC    C122009   3.519   4.644   6.681  0.3027 -0.5694  0.3740
  191POPC    HA22010   3.444   4.583   6.626 -1.3991  3.0406 -1.5465
  191POPC    HB22011   3.495   4.752   6.666  0.7052 -0.5303  0.0196
  191POPC    C222012   3.520   4.616   6.832 -0.1394  0.6094 -0.2933
  191POPC    HS22013   3.427   4.653   6.879  0.1760  0.5367  0.3885
  191POPC   O2122014   3.626   4.683   6.902  0.0620  0.1392  0.4141
  191POPC   C2122015   3.628   4.815   6.903 -0.2957 -0.3431  0.4725
  191POPC   O2222016   3.537   4.889   6.877  0.1545 -0.4444  0.2184
  191POPC   C2222017   3.760   4.850   6.964 -0.0601 -0.3897 -0.5246
  191POPC   H2R22018   3.833   4.831   6.883 -0.6820 -1.2425 -0.8951
  191POPC   H2S22019   3.775   4.787   7.055  3.2198  5.3985  3.2263
  191POPC    C322020   3.529   4.464   6.862  0.1705 -0.7295  0.0721
  191POPC    HX22021   3.609   4.417   6.802  0.9373  0.0198  0.4980
  191POPC    HY22022   3.440   4.410   6.823 -0.6773 -0.9765  2.2518
  191POPC   O3122023   3.547   4.440   7.006 -0.0702 -0.0437  0.8960
  191POPC   C3122024   3.671   4.431   7.050  0.1222 -0.6240 -0.6958
  191POPC   O3222025   3.775   4.422   6.988  0.1766  0.5036 -0.1276
  191POPC   C3222026   3.676   4.448   7.201 -0.5958 -0.5497  0.3949
  191POPC   H2X22027   3.782   4.457   7.231 -0.3935 -2.0513  0.1809
  191POPC   H2Y22028   3.638   4.350   7.238 -1.7157 -0.1943  0.2125
  191POPC   C2322029   3.768   5.005   7.006  0.0547  0.6668  0.3584
  191POPC   H3R22030   3.667   5.041   7.034  0.1457  1.9388 -0.8769
  191POPC   H3S22031   3.809   5.069   6.925  0.7979 -1.2509 -0.8041
  191POPC   C2422032   3.856   5.038   7.132 -0.4308 -0.6144 -0.2199
  191POPC   H4R22033   3.871   5.147   7.147 -0.3383 -0.4655 -1.3956
  191POPC   H4S22034   3.954   4.991   7.111  0.0993  0.6506 -0.6312
  191POPC   C2522035   3.786   4.993   7.264 -0.1692  0.0854  0.4448
  191POPC   H5R22036   3.739   4.893   7.261  0.4562 -0.2232  0.8894
  191POPC   H5S22037   3.692   5.053   7.261  0.5228  1.0814 -2.1072
  191POPC   C2622038   3.866   5.015   7.390 -0.6856  0.1013  0.0391
  191POPC   H6R22039   3.967   4.972   7.374 -0.3330 -0.3078  3.0828
  191POPC   H6S22040   3.815   4.975   7.481  0.1673 -2.1839 -0.4704
  191POPC   C2722041   3.888   5.161   7.426  0.1172  0.0487  0.8488
  191POPC   H7R22042   3.788   5.209   7.412 -0.7182 -0.9072  3.3407
  191POPC   H7S22043   3.962   5.205   7.356  1.0917 -0.0594  1.8067
  191POPC   C2822044   3.918   5.192   7.572 -0.1309 -0.0561  0.2445
  191POPC   H8R22045   3.821   5.202   7.624 -0.2070 -0.2414  0.1344
  191POPC   H8S22046   3.973   5.289   7.577  0.4944 -0.4151  0.3752
  191POPC   C2922047   4.012   5.098   7.645  0.1678  0.2369  0.0526
  191POPC   H9122048   4.108   5.078   7.596  0.4203 -1.1873  1.0825
  191POPC  C21022049   3.969   5.016   7.749 -0.6060 -0.2951 -0.5458
  191POPC  H10122050   4.030   4.933   7.789 -0.6174  0.6432  1.4547
  191POPC  C21122051   3.826   5.012   7.810  0.6610  0.0934  0.3959
  191POPC  H11R22052   3.751   4.943   7.768  1.2721 -0.8458  0.8268
  191POPC  H11S22053   3.788   5.116   7.803 -0.6248 -0.4717 -1.5127
  191POPC  C21222054   3.835   4.951   7.952 -0.5944 -0.2692 -0.1186
  191POPC  H12R22055   3.899   5.013   8.018 -0.8143  1.7560 -1.7357
  191POPC  H12S22056   3.894   4.858   7.938 -0.8383 -0.0944 -2.5617
  191POPC  C21322057   3.705   4.915   8.023  0.1282 -0.2888  0.8173
  191POPC  H13R22058   3.650   4.857   7.946  1.0515 -1.1184  0.7703
  191POPC  H13S22059   3.645   5.005   8.045 -0.7251 -0.5240 -0.4684
  191POPC  C21422060   3.727   4.832   8.143  0.2516  0.8232  0.0207
  191POPC  H14R22061   3.804   4.886   8.202 -0.3079  0.9241  0.6740
  191POPC  H14S22062   3.763   4.730   8.116  1.1328  1.2814 -0.5290
  191POPC  C21522063   3.604   4.834   8.233  0.3358 -0.2739  0.0610
  191POPC  H15R22064   3.515   4.779   8.195 -0.4849 -0.5897  2.3156
  191POPC  H15S22065   3.572   4.939   8.251  1.2136 -0.0613  0.3927
  191POPC  C21622066   3.621   4.762   8.371  0.7401 -0.0425  0.3051
  191POPC  H16R22067   3.724   4.792   8.400  1.8063 -0.1964 -3.1007
  191POPC  H16S22068   3.615   4.652   8.356 -1.7062  0.2854 -1.6251
  191POPC  C21722069   3.516   4.805   8.470  0.7189 -0.1295  0.2752
  191POPC  H17R22070   3.422   4.748   8.456  0.8833 -0.8796  2.1418
  191POPC  H17S22071   3.491   4.913   8.457 -1.1344 -0.6584 -0.6971
  191POPC  C21822072   3.550   4.770   8.622 -0.2786 -0.4279 -0.1617
  191POPC  H18R22073   3.477   4.832   8.679 -0.5991 -3.2440  2.6327
  191POPC  H18S22074   3.651   4.802   8.655 -0.3888  0.2707 -0.4859
  191POPC  H18T22075   3.537   4.661   8.639  2.5569 -0.4937  1.9185
  191POPC   C3322076   3.603   4.577   7.259 -0.5337  0.1459 -0.7147
  191POPC   H3X22077   3.497   4.549   7.275 -0.0235 -0.3124  2.2161
  191POPC   H3Y22078   3.603   4.660   7.185  0.2499 -0.6927 -1.6736
  191POPC   C3422079   3.661   4.624   7.400 -0.0438  0.6187  0.1708
  191POPC   H4X22080   3.597   4.705   7.440 -0.9544  0.3329 -0.6898
  191POPC   H4Y22081   3.764   4.664   7.386  0.7059 -1.1269  0.5563
  191POPC   C3522082   3.687   4.508   7.499 -0.1819  0.0562  0.1161
  191POPC   H5X22083   3.770   4.440   7.472 -0.9897 -0.6661 -0.5834
  191POPC   H5Y22084   3.591   4.453   7.508 -0.6841  0.9435  0.2753
  191POPC   C3622085   3.712   4.548   7.646  0.0904 -0.3753  0.3189
  191POPC   H6X22086   3.641   4.625   7.682 -0.4808 -1.4329  1.5043
  191POPC   H6Y22087   3.813   4.593   7.633 -0.2402  0.1039 -0.5884
  191POPC   C3722088   3.713   4.435   7.742 -0.0211 -0.2717  0.0270
  191POPC   H7X22089   3.791   4.360   7.716  0.2646 -0.1930  0.6632
  191POPC   H7Y22090   3.613   4.388   7.740  0.2688 -0.8943  0.1356
  191POPC   C3822091   3.741   4.477   7.885  0.5909  0.1343  0.0223
  191POPC   H8X22092   3.652   4.539   7.911 -0.6990 -1.4947 -0.4637
  191POPC   H8Y22093   3.829   4.544   7.896  0.8346 -0.3668  1.2426
  191POPC   C3922094   3.740   4.354   7.971  0.6574 -0.0617 -0.1340
  191POPC   H9X22095   3.812   4.283   7.925 -1.2103 -0.1336 -3.0703
  191POPC   H9Y22096   3.645   4.298   7.957  1.1508 -0.9137 -0.1026
  191POPC  C31022097   3.788   4.371   8.115  1.1273 -0.3602 -0.7011
  191POPC  H10X22098   3.728   4.452   8.160  3.4816  0.6391  0.7605
  191POPC  H10Y22099   3.893   4.407   8.121  0.6738  0.8279  0.2418
  191POPC  C31122100   3.742   4.251   8.208 -0.6521 -0.3355  0.7625
  191POPC  H11X22101   3.786   4.155   8.173  0.6110  0.5043  0.0010
  191POPC  H11Y22102   3.631   4.249   8.202 -0.6182  2.1438 -1.0994
  191POPC  C31222103   3.789   4.287   8.354 -0.0648 -0.0120  0.1267
  191POPC  H12X22104   3.785   4.396   8.373  0.6514 -0.0753  0.6806
  191POPC  H12Y22105   3.897   4.263   8.363  0.1996  1.1607  0.1769
  191POPC  C31322106   3.706   4.212   8.456 -0.4928 -0.5036 -0.0907
  191POPC  H13X22107   3.722   4.105   8.431  0.9605 -0.2841 -0.1048
  191POPC  H13Y22108   3.599   4.237   8.440 -0.5667 -0.8983 -0.2092
  191POPC  C31422109   3.718   4.254   8.604  0.3194 -0.9936 -0.5843
  191POPC  H14X22110   3.720   4.365   8.606  1.7906 -1.0326  0.7516
  191POPC  H14Y22111   3.819   4.222   8.636 -0.3124 -1.1230  1.3154
  191POPC  C31522112   3.597   4.211   8.688 -0.0282 -0.1605 -0.5735
  191POPC  H15X22113   3.613   4.260   8.786 -3.6648  0.3065 -0.1386
  191POPC  H15Y22114   3.606   4.102   8.711  1.4495  0.3831  1.4703
  191POPC  C31622115   3.457   4.237   8.643  0.0052  0.0620 -0.5353
  191POPC  H16X22116   3.447   4.338   8.599  0.8287  0.8567  1.0653
  191POPC  H16Y22117   3.391   4.232   8.733 -1.0594  1.7525 -1.2118
  191POPC  H16Z22118   3.431   4.152   8.577  0.0894 -0.5229  0.1721
  192POPC     N22119   2.057   0.703   6.471  0.3655  0.3310 -0.1265
  192POPC   C1222120   2.160   0.817   6.483 -1.0253 -0.3667 -0.3750
  192POPC  H12A22121   2.238   0.787   6.551 -1.1392  1.7141  0.6968
  192POPC  H12B22122   2.113   0.904   6.526 -0.8305  0.6110 -2.0935
  192POPC   C1322123   1.976   0.694   6.600 -0.3275  0.4377 -0.3147
  192POPC  H13A22124   1.893   0.630   6.576  0.4349  0.2320 -2.4787
  192POPC  H13B22125   2.035   0.648   6.678 -0.8697 -0.8285 -0.6390
  192POPC  H13C22126   1.943   0.794   6.626  0.5038  0.9934 -1.3553
  192POPC   C1422127   1.954   0.745   6.371  0.0232  0.5905  0.2138
  192POPC  H14A22128   1.864   0.686   6.378 -0.1061  0.6865 -0.6129
  192POPC  H14B22129   1.927   0.849   6.375  2.3220  1.2071  0.5200
  192POPC  H14C22130   2.004   0.744   6.275 -2.5966 -2.9538 -1.2513
  192POPC   C1522131   2.112   0.569   6.434  0.4221  0.2549 -0.4125
  192POPC  H15A22132   2.185   0.525   6.501  0.1244 -2.0782 -1.5864
  192POPC  H15B22133   2.151   0.563   6.334 -0.4633 -0.2519 -0.7313
  192POPC  H15C22134   2.024   0.509   6.419  0.7248  0.0467 -1.3707
  192POPC   C1122135   2.239   0.866   6.355 -0.1766  0.1723 -0.3009
  192POPC  H11A22136   2.320   0.931   6.394  0.1401 -0.7112  0.5099
  192POPC  H11B22137   2.168   0.916   6.285 -1.9487 -1.5328  0.2382
  192POPC     P22138   2.388   0.762   6.168 -0.3227  0.0152 -0.1591
  192POPC   O1322139   2.439   0.899   6.149  0.6358 -0.1956 -0.4694
  192POPC   O1422140   2.320   0.693   6.055  0.2522  0.1016  0.3153
  192POPC   O1222141   2.295   0.757   6.287 -0.0234 -0.1083  0.2673
  192POPC   O1122142   2.509   0.670   6.214  0.2297  0.3890  0.2306
  192POPC    C122143   2.482   0.565   6.318  0.2113 -0.0596  0.0890
  192POPC    HA22144   2.517   0.464   6.289 -0.0706 -0.0526 -0.2800
  192POPC    HB22145   2.379   0.564   6.359  0.1036 -0.0541 -0.1782
  192POPC    C222146   2.563   0.601   6.447 -0.0814  0.1331  0.6279
  192POPC    HS22147   2.512   0.697   6.472 -0.6673 -0.6966  2.7041
  192POPC   O2122148   2.700   0.623   6.410 -0.4979  0.3540  0.0604
  192POPC   C2122149   2.760   0.719   6.470  0.5302  0.1836  0.0305
  192POPC   O2222150   2.708   0.796   6.548  0.3609 -0.4170 -0.1674
  192POPC   C2222151   2.902   0.733   6.422 -0.6828  0.3840 -0.1459
  192POPC   H2R22152   2.907   0.809   6.341  1.6781 -2.7251 -3.0712
  192POPC   H2S22153   2.936   0.641   6.369 -1.2069  0.6300 -0.9238
  192POPC    C322154   2.531   0.488   6.549  0.2026  0.6585 -0.0181
  192POPC    HX22155   2.558   0.396   6.493 -0.6713  0.5351 -0.2374
  192POPC    HY22156   2.423   0.476   6.571 -0.0356  1.3735 -0.7649
  192POPC   O3122157   2.616   0.492   6.671  0.1923 -1.1205 -0.6256
  192POPC   C3122158   2.562   0.541   6.783 -0.3848 -0.4851 -0.1707
  192POPC   O3222159   2.449   0.583   6.795 -0.3734 -0.4090  0.5201
  192POPC   C3222160   2.662   0.523   6.899 -0.3167  0.6552 -0.3358
  192POPC   H2X22161   2.734   0.608   6.898 -0.0017  0.3834 -0.9206
  192POPC   H2Y22162   2.720   0.429   6.885  1.0254  1.4522 -0.2379
  192POPC   C2322163   3.002   0.784   6.536  1.0375  0.0829  0.6989
  192POPC   H3R22164   2.960   0.880   6.575 -1.0725 -0.0512 -1.1265
  192POPC   H3S22165   3.105   0.802   6.497  1.0364 -1.6439 -0.1415
  192POPC   C2422166   3.014   0.690   6.651  0.4570  0.1288  0.0091
  192POPC   H4R22167   3.043   0.586   6.625 -0.0536 -0.5572  2.1098
  192POPC   H4S22168   2.916   0.690   6.703  0.0222  1.1955 -0.7839
  192POPC   C2522169   3.119   0.747   6.739  0.2730 -0.8153  0.6484
  192POPC   H5R22170   3.102   0.851   6.773  1.6628  0.1673 -1.5706
  192POPC   H5S22171   3.214   0.738   6.682  0.2695  2.4192  0.0696
  192POPC   C2622172   3.146   0.664   6.870 -0.3356 -0.3365  0.4711
  192POPC   H6R22173   3.243   0.703   6.906 -0.5102  1.2590 -0.7322
  192POPC   H6S22174   3.152   0.555   6.850 -0.3180 -0.4461  1.0667
  192POPC   C2722175   3.026   0.671   6.969  0.2226  0.1565  0.0392
  192POPC   H7R22176   2.942   0.619   6.919  0.2048 -0.5968  0.8469
  192POPC   H7S22177   2.998   0.777   6.988 -1.8804 -0.7705  2.4971
  192POPC   C2822178   3.074   0.602   7.106 -0.3924 -0.0802 -0.5545
  192POPC   H8R22179   3.112   0.499   7.085  1.1032  0.4069 -0.2963
  192POPC   H8S22180   2.985   0.589   7.171  0.6624  0.1141  0.9457
  192POPC   C2922181   3.179   0.679   7.181 -0.2405  0.2511  0.1895
  192POPC   H9122182   3.273   0.691   7.126 -0.9204  0.2760 -1.0010
  192POPC  C21022183   3.168   0.745   7.296  0.0948 -0.4522  0.0028
  192POPC  H10122184   3.255   0.799   7.337 -0.3139 -0.1467  0.4773
  192POPC  C21122185   3.043   0.752   7.390  0.2870 -0.1626 -0.0474
  192POPC  H11R22186   2.947   0.724   7.343 -0.3687  1.0455  0.5559
  192POPC  H11S22187   3.032   0.854   7.432  0.4894 -0.3389  0.4395
  192POPC  C21222188   3.051   0.656   7.514  0.4066  0.3231  0.0220
  192POPC  H12R22189   3.051   0.554   7.470  3.6950  0.6422 -0.9315
  192POPC  H12S22190   2.957   0.668   7.571 -1.3893 -3.5790 -1.8977
  192POPC  C21322191   3.174   0.681   7.600  0.2735  0.6570  0.3558
  192POPC  H13R22192   3.189   0.788   7.624  1.2377  0.8976 -1.2619
  192POPC  H13S22193   3.262   0.646   7.542 -0.9243 -0.5858 -0.7515
  192POPC  C21422194   3.174   0.600   7.733  0.2803  0.1541 -0.2574
  192POPC  H14R22195   3.273   0.613   7.780  0.6835  0.3458 -1.1376
  192POPC  H14S22196   3.164   0.493   7.705 -0.7571  0.7642 -2.3786
  192POPC  C21522197   3.060   0.631   7.830  0.0198 -0.0768  0.3551
  192POPC  H15R22198   2.966   0.581   7.798 -0.9027  2.4907 -1.1075
  192POPC  H15S22199   3.055   0.742   7.830  2.4519  0.0661  1.7003
  192POPC  C21622200   3.089   0.590   7.983  0.6158  0.4907 -0.2330
  192POPC  H16R22201   3.190   0.631   8.005  0.3327  0.3841  1.3427
  192POPC  H16S22202   3.092   0.480   7.992 -2.9048  0.5501  3.2818
  192POPC  C21722203   2.985   0.638   8.074 -0.0413  0.0194  0.0111
  192POPC  H17R22204   3.008   0.580   8.166  2.6632  0.4314 -0.3583
  192POPC  H17S22205   2.887   0.620   8.026 -0.3292 -0.4055  0.7474
  192POPC  C21822206   2.992   0.789   8.099  0.2661 -0.2397 -0.1212
  192POPC  H18R22207   3.089   0.815   8.147  0.0291 -1.1233  0.8559
  192POPC  H18S22208   2.917   0.830   8.170  1.2425 -1.9748  1.9702
  192POPC  H18T22209   2.994   0.840   8.001  0.5017 -1.2300 -0.6387
  192POPC   C3322210   2.602   0.523   7.043 -0.5170 -0.7186  0.6400
  192POPC   H3X22211   2.539   0.432   7.056  0.9095 -2.0786 -1.6955
  192POPC   H3Y22212   2.522   0.599   7.054  0.4215  0.6180 -1.5463
  192POPC   C3422213   2.701   0.534   7.159 -0.1292  0.5166  1.0427
  192POPC   H4X22214   2.736   0.639   7.167  0.7791  0.2182  1.0797
  192POPC   H4Y22215   2.790   0.468   7.151 -0.3165  0.3892 -0.1013
  192POPC   C3522216   2.627   0.501   7.294  0.9084  0.2250  0.6247
  192POPC   H5X22217   2.584   0.399   7.286  0.1862  0.5655  0.1116
  192POPC   H5Y22218   2.540   0.567   7.312 -0.1507 -1.4945  1.9959
  192POPC   C3622219   2.715   0.518   7.423 -0.8199  0.5282  0.6409
  192POPC   H6X22220   2.738   0.624   7.447 -0.2365  0.8951 -1.4557
  192POPC   H6Y22221   2.811   0.461   7.420 -1.5545 -0.6878 -0.3449
  192POPC   C3722222   2.639   0.464   7.540 -0.0241 -0.1661 -0.1835
  192POPC   H7X22223   2.602   0.363   7.512 -0.8892  0.3445 -0.9057
  192POPC   H7Y22224   2.552   0.530   7.558 -0.9826 -0.4466 -3.4576
  192POPC   C3822225   2.717   0.453   7.675  0.0223  0.2533  0.4065
  192POPC   H8X22226   2.783   0.541   7.691 -1.1409  1.3481 -0.7219
  192POPC   H8Y22227   2.779   0.360   7.676 -0.3249  0.0085 -0.8518
  192POPC   C3922228   2.614   0.432   7.786  0.0300  0.7884 -0.4389
  192POPC   H9X22229   2.533   0.375   7.736  0.5025  0.3017 -0.6524
  192POPC   H9Y22230   2.569   0.530   7.813  1.6847  1.0852  1.3855
  192POPC  C31022231   2.680   0.370   7.904  0.5404 -0.1237  0.0599
  192POPC  H10X22232   2.749   0.439   7.957 -0.6461  1.1916 -0.0633
  192POPC  H10Y22233   2.738   0.278   7.882  0.3504 -0.4214  0.8041
  192POPC  C31122234   2.567   0.334   8.005  0.3444 -0.5506 -0.7065
  192POPC  H11X22235   2.490   0.287   7.939 -1.5461  0.5650  0.6395
  192POPC  H11Y22236   2.529   0.431   8.043  2.8868 -1.2027  3.7351
  192POPC  C31222237   2.622   0.246   8.125  0.7436 -0.2724 -0.0762
  192POPC  H12X22238   2.703   0.178   8.091  0.7923  0.2208 -0.9681
  192POPC  H12Y22239   2.537   0.199   8.179  1.0284  0.7427  1.2880
  192POPC  C31322240   2.679   0.340   8.234  0.2083 -0.0090 -0.5561
  192POPC  H13X22241   2.627   0.438   8.245 -0.3410 -0.4315  0.6246
  192POPC  H13Y22242   2.782   0.374   8.212  0.6251 -2.6402 -3.0024
  192POPC  C31422243   2.666   0.269   8.377 -0.7881  0.6279  0.3431
  192POPC  H14X22244   2.712   0.169   8.374 -1.0177  0.5316  0.0047
  192POPC  H14Y22245   2.557   0.248   8.392 -0.6778  0.1498  0.4781
  192POPC  C31522246   2.719   0.353   8.490  0.1786 -0.7171 -0.4297
  192POPC  H15X22247   2.681   0.318   8.588 -0.9514  0.4488 -0.4300
  192POPC  H15Y22248   2.676   0.456   8.488  1.3002 -0.1887  0.9615
  192POPC  C31622249   2.873   0.367   8.510  0.0792  0.4080 -0.1912
  192POPC  H16X22250   2.891   0.456   8.574 -2.6625  0.6534  0.3352
  192POPC  H16Y22251   2.936   0.377   8.419  0.0270 -1.0544 -0.3939
  192POPC  H16Z22252   2.907   0.279   8.568 -0.1357 -0.1636 -0.9155
  193SOD    SOD22253   2.644   0.020   5.685  0.3566 -0.2973  0.3443
  194SOD    SOD22254   4.136   1.754   5.430  0.4800 -0.3424 -0.4620
  195SOD    SOD22255   0.552   1.314   6.735  0.4282 -0.3055 -0.2977
  196SOD    SOD22256   4.038   0.542  10.632 -0.0369  0.1861 -0.1021
  197SOD    SOD22257   6.035   1.258   4.477  0.2628 -0.0706 -0.2985
  198SOD    SOD22258   2.160   3.771  14.389  0.3646  0.3536  0.0131
  199SOD    SOD22259   5.647   3.457  16.416 -0.0063  0.1223 -0.7442
  200SOD    SOD22260   0.562   5.869  11.911 -0.1965  0.0876 -0.2222
  201SOD    SOD22261   5.962   5.779   5.680  0.6347 -1.0721  0.2741
  202SOD    SOD22262   0.266   5.408   4.745  0.5763 -0.2257  0.8200
  203SOD    SOD22263   1.391   6.738  13.310  0.0708 -0.0051 -0.1542
  204SOD    SOD22264   6.575   2.925   0.729  1.1063 -0.4810  0.2648
  205SOD    SOD22265   2.446   6.320  11.611 -0.8893  0.0464  0.0328
  206SOD    SOD22266   4.172   5.890  11.245 -0.9521  0.1056 -0.4179
  207SOD    SOD22267   3.824   2.566   5.597  0.1360 -0.1809 -0.6548
  208SOD    SOD22268   0.613   4.111   5.730 -0.4765 -0.4484  0.3527
  209SOD    SOD22269   6.590   1.872  14.721  0.1227 -0.0596 -0.0748
  210SOD    SOD22270   6.424   5.302   4.832 -0.2327  0.2926 -0.0822
  211SOD    SOD22271   1.761   3.170   5.530  0.9396  0.3045 -0.1731
  212SOD    SOD22272   4.115   2.381   1.775 -0.0043 -0.0572 -0.2049
  213SOD    SOD22273   6.766   4.783  15.830 -0.2741  0.2928 -0.1697
  214SOD    SOD22274   3.644   1.632   0.758 -0.0496  0.4276 -0.2537
  215SOD    SOD22275   0.850   4.290  11.249  0.0194 -0.0115  0.0321
  216SOD    SOD22276   0.002   3.656   1.190 -0.0991  0.1442  0.0039
  217SOD    SOD22277   2.851   3.475  10.773  0.2105  0.1178 -0.5703
  218SOD    SOD22278   4.591   6.508  12.593  0.0981  0.5352 -0.2582
  219SOD    SOD22279   0.638   0.407  11.585  0.8153 -0.1245 -0.3597
  220SOD    SOD22280   4.516   1.780   0.838 -0.0613 -0.3750 -0.3136
  221SOD    SOD22281   3.416   4.512   4.357 -0.1429  0.5245  0.0834
  222SOD    SOD22282   0.718   3.309  11.776 -0.3428  0.3596 -0.3458
  223SOD    SOD22283   0.848   2.898   6.133  0.2277 -0.4235 -0.1852
  224SOD    SOD22284   0.945   2.533  14.129 -0.4960  0.3182  0.5503
  225SOD    SOD22285   2.295   1.591  12.406  0.4244 -0.8733 -0.2373
  226SOD    SOD22286   6.591   0.951  14.416 -0.3098  0.0098 -0.3218
  227SOD    SOD22287   5.715   2.678   2.602 -0.5413 -0.2961  0.7020
  228SOD    SOD22288   3.392   6.222   2.299  0.3932 -0.6392  0.1314
  229SOD    SOD22289   0.239   4.742  10.674 -0.2139 -0.1707 -0.4745
  230SOD    SOD22290   2.275   3.922   1.429  0.5488  0.3787  0.5438
  231SOD    SOD22291   4.834   5.150  10.618 -0.0579  0.3747 -0.7827
  232SOD    SOD22292   3.791   3.147  12.983 -0.0835 -0.2360 -0.4999
  233SOD    SOD22293   0.404   6.175  15.991  0.5158 -0.3705 -0.2765
  234SOD    SOD22294   5.304   4.809   2.656 -0.3074  0.3365  0.1877
  235SOD    SOD22295   3.918   2.280   0.194 -0.2090 -0.1772 -0.3228
  236SOD    SOD22296   1.964   0.467   2.673 -0.0282  0.0827  0.2486
  237SOD    SOD22297   5.548   2.817  13.788 -0.3734  0.1322  0.3054
  238SOD    SOD22298   6.517   0.645   4.653 -0.0993  0.2384 -0.4458
  239SOD    SOD22299   4.587   6.333  16.675  0.2959  0.0544 -0.0023
  240SOD    SOD22300   5.847   6.199  12.025 -0.4810  0.1789  0.2652
  241SOD    SOD22301   2.842   1.684   3.052  0.7029  0.4523 -0.3966
  242SOD    SOD22302   6.557   6.028   0.993  0.1293  0.0516  0.0414
  243SOD    SOD22303   3.338   6.306   0.949 -0.3485  0.1854  0.3570
  244SOD    SOD22304   3.022   2.665  12.375  0.4581 -0.4120  0.0335
  245SOD    SOD22305   3.071   2.617   3.164  0.0913  0.0434 -0.2940
  246SOD    SOD22306   3.203   3.100   3.743 -0.2111  0.4921  0.0246
  247SOD    SOD22307   5.301   6.754   6.023 -0.1201 -0.0543  0.1930
  248SOD    SOD22308   4.107   1.372   2.980  0.0682 -0.2830  0.1077
  249SOD    SOD22309   1.465   1.418   4.679  0.2872  0.2167  0.1342
  250SOD    SOD22310   1.354   4.097   3.634 -0.6198 -0.7685 -0.3565
  251SOD    SOD22311   3.501   2.299   3.193  0.4572 -0.1108  0.2321
  252SOD    SOD22312   1.390   2.588   3.598  0.0686 -0.1263  0.7723
  253SOD    SOD22313   6.580   3.420   1.390  0.3961  0.1120  0.5559
  254SOD    SOD22314   1.657   0.974   2.451 -0.2652 -0.2658  0.1856
  255SOD    SOD22315   5.916   6.027  16.725  0.0538 -0.5217  0.0351
  256SOD    SOD22316   2.668   4.168   3.083  0.4607  0.4237  0.0301
  257SOD    SOD22317   1.973   6.311   0.245 -0.0928 -0.2282  0.0200
  258SOD    SOD22318   1.975   3.440  12.056 -0.1831 -0.0774  0.2576
  259SOD    SOD22319   3.614   4.393  14.977 -0.2722  0.5115 -0.2851
  260SOD    SOD22320   3.761   6.093  10.577  0.3997  0.2987 -0.3665
  261SOD    SOD22321   3.913   4.755  12.879  0.0147 -0.0947 -0.1610
  262SOD    SOD22322   3.368   2.175  16.845 -0.0431 -0.1502  0.2484
  263SOD    SOD22323   3.917   1.041  17.238  0.0275 -0.4259  0.6747
  264SOD    SOD22324   2.914   0.758  10.938 -0.2754 -0.3177 -0.0713
  265SOD    SOD22325   5.497   1.162   2.421  0.0100  0.1491  0.6933
  266SOD    SOD22326   1.404   3.440  13.745 -0.0447 -0.4336 -0.1935
  267SOD    SOD22327   4.365   3.558   2.654 -0.0038  0.1147  0.4783
  268SOD    SOD22328   2.368   6.160   5.053 -0.0918 -0.0514 -0.1099
  269SOD    SOD22329   4.774   2.889   6.406  0.0828  0.1208 -0.2187
  270CLA    CLA22330   6.603   1.439  15.224  0.4926  0.0294 -0.4410
  271CLA    CLA22331   1.718   6.517   2.996  0.1032 -0.0084  0.3046
  272CLA    CLA22332   0.788   2.417   3.937 -0.3121 -0.1138 -0.2598
  273CLA    CLA22333   5.051   5.762   0.757 -0.3725  0.0112  0.4776
  274CLA    CLA22334   5.179   6.601  11.509 -0.3970  0.4977  0.1525
  275CLA    CLA22335   1.225   6.750   2.567 -0.4090 -0.3216  0.5127
  276CLA    CLA22336   0.855   2.243  13.682  0.2280  0.3778 -0.1283
  277CLA    CLA22337   4.562   1.367  17.216 -0.0068 -0.3509 -0.2374
  278CLA    CLA22338   6.524   4.496   1.154  0.0963  0.5152  0.2579
  279CLA    CLA22339   2.527   3.304   2.827 -0.2661  0.0096 -0.3750
  280CLA    CLA22340   2.748   2.818  13.219 -0.1000  0.3531 -0.1172
  281CLA    CLA22341   2.717   6.136   5.374  0.4792 -0.2252  0.2147
  282CLA    CLA22342   2.791   4.468  16.948  0.0072  0.1515 -0.1258
  283CLA    CLA22343   1.887   6.232  16.668  0.4035  0.2238  0.1217
  284CLA    CLA22344   2.611   1.310  13.635 -0.3515 -0.1046  0.3271
  285CLA    CLA22345   1.090   5.464  12.349 -0.1695 -0.3759  0.0448
  286CLA    CLA22346   0.285   4.640  16.208  0.1345  0.2839 -0.2018
  287CLA    CLA22347   0.334   4.741   0.653  0.1074  0.5058 -0.4045
  288CLA    CLA22348   3.620   2.046   2.496  0.1831  0.0969 -0.1200
  289CLA    CLA22349   0.523   4.286   5.076  0.0789 -0.1664 -0.2524
  290CLA    CLA22350   5.661   1.913  13.604 -0.0800  0.0734 -0.0800
  291CLA    CLA22351   4.040   1.521   5.032 -0.1897  0.1874 -0.2311
  292CLA    CLA22352   0.612   3.806   3.638 -0.3485 -0.1313  0.1129
  293CLA    CLA22353   3.931   2.880   1.746 -0.1007 -0.2161 -0.0139
  294CLA    CLA22354   6.052   1.640  15.815  0.5253  0.0726 -0.1435
  295CLA    CLA22355   1.889   3.692   3.585  0.1231 -0.3770  0.2230
  296CLA    CLA22356   5.736   2.606   4.068  0.2155  0.4527 -0.0997
  297CLA    CLA22357   1.881   2.119   1.686 -0.0146  0.1451  0.0450
  298CLA    CLA22358   4.811   1.714   5.743 -0.0690 -0.0683  0.2207
  299CLA    CLA22359   1.664   4.748  11.480 -0.3248  0.0234 -0.0224
  300CLA    CLA22360   1.541   1.383  11.294  0.2798  0.1496  0.0764
  301CLA    CLA22361   4.255   1.465   2.452  0.4601 -0.1352 -0.1014
  302CLA    CLA22362   0.494   6.439  15.064  0.4908  0.4062  0.0671
  303CLA    CLA22363   3.411   6.043  11.692 -0.1266  0.3550 -0.1934
  304CLA    CLA22364   1.662   1.321  16.954 -0.1812 -0.2905 -0.4945
  305CLA    CLA22365   1.576   2.828  15.289  0.0577  0.4193  0.4306
  306CLA    CLA22366   1.451   6.212   4.027  0.2021  0.0139 -0.0183
  307CLA    CLA22367   6.234   3.516   2.760 -0.3079  0.1431 -0.2975
  308CLA    CLA22368   3.129   4.334  14.976 -0.2408 -0.1657 -0.2015
  309CLA    CLA22369   3.887   1.472   2.860 -0.1373 -0.0628  0.1614
  310CLA    CLA22370   5.738   0.693  12.010 -0.3353  0.1740 -0.3419
  311CLA    CLA22371   5.610   6.305   2.849  0.1401 -0.0093  0.0993
  312CLA    CLA22372   6.722   6.459   3.830  0.1538  0.0167 -0.5014
  313CLA    CLA22373   3.788   1.263   4.111  0.0858  0.2012 -0.0262
  314CLA    CLA22374   4.107   2.728   0.780  0.0017 -0.1434 -0.3556
  315CLA    CLA22375   0.440   4.280  11.151  0.0866 -0.1289 -0.4197
  316CLA    CLA22376   0.383   2.969  13.453  0.2323  0.0696  0.1397
  317CLA    CLA22377   2.797   1.868   2.154  0.3451 -0.2570  0.1630
  318CLA    CLA22378   4.297   4.951  11.676 -0.1083  0.0311 -0.1007
  319CLA    CLA22379   4.671   5.233  14.637 -0.3891  0.0235 -0.2303
  320CLA    CLA22380   4.499   4.061  17.094 -0.1885  0.0299 -0.2800
  321CLA    CLA22381   0.977   4.967   2.766 -0.1475 -0.0539  0.2999
  322CLA    CLA22382   4.730   2.768  16.893  0.1350 -0.1715  0.1377
  323TIP3   OH222383   4.477   0.075   4.658 -0.2212  0.0333  0.9019
  323TIP3    H122384   4.391   0.108   4.628  0.2058  0.5352  0.2024
  323TIP3    H222385   4.517   0.150   4.701  0.7334  0.4384 -0.6450
  324TIP3   OH222386   4.777   1.545   2.988  0.0666  0.1439 -0.4230
  324TIP3    H122387   4.746   1.486   3.057 -1.7724 -0.1184 -1.4473
  324TIP3    H222388   4.697   1.580   2.949  1.1204  1.6264 -1.2782
  325TIP3   OH222389   4.929   3.627  12.717 -0.1219 -0.0496  0.2779
  325TIP3    H122390   4.843   3.643  12.678  0.3175 -0.8654 -1.0527
  325TIP3    H222391   4.986   3.607  12.643  1.0265 -0.3556  1.2256
  326TIP3   OH222392   0.988   5.211  15.746 -0.2555  0.1094 -0.6274
  326TIP3    H122393   0.905   5.252  15.723 -0.6595  0.2961  1.0917
  326TIP3    H222394   0.970   5.164  15.827  1.1324 -0.4374 -0.6198
  327TIP3   OH222395   3.201   0.318  11.798  0.0695 -0.9714 -0.1314
  327TIP3    H122396   3.123   0.348  11.753 -0.1002  0.5762  1.1354
  327TIP3    H222397   3.171   0.247  11.855 -0.5617  0.0593  0.8447
  328TIP3   OH222398   6.469   1.092   4.167 -0.3744 -0.1198  0.2148
  328TIP3    H122399   6.475   1.161   4.233 -0.6157 -1.3019  1.4868
  328TIP3    H222400   6.534   1.117   4.101 -0.0623  1.0188  0.9341
  329TIP3   OH222401   3.972   0.081   4.038 -0.1819 -0.4632 -0.1958
  329TIP3    H122402   4.032   0.084   3.963 -0.6914 -0.8268 -0.6121
  329TIP3    H222403   3.972   0.171   4.071  0.6589 -0.4761 -0.1454
  330TIP3   OH222404   3.512   5.309   4.857  0.2517 -0.2579 -0.9428
  330TIP3    H122405   3.552   5.248   4.795 -0.9963 -1.2859 -0.7292
  330TIP3    H222406   3.419   5.305   4.839  0.1964  2.1589 -1.4381
  331TIP3   OH222407   1.753   2.767   0.369  0.3377  0.0575 -0.1786
  331TIP3    H122408   1.700   2.771   0.289 -0.1639  0.6652  0.1771
  331TIP3    H222409   1.764   2.859   0.395 -0.4235 -0.1972  1.0647
  332TIP3   OH222410   3.999   3.637  16.241  0.6391  0.5866  0.6503
  332TIP3    H122411   3.904   3.627  16.242  0.5086  1.6808 -0.2992
  332TIP3    H222412   4.023   3.636  16.148  1.4573  1.1686  0.8483
  333TIP3   OH222413   6.579   5.194   5.162  0.1301  0.1066  0.1317
  333TIP3    H122414   6.535   5.111   5.175 -0.8249  0.9270  2.3934
  333TIP3    H222415   6.594   5.199   5.067  0.3204 -2.6552 -0.0157
  334TIP3   OH222416   2.453   0.247  13.853  0.4750 -0.2680 -0.1326
  334TIP3    H122417   2.406   0.168  13.827  1.9088 -0.5551 -2.0015
  334TIP3    H222418   2.544   0.229  13.830  1.1156  1.2034  1.1700
  335TIP3   OH222419   6.056   3.768   0.054  0.1669  0.6109  0.2253
  335TIP3    H122420   6.130   3.803   0.006 -0.5410 -0.3998 -1.6268
  335TIP3    H222421   5.982   3.821   0.026 -0.3251 -0.2482 -0.1082
  336TIP3   OH222422   2.233   3.620   6.241 -0.0036  0.0191  1.0465
  336TIP3    H122423   2.158   3.610   6.300 -0.8765 -0.4036 -0.1116
  336TIP3    H222424   2.261   3.711   6.253 -1.5647  0.5924  0.4989
  337TIP3   OH222425   1.967   0.960   4.781 -0.2729  0.1506 -0.1157
  337TIP3    H122426   1.924   1.033   4.825 -1.0468 -1.1809  1.4127
  337TIP3    H222427   1.906   0.936   4.711 -0.9918 -0.2706  0.6279
  338TIP3   OH222428   1.948   5.610  14.096  0.4723  0.3481 -0.5274
  338TIP3    H122429   1.855   5.621  14.114  0.1689 -1.4970 -0.9096
  338TIP3    H222430   1.992   5.661  14.164 -0.7862 -0.2170  0.7158
  339TIP3   OH222431   5.064   5.754   1.060 -0.2116  0.7870  0.4899
  339TIP3    H122432   5.123   5.828   1.049 -1.4542  1.7093 -0.0809
  339TIP3    H222433   5.027   5.738   0.973  0.1723 -0.6238  0.5667
  340TIP3   OH222434   3.760   4.753  13.639 -0.3604  0.0447 -0.3731
  340TIP3    H122435   3.702   4.677  13.638  0.0286 -0.2841  0.7436
  340TIP3    H222436   3.827   4.731  13.704 -1.5234  2.2980  1.6719
  341TIP3   OH222437   4.711   5.524  14.600 -0.4892 -0.2058 -0.1081
  341TIP3    H122438   4.706   5.430  14.616 -1.2519 -0.0121  0.8666
  341TIP3    H222439   4.736   5.532  14.508 -2.0161 -1.3616 -0.6433
  342TIP3   OH222440   1.123   2.879  15.299 -0.4024  0.0442  0.1590
  342TIP3    H122441   1.187   2.865  15.230  0.3782 -0.1016  0.9017
  342TIP3    H222442   1.137   2.807  15.360 -0.9595  0.2737  0.5648
  343TIP3   OH222443   5.074   5.828  15.037 -0.0428  0.0981 -0.2330
  343TIP3    H122444   5.075   5.876  15.120 -0.1942 -1.7901  0.8903
  343TIP3    H222445   5.079   5.736  15.062 -1.3117 -0.5674 -2.2855
  344TIP3   OH222446   5.586   2.104  11.236 -0.0625  0.0950 -0.2793
  344TIP3    H122447   5.525   2.159  11.285 -0.0292  0.6333 -0.8381
  344TIP3    H222448   5.580   2.136  11.146  1.0432  0.1541 -0.3422
  345TIP3   OH222449   6.756   4.440   3.462 -0.3412 -0.3051  0.1812
  345TIP3    H122450   6.789   4.420   3.374 -0.4628 -0.5285  0.1860
  345TIP3    H222451   6.797   4.524   3.484  0.1799 -0.5495  0.1619
  346TIP3   OH222452   3.097   1.046  14.660 -0.0391 -0.5978 -0.4297
  346TIP3    H122453   3.007   1.079  14.654  0.1272  0.1594  0.8743
  346TIP3    H222454   3.116   1.009  14.574 -0.4463  2.2514 -1.8032
  347TIP3   OH222455   5.271   6.757  13.280 -0.2295  0.9030 -0.5740
  347TIP3    H122456   5.178   6.767  13.258 -0.3462 -1.4413 -1.2620
  347TIP3    H222457   5.314   6.737  13.197 -0.0426 -3.8731  0.5127
  348TIP3   OH222458   5.631   4.035   3.826  0.1958 -0.0536  0.3928
  348TIP3    H122459   5.685   3.957   3.839 -1.3602 -1.4385 -1.1290
  348TIP3    H222460   5.622   4.073   3.914 -0.2926 -2.4615  1.4316
  349TIP3   OH222461   1.666   6.472  16.318  0.0550 -0.0675 -0.5701
  349TIP3    H122462   1.741   6.459  16.377  0.1559  0.2312 -0.6339
  349TIP3    H222463   1.596   6.420  16.357  0.2575 -0.2414 -0.4393
  350TIP3   OH222464   0.021   5.409  12.028  0.1862  0.1504 -0.1221
  350TIP3    H122465  -0.063   5.394  11.985 -0.5561 -0.3219  1.4871
  350TIP3    H222466  -0.000   5.460  12.106  1.6775  2.0666 -0.9199
  351TIP3   OH222467   5.868   0.094  14.356  0.4522  0.4085 -0.7893
  351TIP3    H122468   5.825   0.067  14.274  0.8342  0.8283 -1.1320
  351TIP3    H222469   5.960   0.103  14.333  0.3057  2.1783 -0.7439
  352TIP3   OH222470   1.559   3.757   3.570  0.3454  0.2703  0.4052
  352TIP3    H122471   1.589   3.756   3.479  0.5820  3.6979  0.3908
  352TIP3    H222472   1.639   3.740   3.621  0.7078  0.9622  0.0728
  353TIP3   OH222473   0.607   0.885   4.951  0.2710 -0.0020  0.0747
  353TIP3    H122474   0.525   0.890   5.000  0.3812 -0.2503  0.2848
  353TIP3    H222475   0.581   0.849   4.865  0.3858 -1.5700  0.6777
  354TIP3   OH222476   2.134   4.981   6.133  0.0490 -0.5177 -0.1869
  354TIP3    H122477   2.198   5.052   6.126 -0.5342 -0.0116 -0.4647
  354TIP3    H222478   2.180   4.912   6.180  0.4157  0.2943  0.6734
  355TIP3   OH222479   6.174   4.671   0.793  0.1877 -0.3926  0.3275
  355TIP3    H122480   6.145   4.762   0.785 -2.5033 -1.1769  0.5888
  355TIP3    H222481   6.146   4.645   0.880  0.9733 -1.4721  0.2634
  356TIP3   OH222482   4.179   4.041  11.922  0.9557 -0.0416  0.1480
  356TIP3    H122483   4.142   4.031  12.010  0.1606  1.6431  0.0265
  356TIP3    H222484   4.219   3.956  11.903 -0.2603 -0.9350  1.4849
  357TIP3   OH222485   5.917   5.270  16.722 -0.3269  0.4515 -0.0256
  357TIP3    H122486   5.866   5.350  16.728  0.3571  0.9364 -0.6034
  357TIP3    H222487   5.854   5.200  16.738 -1.2782  0.9993 -1.2965
  358TIP3   OH222488   4.376   2.505  13.806 -0.1080  0.5930 -0.3814
  358TIP3    H122489   4.366   2.410  13.811  1.1299  0.4789 -0.0159
  358TIP3    H222490   4.336   2.537  13.887 -0.1370  0.3594 -0.3013
  359TIP3   OH222491   3.346   5.834   5.480  0.0064  0.0635  0.2801
  359TIP3    H122492   3.285   5.881   5.423 -0.7659 -2.7754 -1.3259
  359TIP3    H222493   3.296   5.758   5.511  1.4150 -0.0634  2.3512
  360TIP3   OH222494   0.053   3.776  15.593 -0.0926 -0.1033  0.4258
  360TIP3    H122495   0.003   3.695  15.584 -1.2118  0.6168 -0.0025
  360TIP3    H222496   0.124   3.767  15.529  0.4606 -1.2214  1.1835
  361TIP3   OH222497   1.209   3.617  11.647 -0.2114 -0.7556 -0.1394
  361TIP3    H122498   1.178   3.559  11.577 -0.2906 -0.2798 -0.5006
  361TIP3    H222499   1.288   3.657  11.611  0.1061 -0.9867  0.2882
  362TIP3   OH222500   4.898   0.219  14.909 -0.5467 -0.3707 -0.4231
  362TIP3    H122501   4.814   0.224  14.955  0.5290  0.2091  1.5035
  362TIP3    H222502   4.964   0.222  14.978  1.0885 -0.2707 -1.9543
  363TIP3   OH222503   6.447   5.816   2.821  0.6185  0.8852  0.4571
  363TIP3    H122504   6.491   5.768   2.891  1.8777  1.4014  0.0277
  363TIP3    H222505   6.467   5.908   2.838 -1.6745  1.2815  1.2048
  364TIP3   OH222506   0.179   6.014   3.409 -0.1312  0.2097 -0.4610
  364TIP3    H122507   0.118   6.007   3.483 -1.1203  2.9338 -0.9460
  364TIP3    H222508   0.254   6.062   3.444  1.7777 -3.0587  0.1088
  365TIP3   OH222509   1.466   6.673   3.074 -0.2466  0.3497  0.2213
  365TIP3    H122510   1.500   6.736   3.010  2.3179  1.2788  2.3692
  365TIP3    H222511   1.495   6.588   3.042 -0.2412  0.6650 -0.6138
  366TIP3   OH222512   5.872   5.003  15.012 -0.1572  0.2986  0.6035
  366TIP3    H122513   5.914   4.927  14.972  2.5291  1.3847  1.2882
  366TIP3    H222514   5.815   5.038  14.943  1.1621 -0.3686 -0.8402
  367TIP3   OH222515   2.827   5.357  11.335 -0.3053 -0.6390 -0.5330
  367TIP3    H122516   2.912   5.401  11.334 -0.3597 -0.4774  1.5296
  367TIP3    H222517   2.773   5.409  11.276  0.6004  0.1156 -0.7070
  368TIP3   OH222518   1.586   0.905   0.656  0.2722 -0.2144 -0.2002
  368TIP3    H122519   1.566   0.883   0.565  1.3671  0.2716 -0.5627
  368TIP3    H222520   1.501   0.903   0.700 -0.3947  0.4780 -1.4312
  369TIP3   OH222521   3.202   5.177  11.877  0.4367  0.0275 -0.7644
  369TIP3    H122522   3.252   5.187  11.958  1.8504  0.1977 -1.6473
  369TIP3    H222523   3.202   5.265  11.838 -0.5225  0.0212 -0.8059
  370TIP3   OH222524   0.933   5.165  11.392 -0.2155  0.6175 -0.3051
  370TIP3    H122525   0.858   5.106  11.395 -0.0827  0.5462  2.5262
  370TIP3    H222526   0.991   5.126  11.326 -1.6952 -0.4901 -0.9788
  371TIP3   OH222527   0.236   6.630  14.513  0.1725 -0.6413  0.3104
  371TIP3    H122528   0.264   6.662  14.599 -1.1105 -1.2361  0.9623
  371TIP3    H222529   0.195   6.545  14.531  0.1615 -0.9064 -0.9266
  372TIP3   OH222530   1.982   6.114   2.442  0.3745  0.3810 -0.5302
  372TIP3    H122531   1.976   6.022   2.419 -0.1863  0.1316  0.5730
  372TIP3    H222532   1.903   6.131   2.493  1.5954  0.8890  1.2351
  373TIP3   OH222533   2.236   4.891  12.465 -0.1769 -0.0176 -0.4080
  373TIP3    H122534   2.152   4.905  12.507  0.5842 -0.6501  1.3765
  373TIP3    H222535   2.240   4.957  12.396 -2.3934 -0.3933 -0.9503
  374TIP3   OH222536   6.370   2.596   2.416 -0.6987  0.3593 -0.4082
  374TIP3    H122537   6.351   2.563   2.328 -0.2299 -0.4865 -0.1975
  374TIP3    H222538   6.461   2.571   2.431 -0.3327  1.7785 -0.2537
  375TIP3   OH222539   1.638   4.910  10.491 -0.3464 -0.1016  0.2298
  375TIP3    H122540   1.715   4.937  10.440 -1.5073  1.5859 -0.6921
  375TIP3    H222541   1.639   4.815  10.488 -0.0622 -0.0439 -2.4849
  376TIP3   OH222542   4.885   3.962  15.705  0.2635  0.0437  0.3149
  376TIP3    H122543   4.935   3.885  15.677  0.1225 -0.5602  1.6480
  376TIP3    H222544   4.854   3.939  15.793 -3.3601 -0.1004 -0.9150
  377TIP3   OH222545   2.994   4.154  14.049 -0.1093 -0.1232  0.3503
  377TIP3    H122546   3.016   4.173  13.958 -0.4521  0.0799  0.3066
  377TIP3    H222547   2.954   4.236  14.082  0.7575  0.0808  0.9217
  378TIP3   OH222548   5.423   4.382   3.626  0.0643 -0.0904 -0.3074
  378TIP3    H122549   5.510   4.343   3.636  0.0006 -0.1996 -0.1932
  378TIP3    H222550   5.362   4.312   3.649 -0.0371  0.2484  0.4780
  379TIP3   OH222551   2.161   3.458  14.346  0.3147  0.5597  0.4847
  379TIP3    H122552   2.248   3.425  14.324 -0.1154 -0.1756 -0.1182
  379TIP3    H222553   2.147   3.430  14.436  1.4555  2.2745  1.2366
  380TIP3   OH222554   3.045   4.613   6.257  0.4624  0.0197  0.2653
  380TIP3    H122555   3.038   4.676   6.329  1.3922 -0.6517  0.9553
  380TIP3    H222556   3.013   4.660   6.180 -2.5787  0.0545  1.4989
  381TIP3   OH222557   0.923   5.474   1.504 -0.1862  0.4100 -0.2089
  381TIP3    H122558   0.936   5.568   1.518 -2.1179  0.6043  0.3952
  381TIP3    H222559   0.927   5.435   1.591 -0.1691  0.0291 -0.3759
  382TIP3   OH222560   0.727   4.222   1.995 -1.2287 -0.1591 -0.1026
  382TIP3    H122561   0.707   4.310   1.963 -2.4192  0.0892  1.2618
  382TIP3    H222562   0.692   4.221   2.084  2.4985 -0.6308  1.4275
  383TIP3   OH222563   1.429   3.910   3.750  0.1818 -0.2178  0.2248
  383TIP3    H122564   1.398   3.870   3.830 -0.2106 -1.3820 -0.5050
  383TIP3    H222565   1.461   3.837   3.697 -2.1368  0.2224 -1.8285
  384TIP3   OH222566   1.932   1.438  12.940 -0.4290  0.0880  0.3351
  384TIP3    H122567   1.878   1.473  13.010 -0.8637  2.3727 -1.0796
  384TIP3    H222568   2.021   1.437  12.975 -0.5567  1.7753  0.7222
  385TIP3   OH222569   6.050   5.333   3.395  0.0950 -0.0911  0.5622
  385TIP3    H122570   6.088   5.420   3.399  2.1381 -1.0502  2.9290
  385TIP3    H222571   6.107   5.283   3.337 -1.4764  0.2993 -1.3746
  386TIP3   OH222572   6.570   4.675  12.223 -0.4840  0.2144  0.1117
  386TIP3    H122573   6.638   4.610  12.242 -0.6216  0.8925  3.3009
  386TIP3    H222574   6.616   4.759  12.226 -1.3129  0.6404  1.8462
  387TIP3   OH222575   6.508   0.910  15.231  0.3431 -0.0367  0.3253
  387TIP3    H122576   6.532   0.949  15.147  3.0728 -0.7666  0.7236
  387TIP3    H222577   6.442   0.845  15.209 -1.6511  2.2627 -0.7843
  388TIP3   OH222578   2.882   2.009   3.528 -0.4623  0.1208  0.7650
  388TIP3    H122579   2.911   1.920   3.545  1.6162  0.7158  0.4839
  388TIP3    H222580   2.836   2.004   3.444 -1.2276 -0.8500  1.2360
  389TIP3   OH222581   5.438   1.933  11.509  0.4139  0.1115  0.4751
  389TIP3    H122582   5.440   1.877  11.432  0.6684  0.5417  0.1692
  389TIP3    H222583   5.509   1.900  11.564 -0.2094 -0.6462  0.8528
  390TIP3   OH222584   2.963   3.800   0.180 -0.7194 -0.7550 -0.4982
  390TIP3    H122585   2.929   3.860   0.246 -1.0987 -1.8593  0.3417
  390TIP3    H222586   3.056   3.792   0.202  0.2871  2.6993 -3.1362
  391TIP3   OH222587   0.805   4.268  13.897 -0.2102 -0.6893 -0.5910
  391TIP3    H122588   0.751   4.223  13.961 -0.5737 -0.9301 -1.0629
  391TIP3    H222589   0.870   4.315  13.949 -2.5083  1.7934  0.1709
  392TIP3   OH222590   4.112   0.653   3.760  0.1263 -0.3988 -0.1471
  392TIP3    H122591   4.200   0.617   3.744  0.1500 -0.4543  0.0993
  392TIP3    H222592   4.083   0.609   3.840  0.2139  0.2454  0.2403
  393TIP3   OH222593   5.296   0.333   4.346 -0.2550  0.1961  0.1744
  393TIP3    H122594   5.347   0.365   4.421  2.7310 -0.8972 -1.2970
  393TIP3    H222595   5.235   0.271   4.384  1.4280 -0.5881  1.7111
  394TIP3   OH222596   3.071   6.386   5.300 -0.2106 -0.1053  0.2068
  394TIP3    H122597   3.078   6.303   5.347 -0.7389 -0.3202 -0.0968
  394TIP3    H222598   3.064   6.361   5.208  1.0530  0.3225 -0.0201
  395TIP3   OH222599   3.407   4.697   5.079  0.3513  0.4418 -0.1337
  395TIP3    H122600   3.331   4.696   5.022  0.6155 -1.1935 -0.4806
  395TIP3    H222601   3.371   4.715   5.166 -0.3002  0.8189 -0.4797
  396TIP3   OH222602   2.659   4.315   3.377  0.3386 -0.1378 -0.3513
  396TIP3    H122603   2.595   4.303   3.447 -0.9530 -0.6714 -1.5957
  396TIP3    H222604   2.742   4.326   3.422 -0.8582  2.3973  1.3836
  397TIP3   OH222605   2.585   5.204   1.590 -0.3228  0.4040  0.6280
  397TIP3    H122606   2.597   5.118   1.630 -0.4164  0.5189  0.9042
  397TIP3    H222607   2.502   5.236   1.625 -1.1987 -0.1686 -0.8837
  398TIP3   OH222608   5.809   3.892   5.567 -0.0037 -0.3265  0.5380
  398TIP3    H122609   5.820   3.978   5.608  1.5568 -0.0000 -0.5365
  398TIP3    H222610   5.872   3.836   5.612  2.4916  0.2848 -2.0523
  399TIP3   OH222611   0.316   3.302  11.944  0.2621 -0.2366  0.1477
  399TIP3    H122612   0.255   3.374  11.928 -1.4886 -1.9143 -0.7870
  399TIP3    H222613   0.270   3.244  12.005  2.1964  0.0683  1.9700
  400TIP3   OH222614   3.578   0.326   2.098 -0.3918  0.2031  0.4744
  400TIP3    H122615   3.665   0.352   2.129  1.3065 -3.2087 -1.0285
  400TIP3    H222616   3.591   0.307   2.005 -2.2983 -2.0188  0.5995
  401TIP3   OH222617   4.036   1.627   0.340 -0.4313 -0.0536  0.0384
  401TIP3    H122618   4.109   1.612   0.280 -0.2084  0.6495  0.1276
  401TIP3    H222619   3.970   1.673   0.287 -0.6657 -0.3565  0.0594
  402TIP3   OH222620   5.786   2.591  11.188 -0.5893  0.0880 -0.1159
  402TIP3    H122621   5.703   2.544  11.178 -1.0921  0.5517  1.6652
  402TIP3    H222622   5.761   2.683  11.192  0.0185  0.2385  0.3357
  403TIP3   OH222623   6.650   0.830  15.887  0.1447  0.3779  0.4444
  403TIP3    H122624   6.679   0.885  15.960  0.1203  0.3450  0.4798
  403TIP3    H222625   6.582   0.882  15.844  0.7754  0.7735 -0.0788
  404TIP3   OH222626   0.194   2.260   4.084  0.4417  0.2998  0.1054
  404TIP3    H122627   0.218   2.303   4.001  0.0063  1.0880  0.3796
  404TIP3    H222628   0.104   2.289   4.100  0.8983  1.0123  1.4026
  405TIP3   OH222629   4.066   2.810  10.999  0.4242  0.3400  0.2164
  405TIP3    H122630   4.036   2.867  10.928  2.2759  0.7621 -0.2611
  405TIP3    H222631   4.112   2.868  11.059 -1.3602  0.0189  1.9039
  406TIP3   OH222632   1.293   2.052   1.493  0.1711  0.0507 -0.6254
  406TIP3    H122633   1.353   1.982   1.517 -0.5701  0.0466  1.2685
  406TIP3    H222634   1.338   2.132   1.519  0.4501  0.2224 -1.5934
  407TIP3   OH222635   5.131   6.184  16.491  0.2412 -0.0993 -0.5665
  407TIP3    H122636   5.127   6.189  16.586  0.3033 -1.3480 -0.4956
  407TIP3    H222637   5.219   6.152  16.472  0.2408  0.1713 -1.0528
  408TIP3   OH222638   6.351   1.426   2.482  0.0372  0.3879 -0.0363
  408TIP3    H122639   6.278   1.483   2.509 -0.8009  0.4211 -2.3098
  408TIP3    H222640   6.339   1.346   2.534 -0.5874  1.0749  0.8968
  409TIP3   OH222641   3.040   4.320   4.713 -0.6128  0.0398  0.0900
  409TIP3    H122642   3.068   4.408   4.739 -0.3930  0.1137 -0.3896
  409TIP3    H222643   2.963   4.302   4.767 -1.8533  1.3250 -1.2144
  410TIP3   OH222644   3.388   6.606   0.083  0.3839 -0.5605  0.1844
  410TIP3    H122645   3.421   6.692   0.056  3.0468 -1.7008 -0.2818
  410TIP3    H222646   3.317   6.626   0.145  1.7305  1.9685  0.9743
  411TIP3   OH222647   6.044   5.196   3.641 -0.6355  0.1341 -0.1359
  411TIP3    H122648   6.029   5.242   3.559 -3.0536  1.8780  1.2325
  411TIP3    H222649   6.082   5.261   3.699  1.8794 -1.3126 -0.0894
  412TIP3   OH222650   3.756   4.205  14.906  0.4243 -0.1365 -0.1511
  412TIP3    H122651   3.689   4.171  14.848  0.5156 -1.1530  0.3276
  412TIP3    H222652   3.839   4.175  14.868  0.5617  0.4596 -0.3209
  413TIP3   OH222653   2.770   4.997  14.754 -0.5426 -0.0594  0.0080
  413TIP3    H122654   2.803   5.087  14.756 -1.6812  0.3661 -0.2961
  413TIP3    H222655   2.692   5.000  14.698 -2.6512 -0.5125  2.8061
  414TIP3   OH222656   1.564   1.550   4.148  0.4477 -0.1369 -0.0117
  414TIP3    H122657   1.619   1.476   4.174  1.0651  0.2547 -0.1865
  414TIP3    H222658   1.532   1.587   4.230  0.0624 -0.6619  0.0700
  415TIP3   OH222659   2.018   5.157   4.318  0.0951 -0.0840 -0.1482
  415TIP3    H122660   2.085   5.225   4.313  0.9303 -0.8557  0.2886
  415TIP3    H222661   2.031   5.116   4.404  1.2221 -2.3942 -1.3591
  416TIP3   OH222662   5.741   4.932   1.758  0.0442 -0.3723  0.4128
  416TIP3    H122663   5.670   4.994   1.776 -2.7451 -2.4465 -2.8676
  416TIP3    H222664   5.802   4.980   1.703 -0.3143  0.5029  0.7653
  417TIP3   OH222665   1.834   1.598  14.885  0.1157  0.3163  0.1026
  417TIP3    H122666   1.802   1.630  14.970 -2.1412 -0.4670 -0.4206
  417TIP3    H222667   1.851   1.505  14.900  0.6690  0.3918 -0.0480
  418TIP3   OH222668   0.968   4.536  16.242 -0.5228  0.0971 -0.7287
  418TIP3    H122669   0.987   4.446  16.218  1.3206 -0.4963  2.6622
  418TIP3    H222670   1.049   4.584  16.221  0.0765  0.1017  1.5137
  419TIP3   OH222671   1.102   2.657  11.299 -0.4152  0.0268  0.5317
  419TIP3    H122672   1.058   2.629  11.379 -2.0040  0.3075 -0.2271
  419TIP3    H222673   1.150   2.579  11.270 -0.4028 -0.2860  1.3701
  420TIP3   OH222674   3.440   0.866  12.329  0.0231  0.0175 -0.3363
  420TIP3    H122675   3.378   0.799  12.299 -1.0496  1.0981 -0.5716
  420TIP3    H222676   3.493   0.821  12.396  0.3868 -1.5064 -1.6213
  421TIP3   OH222677   0.643   2.298  13.462 -0.1084 -0.2347  0.1927
  421TIP3    H122678   0.711   2.263  13.520  0.5643  0.9660  0.1434
  421TIP3    H222679   0.643   2.392  13.479 -2.6137 -0.3481  1.0715
  422TIP3   OH222680   2.639   2.291   4.015 -0.2372 -0.0065 -0.2766
  422TIP3    H122681   2.734   2.305   4.015 -0.0611 -1.1747  1.4535
  422TIP3    H222682   2.613   2.296   4.107 -1.7857 -0.2192 -0.6787
  423TIP3   OH222683   2.857   6.458  13.704  0.6707  0.5567  0.2119
  423TIP3    H122684   2.837   6.551  13.703  0.6316  0.5515 -1.5080
  423TIP3    H222685   2.782   6.417  13.748  0.9752  1.3844  1.5165
  424TIP3   OH222686   0.726   4.784  16.100  0.1167  0.0580 -0.5999
  424TIP3    H122687   0.686   4.785  16.186  1.7711 -1.0904  0.2213
  424TIP3    H222688   0.726   4.875  16.072 -2.2107  0.1938 -0.2636
  425TIP3   OH222689   2.431   2.993   4.555  0.0640 -0.3570  0.0101
  425TIP3    H122690   2.480   2.923   4.600  1.1936 -0.5464 -1.5081
  425TIP3    H222691   2.404   3.052   4.626  1.3821 -0.9222  1.0016
  426TIP3   OH222692   3.824   4.922  11.885 -0.0570  0.3729  0.2536
  426TIP3    H122693   3.865   4.851  11.836 -0.2662  0.1012  0.4659
  426TIP3    H222694   3.850   5.002  11.839  2.9188  0.4339  1.9365
  427TIP3   OH222695   3.667   3.848   1.457 -0.5847 -0.2558 -0.1015
  427TIP3    H122696   3.715   3.766   1.463 -0.1918 -0.0001  0.3028
  427TIP3    H222697   3.726   3.913   1.496 -1.6476 -0.1005  1.2605
  428TIP3   OH222698   1.040   1.872   3.475  0.8427  0.3612  0.9463
  428TIP3    H122699   1.076   1.888   3.388 -2.1581 -2.9845 -1.0568
  428TIP3    H222700   1.088   1.797   3.508  0.7499  0.5008  1.4038
  429TIP3   OH222701   6.565   3.621  13.502  0.1007 -0.1227 -0.0249
  429TIP3    H122702   6.477   3.586  13.515  0.2847 -0.0509  1.4072
  429TIP3    H222703   6.572   3.632  13.407 -0.9082 -1.4882 -0.2755
  430TIP3   OH222704   1.758   6.397  13.551 -0.0583 -0.2287 -0.4368
  430TIP3    H122705   1.743   6.406  13.457  2.2893  1.0614 -0.7215
  430TIP3    H222706   1.839   6.445  13.567  0.0152 -1.1445  2.1202
  431TIP3   OH222707   3.189   5.416  15.831  0.3953 -0.7031  0.7773
  431TIP3    H122708   3.174   5.508  15.807 -1.0443 -1.0220  0.3824
  431TIP3    H222709   3.261   5.419  15.894  0.0346  0.7476  1.1466
  432TIP3   OH222710   0.048   4.197  15.678  0.1091  0.1303 -0.7116
  432TIP3    H122711   0.014   4.203  15.588  0.1621 -2.2966 -0.9363
  432TIP3    H222712  -0.026   4.164  15.729  0.6507 -0.3374 -0.2307
  433TIP3   OH222713   4.728   3.039  11.756 -0.1379 -0.3352 -0.2628
  433TIP3    H122714   4.793   3.002  11.696 -2.6551 -2.2010 -1.9752
  433TIP3    H222715   4.669   3.089  11.698 -0.5481  0.8959  1.1872
  434TIP3   OH222716   6.014   1.095  12.674 -0.1140  0.7710  0.1183
  434TIP3    H122717   6.063   1.025  12.717  0.5603 -0.7014 -2.8891
  434TIP3    H222718   5.924   1.084  12.705 -0.3008 -2.3457 -1.3539
  435TIP3   OH222719   1.880   5.856   0.169 -0.0995 -0.1849 -0.2500
  435TIP3    H122720   1.870   5.787   0.234 -1.0072 -0.8971 -1.1291
  435TIP3    H222721   1.967   5.893   0.185  0.0458 -0.9649  0.7636
  436TIP3   OH222722   4.983   2.604  11.597 -0.7321  0.1802  0.2017
  436TIP3    H122723   4.954   2.610  11.506  1.1165 -0.3170 -0.4595
  436TIP3    H222724   4.938   2.527  11.631  0.4022 -1.0877 -1.0571
  437TIP3   OH222725   0.971   3.983  12.835 -0.3708 -0.1337 -0.1871
  437TIP3    H122726   0.913   3.929  12.781  0.3030 -0.1574 -0.9006
  437TIP3    H222727   0.912   4.033  12.892 -1.0077 -1.6274  0.4944
  438TIP3   OH222728   5.638   1.592  16.330 -0.1485 -0.0774 -0.1372
  438TIP3    H122729   5.586   1.671  16.318  1.0849  0.3965 -2.7969
  438TIP3    H222730   5.722   1.611  16.287  0.8276 -2.1827  0.7259
  439TIP3   OH222731   3.416   4.824  12.284  0.3213 -0.3424  0.5967
  439TIP3    H122732   3.458   4.865  12.208  1.3123 -0.7501  0.9146
  439TIP3    H222733   3.325   4.855  12.281  0.4986  0.1064 -0.4209
  440TIP3   OH222734   3.164   0.603  14.435  0.0845  0.3593 -0.1125
  440TIP3    H122735   3.200   0.575  14.351  0.2502  1.9085 -0.5631
  440TIP3    H222736   3.136   0.693  14.421 -1.0135  0.2302  1.1517
  441TIP3   OH222737   1.743   4.457  15.675  0.0485  0.1508 -0.0918
  441TIP3    H122738   1.835   4.435  15.660 -0.3803 -2.2088  0.4095
  441TIP3    H222739   1.729   4.439  15.768 -1.1975 -0.6528 -0.4211
  442TIP3   OH222740   4.022   2.835  14.857 -0.3755  0.3239 -0.3566
  442TIP3    H122741   3.938   2.862  14.893 -1.4425 -1.7162 -1.2187
  442TIP3    H222742   4.000   2.789  14.776  1.6033  0.2205 -0.8627
  443TIP3   OH222743   2.092   5.692  15.954 -0.5941  0.0982  0.7558
  443TIP3    H122744   2.121   5.673  16.043 -0.2154 -0.4545  0.5199
  443TIP3    H222745   2.163   5.658  15.898 -0.6084  0.8470  0.2629
  444TIP3   OH222746   3.348   4.096   3.270 -0.0704 -0.4247  0.4409
  444TIP3    H122747   3.381   4.055   3.190 -0.2773 -2.0191  1.1441
  444TIP3    H222748   3.426   4.127   3.315  0.1465 -0.5707  0.1656
  445TIP3   OH222749   6.266   5.574   2.004 -0.3496  0.3427  0.1341
  445TIP3    H122750   6.288   5.667   2.004  0.5567  0.1707 -1.9371
  445TIP3    H222751   6.347   5.530   2.028 -0.1302  0.0021 -1.1717
  446TIP3   OH222752   4.442   2.311   0.375 -0.2840 -0.2366  0.3076
  446TIP3    H122753   4.382   2.358   0.317 -0.1907  1.6202  1.6621
  446TIP3    H222754   4.456   2.227   0.332 -3.3279 -0.4456 -0.3827
  447TIP3   OH222755   2.097   5.852  15.161 -0.0511 -0.2462  0.1171
  447TIP3    H122756   2.094   5.865  15.255  1.3876 -0.4074  0.1991
  447TIP3    H222757   2.156   5.777  15.149  0.4629  0.3095 -0.9434
  448TIP3   OH222758   0.847   6.729   3.373  0.1851  0.1884  0.2397
  448TIP3    H122759   0.788   6.657   3.394 -0.6509  0.7354 -0.1888
  448TIP3    H222760   0.840   6.789   3.447 -0.2269  0.5232 -0.0695
  449TIP3   OH222761   3.784   3.805  16.065  0.1620  0.1153 -0.4185
  449TIP3    H122762   3.779   3.735  15.999  0.6442 -0.7942  0.4947
  449TIP3    H222763   3.704   3.795  16.117 -0.0472  0.6098 -0.6395
  450TIP3   OH222764   6.575   1.646  11.164  0.1573  0.0398  0.4271
  450TIP3    H122765   6.606   1.736  11.166  0.5892 -0.1169  1.8227
  450TIP3    H222766   6.529   1.635  11.247 -0.4108 -0.8458  0.0011
  451TIP3   OH222767   3.295   2.735   5.016  0.4329 -0.3993  0.2869
  451TIP3    H122768   3.266   2.650   4.984  0.7112 -0.9258  1.3995
  451TIP3    H222769   3.214   2.780   5.042  0.4581 -1.3287  2.0876
  452TIP3   OH222770   0.038   3.758  16.076 -0.2837 -0.1682 -1.0044
  452TIP3    H122771   0.040   3.850  16.102  0.6784  0.2188 -2.4298
  452TIP3    H222772   0.116   3.720  16.117 -0.1060 -0.1114 -1.2895
  453TIP3   OH222773   3.933   2.109   5.770 -0.6763 -0.3933 -0.0894
  453TIP3    H122774   3.932   2.112   5.865 -0.3140  1.8409 -0.1255
  453TIP3    H222775   4.007   2.052   5.749 -0.7144 -0.8394  0.9445
  454TIP3   OH222776   6.542   6.283  15.944  0.1733  0.4752 -0.4080
  454TIP3    H122777   6.551   6.282  15.848 -0.8471  0.6861 -0.5123
  454TIP3    H222778   6.617   6.333  15.974  0.0677  1.0966 -1.1566
  455TIP3   OH222779   1.856   2.358   5.272  0.2470  0.4312  0.7886
  455TIP3    H122780   1.792   2.398   5.213  0.3436 -1.6422 -0.7505
  455TIP3    H222781   1.896   2.433   5.318 -1.4080  1.9150 -0.1307
  456TIP3   OH222782   4.004   3.546   3.824  0.1647  0.0458 -0.1595
  456TIP3    H122783   4.029   3.584   3.908  1.5455  0.8255 -0.9030
  456TIP3    H222784   3.911   3.530   3.832  0.4786 -0.9215  1.9298
  457TIP3   OH222785   6.051   3.738   2.005 -0.6280 -0.1604  0.3429
  457TIP3    H122786   5.999   3.810   2.041  0.8323  1.5089 -0.8178
  457TIP3    H222787   5.985   3.678   1.968 -1.7830  2.5461 -2.2611
  458TIP3   OH222788   5.395   2.177   0.927  0.0791  0.1611 -0.0334
  458TIP3    H122789   5.448   2.100   0.948 -0.3678  0.1683  1.1811
  458TIP3    H222790   5.363   2.207   1.012 -1.0650  0.7453 -0.6675
  459TIP3   OH222791   4.547   5.936   5.085 -0.2015 -0.0851 -0.0542
  459TIP3    H122792   4.486   5.914   5.015 -1.0751  1.1198  0.3070
  459TIP3    H222793   4.609   5.997   5.044 -1.1139  1.1592  0.3594
  460TIP3   OH222794   1.979   0.317  13.186  0.6316  0.4838 -0.4200
  460TIP3    H122795   1.902   0.355  13.144  0.8464 -0.4789 -1.7295
  460TIP3    H222796   1.957   0.315  13.279 -0.1735  1.9261 -0.5667
  461TIP3   OH222797   0.422   3.888  10.634 -0.3221  0.0503 -0.3332
  461TIP3    H122798   0.408   3.794  10.623  0.3594 -0.0174 -0.6543
  461TIP3    H222799   0.448   3.899  10.725  0.0790 -0.1291 -0.4285
  462TIP3   OH222800   6.477   3.325   2.020  0.3054  0.8220  0.2668
  462TIP3    H122801   6.395   3.329   2.070 -1.0407 -3.4278 -1.4177
  462TIP3    H222802   6.544   3.314   2.087 -0.9744  0.0319  1.4540
  463TIP3   OH222803   1.427   4.349   0.242 -0.6087 -0.0653 -0.5187
  463TIP3    H122804   1.346   4.301   0.226  0.4799 -1.1411 -2.9967
  463TIP3    H222805   1.398   4.432   0.280 -2.8525 -0.4349 -1.3584
  464TIP3   OH222806   3.761   2.503   2.879  0.0228 -0.1676  0.1337
  464TIP3    H122807   3.764   2.597   2.861 -0.3567 -0.1508  0.1529
  464TIP3    H222808   3.672   2.476   2.855  0.6507 -0.8559 -1.5104
  465TIP3   OH222809   3.585   3.400   2.156  0.2956 -0.0346 -0.0346
  465TIP3    H122810   3.672   3.407   2.195  0.3712 -0.1737 -0.1776
  465TIP3    H222811   3.552   3.490   2.156  0.1508 -0.0863  0.6643
  466TIP3   OH222812   2.097   3.686   2.922  0.2059  0.5707  0.0898
  466TIP3    H122813   2.114   3.596   2.952  1.6917  0.2858 -1.5461
  466TIP3    H222814   2.007   3.684   2.890 -0.1185 -0.0652  1.0098
  467TIP3   OH222815   6.399   2.513   4.250 -0.2246  0.5257  0.3175
  467TIP3    H122816   6.398   2.543   4.341  0.0926  0.0294  0.4873
  467TIP3    H222817   6.431   2.588   4.200 -0.2676  0.7539  0.6343
  468TIP3   OH222818   5.214   1.787   0.473 -0.5277 -0.0270 -0.1114
  468TIP3    H122819   5.261   1.867   0.496 -1.2189  0.4198 -0.2388
  468TIP3    H222820   5.271   1.716   0.504 -0.0686  0.5179  0.3070
  469TIP3   OH222821   4.108   2.733  11.832  1.0320 -0.0607 -0.1669
  469TIP3    H122822   4.018   2.703  11.838  1.1832 -0.1860  1.8890
  469TIP3    H222823   4.152   2.666  11.780  0.2757 -0.8387  0.1758
  470TIP3   OH222824   0.010   3.995   1.766 -0.0701  0.1201 -0.1154
  470TIP3    H122825   0.009   4.052   1.843 -0.2838  1.7519 -1.3011
  470TIP3    H222826   0.093   4.014   1.723 -0.8748  0.7903 -1.4187
  471TIP3   OH222827   0.751   3.850   0.591 -0.1604  0.7432  0.4369
  471TIP3    H122828   0.752   3.916   0.660 -0.4160  0.8864  0.3078
  471TIP3    H222829   0.725   3.769   0.636 -1.7310  1.1279  0.2750
  472TIP3   OH222830   5.316   3.172   5.746  1.1742  0.4017 -0.8249
  472TIP3    H122831   5.401   3.215   5.749  1.3919 -0.0855  0.2403
  472TIP3    H222832   5.300   3.157   5.653  2.3455  0.3123 -1.0153
  473TIP3   OH222833   2.192   1.217   1.981 -0.0735 -0.3379  0.3556
  473TIP3    H122834   2.154   1.248   1.898 -1.2959 -0.3124  0.9110
  473TIP3    H222835   2.159   1.127   1.989  0.8384 -0.6756  0.3388
  474TIP3   OH222836   0.813   0.043  12.838 -0.0421 -0.3254  0.2151
  474TIP3    H122837   0.872   0.041  12.914  0.3253 -0.7421 -0.0766
  474TIP3    H222838   0.755  -0.033  12.852  1.2876 -1.5741 -0.9115
  475TIP3   OH222839   6.194   5.173  13.031 -0.4658  0.2029  0.1420
  475TIP3    H122840   6.254   5.199  12.961 -1.0972  0.8828 -0.1470
  475TIP3    H222841   6.202   5.242  13.096 -0.3541 -0.1079  0.4640
  476TIP3   OH222842   6.411   0.912   5.100 -0.0667  0.3998  0.2164
  476TIP3    H122843   6.480   0.929   5.036  0.6322  1.6062  1.2849
  476TIP3    H222844   6.432   0.826   5.136  0.2007  0.2452 -0.3085
  477TIP3   OH222845   4.689   6.709   2.217 -0.0415  0.4849  0.1808
  477TIP3    H122846   4.599   6.731   2.238 -1.0082 -0.6284 -2.4706
  477TIP3    H222847   4.691   6.613   2.219  0.4351  0.4134 -2.0713
  478TIP3   OH222848   5.267   6.249  11.649 -0.7925  0.4031 -0.7010
  478TIP3    H122849   5.360   6.230  11.664 -0.9540 -0.4640 -0.7841
  478TIP3    H222850   5.267   6.331  11.600 -0.0841  0.6467 -0.2865
  479TIP3   OH222851   3.752   2.577  16.336 -0.3124 -0.2147  0.2383
  479TIP3    H122852   3.845   2.576  16.359  0.1263 -2.6010 -1.5656
  479TIP3    H222853   3.711   2.623  16.409  1.9926 -1.1421  2.1928
  480TIP3   OH222854   2.120   5.419  15.604  0.1352  0.2641 -0.0003
  480TIP3    H122855   2.124   5.351  15.537  1.5669  1.0678 -0.7610
  480TIP3    H222856   2.077   5.377  15.678  0.3339 -1.2419 -0.7184
  481TIP3   OH222857   1.594   6.721  11.313  0.1771  1.1264 -0.0897
  481TIP3    H122858   1.610   6.675  11.231 -0.9686  1.0931 -0.3030
  481TIP3    H222859   1.568   6.653  11.375 -1.1420  1.4268 -0.3013
  482TIP3   OH222860   6.020   2.578   2.988 -0.0204 -0.6025  0.2513
  482TIP3    H122861   6.085   2.557   3.056  0.0011 -0.9511  0.1271
  482TIP3    H222862   6.069   2.629   2.923  0.6235 -2.4924 -0.7907
  483TIP3   OH222863   3.586   3.492  14.983  0.2603 -0.0741 -0.9872
  483TIP3    H122864   3.569   3.585  14.974 -4.7808 -0.9990 -2.5310
  483TIP3    H222865   3.621   3.466  14.898 -0.2470  0.0257 -1.2245
  484TIP3   OH222866   2.253   0.948  16.254  0.2378 -0.0606 -0.1925
  484TIP3    H122867   2.160   0.923  16.256  0.3664 -0.6094 -1.2697
  484TIP3    H222868   2.254   1.034  16.296 -0.7201 -0.1569  0.0647
  485TIP3   OH222869   2.387   1.070  13.360  0.3869  0.4290  0.3108
  485TIP3    H122870   2.457   1.034  13.414  1.7574  0.9641 -1.0794
  485TIP3    H222871   2.355   1.145  13.409 -1.0739 -1.4013  2.2323
  486TIP3   OH222872   4.062   3.962   0.742  0.5363 -0.2496 -0.2430
  486TIP3    H122873   4.014   3.880   0.759  1.3913 -0.9640 -1.1919
  486TIP3    H222874   4.033   3.990   0.656  2.2165 -0.9944 -1.0768
  487TIP3   OH222875   2.498   3.853  13.480 -0.3555  0.3360 -0.5098
  487TIP3    H122876   2.451   3.850  13.397 -0.5461  2.5787 -0.5234
  487TIP3    H222877   2.590   3.840  13.456 -0.3452  1.5079 -1.1621
  488TIP3   OH222878   0.461   5.354  15.925 -0.5038  0.1538  0.1561
  488TIP3    H122879   0.388   5.330  15.868  0.0845 -1.1324 -0.0755
  488TIP3    H222880   0.537   5.359  15.866  0.4276 -2.7911  1.0419
  489TIP3   OH222881   0.639   2.202   4.804  0.4744  0.1513  0.5432
  489TIP3    H122882   0.577   2.144   4.759 -0.0271  2.3080 -1.6822
  489TIP3    H222883   0.593   2.228   4.884 -0.4761 -0.2528  0.1421
  490TIP3   OH222884   5.514   2.540   5.717 -0.8134  0.1566 -0.0100
  490TIP3    H122885   5.510   2.598   5.641 -1.2415 -0.0406 -0.1394
  490TIP3    H222886   5.608   2.528   5.733 -0.7211  1.4132  0.4300
  491TIP3   OH222887   0.310   1.953  11.905 -0.2971 -0.0362  0.6461
  491TIP3    H122888   0.233   2.005  11.883 -0.2209  0.3138  1.2136
  491TIP3    H222889   0.351   1.999  11.978  1.6634  0.9876 -1.0409
  492TIP3   OH222890   4.429   5.674  16.271 -0.2086  0.0991  0.4368
  492TIP3    H122891   4.365   5.640  16.334  0.0722 -0.5820  0.3615
  492TIP3    H222892   4.383   5.674  16.187 -0.2656  0.0718  0.4688
  493TIP3   OH222893   4.887   6.108  13.043 -0.6055  0.4815  0.0767
  493TIP3    H122894   4.944   6.041  13.081 -1.9107 -0.0751  1.0863
  493TIP3    H222895   4.852   6.068  12.964  0.4074  0.8435 -0.5748
  494TIP3   OH222896   5.001   6.524   2.106  0.8813  0.0548  0.0188
  494TIP3    H122897   5.011   6.441   2.059  1.2853  0.0192  0.1649
  494TIP3    H222898   5.018   6.591   2.039 -0.5544  0.0498 -0.3708
  495TIP3   OH222899   4.128   1.779   5.199 -0.7250  0.1905  0.8406
  495TIP3    H122900   4.107   1.691   5.165  0.5807 -0.3955  1.5084
  495TIP3    H222901   4.085   1.839   5.138  2.7992 -0.7768 -2.8720
  496TIP3   OH222902   1.685   6.125  16.465 -0.2194 -0.6567 -0.6062
  496TIP3    H122903   1.741   6.184  16.515 -0.4788  1.1171 -2.3435
  496TIP3    H222904   1.718   6.037  16.485  0.6256  0.0956  1.4570
  497TIP3   OH222905   2.162   5.328   1.966  0.4028 -0.2523  0.0887
  497TIP3    H122906   2.232   5.263   1.970 -1.2438 -2.1061 -0.6948
  497TIP3    H222907   2.109   5.312   2.043 -0.3009 -0.1665 -0.3734
  498TIP3   OH222908   0.720   2.817  17.162  0.1260 -0.5527  0.2635
  498TIP3    H122909   0.796   2.779  17.119  0.8963 -0.1288  1.2088
  498TIP3    H222910   0.736   2.801  17.255 -1.0961 -0.7287  0.4423
  499TIP3   OH222911   0.016   1.790  15.090  0.4084  0.2967  0.3717
  499TIP3    H122912  -0.051   1.728  15.121  2.3568 -2.3740 -0.5506
  499TIP3    H222913  -0.026   1.876  15.097 -2.9915 -1.2456  0.1263
  500TIP3   OH222914   3.464   3.862  14.295 -0.3932 -0.1911  0.2739
  500TIP3    H122915   3.384   3.913  14.280 -1.1105 -1.1601  0.7065
  500TIP3    H222916   3.534   3.927  14.298 -1.0334  0.5795 -1.1059
  501TIP3   OH222917   1.894   4.690   6.054 -0.0128 -0.5784 -0.3689
  501TIP3    H122918   1.891   4.783   6.078 -1.4413 -0.9378  0.9287
  501TIP3    H222919   1.861   4.687   5.964  0.7382  0.2448 -0.6796
  502TIP3   OH222920   0.692   6.398  12.539  0.9884 -0.3799  0.1719
  502TIP3    H122921   0.685   6.316  12.587  2.9887 -0.4271  0.4308
  502TIP3    H222922   0.662   6.465  12.600 -1.4938 -0.9750 -0.3363
  503TIP3   OH222923   0.153   1.490   4.229  0.0667 -0.3363 -0.3112
  503TIP3    H122924   0.182   1.571   4.186 -0.9470  0.4749  0.5035
  503TIP3    H222925   0.223   1.469   4.291  0.5277 -0.3110 -0.8245
  504TIP3   OH222926   6.036   5.018  16.369 -0.0862 -0.5634  0.0539
  504TIP3    H122927   6.094   5.094  16.380 -0.3873 -0.7322  3.1863
  504TIP3    H222928   5.982   5.040  16.293  3.4481 -0.0371 -2.4458
  505TIP3   OH222929   5.288   0.500  15.669  0.7845  0.3324  0.2656
  505TIP3    H122930   5.291   0.434  15.739  0.9246  0.5471  0.4655
  505TIP3    H222931   5.370   0.548  15.679 -0.1773  1.8047  1.3665
  506TIP3   OH222932   6.684   2.103   5.877 -0.9638 -0.2198  0.2191
  506TIP3    H122933   6.695   2.188   5.835  0.3035 -0.2670  0.4448
  506TIP3    H222934   6.680   2.122   5.970  0.9669 -0.5413  0.3875
  507TIP3   OH222935   3.466   6.573  16.513 -0.1101  0.1989 -0.4903
  507TIP3    H122936   3.425   6.597  16.430 -0.3989  0.4255 -0.2861
  507TIP3    H222937   3.509   6.654  16.543 -1.1872  0.5129  0.2585
  508TIP3   OH222938   1.688   5.058  16.924 -0.4842  0.2394 -0.0939
  508TIP3    H122939   1.674   5.020  16.837 -2.5818  2.4130 -0.7740
  508TIP3    H222940   1.780   5.082  16.926  0.2592 -2.4181 -0.6203
  509TIP3   OH222941   3.735   6.145   4.508 -0.3372  0.3443  0.5894
  509TIP3    H122942   3.726   6.229   4.462  0.1274 -0.7302 -1.5595
  509TIP3    H222943   3.711   6.080   4.442 -1.5963 -1.1845  2.5033
  510TIP3   OH222944   6.089   5.841  14.242 -0.5145  0.1732  0.6031
  510TIP3    H122945   6.116   5.931  14.222  0.9804 -0.7492 -1.8203
  510TIP3    H222946   6.012   5.826  14.187  0.7344 -0.7986 -0.9542
  511TIP3   OH222947   1.726   4.902   2.092  0.2671 -0.5379  0.2001
  511TIP3    H122948   1.782   4.861   2.026  0.3158  2.4033 -1.7065
  511TIP3    H222949   1.766   4.880   2.176  3.5446  0.4210 -1.0619
  512TIP3   OH222950   5.739   5.280  13.689  0.2161  0.1018 -0.0763
  512TIP3    H122951   5.795   5.282  13.612  0.3795 -3.5978 -0.1461
  512TIP3    H222952   5.798   5.297  13.763  1.2408 -2.4272 -0.2688
  513TIP3   OH222953   5.065   6.098  13.865 -0.0224 -0.1701 -0.0299
  513TIP3    H122954   5.080   6.007  13.893 -1.4362 -0.3700  0.1337
  513TIP3    H222955   5.103   6.151  13.935 -1.6719 -0.6665  1.2736
  514TIP3   OH222956   3.389   0.957  13.123  0.1260 -0.3231  0.1559
  514TIP3    H122957   3.351   0.881  13.079 -1.0500 -0.0860  0.7563
  514TIP3    H222958   3.382   1.028  13.059  0.2711 -0.4593 -0.0129
  515TIP3   OH222959   5.170   4.603  13.790  0.6604  0.9998  0.4368
  515TIP3    H122960   5.152   4.683  13.741  2.9464  0.3690 -1.5955
  515TIP3    H222961   5.086   4.557  13.794  0.5345  0.6793 -3.7629
  516TIP3   OH222962   5.897   3.602   5.416 -0.5110  0.0578  0.4611
  516TIP3    H122963   5.903   3.560   5.330  1.3087 -1.4323  1.2827
  516TIP3    H222964   5.970   3.665   5.416 -1.0849  0.7218  0.5605
  517TIP3   OH222965   1.723   6.086  10.950  0.2522 -0.2444 -0.4660
  517TIP3    H122966   1.724   6.007  11.004 -0.9631  0.3448  0.4227
  517TIP3    H222967   1.657   6.069  10.883  0.6299 -0.3308 -0.8245
  518TIP3   OH222968   0.432   0.602  13.725 -0.2152  0.4510 -0.4057
  518TIP3    H122969   0.499   0.547  13.686  1.7651  1.8858  0.9114
  518TIP3    H222970   0.418   0.673  13.662  0.0986  0.5860 -0.3245
  519TIP3   OH222971   4.896   6.085  10.815 -0.3946  0.1206 -0.2666
  519TIP3    H122972   4.909   6.051  10.903 -1.4838 -2.1953 -0.9415
  519TIP3    H222973   4.916   6.178  10.821  0.7354 -0.2410  2.1412
  520TIP3   OH222974   1.711   3.498   4.626 -0.1948 -0.3280  0.4206
  520TIP3    H122975   1.802   3.526   4.611 -0.9920  1.0013 -2.2146
  520TIP3    H222976   1.712   3.404   4.607  0.3838 -0.0660 -0.9177
  521TIP3   OH222977   0.828   4.049  11.359 -0.3559 -0.1559  0.4582
  521TIP3    H122978   0.740   4.083  11.376  0.9213  3.5106  0.2600
  521TIP3    H222979   0.817   3.989  11.285 -2.6471  0.3701  0.3398
  522TIP3   OH222980   5.688   6.779   3.675  0.2673 -0.2723 -0.1341
  522TIP3    H122981   5.687   6.686   3.649  1.3358 -0.1856 -0.5275
  522TIP3    H222982   5.676   6.826   3.592 -0.0501 -0.0532  0.0376
  523TIP3   OH222983   3.408   1.893  14.373 -0.0265  0.5973  0.2243
  523TIP3    H122984   3.335   1.862  14.320 -0.8057  0.9157  1.1034
  523TIP3    H222985   3.369   1.955  14.435  0.8872  0.2902  1.1282
  524TIP3   OH222986   3.120   1.142  13.437  0.0891  0.3601  0.7000
  524TIP3    H122987   3.136   1.157  13.530  0.6331 -1.2302  0.8830
  524TIP3    H222988   3.053   1.073  13.435  0.3742  0.0976 -0.0865
  525TIP3   OH222989   2.373   4.225  13.331  0.0688  0.0737 -0.5416
  525TIP3    H122990   2.405   4.248  13.244 -0.8765 -0.3703 -1.0154
  525TIP3    H222991   2.285   4.192  13.316 -0.0924 -0.0264  0.5857
  526TIP3   OH222992   2.169   0.232   3.031 -0.4691 -0.0076  0.4650
  526TIP3    H122993   2.190   0.258   3.121 -1.7558 -2.3978  1.5106
  526TIP3    H222994   2.075   0.249   3.023 -0.4310 -0.1397 -0.2963
  527TIP3   OH222995   1.806   3.870   6.466  0.0699 -0.1671 -0.1621
  527TIP3    H122996   1.899   3.890   6.479  0.4586 -2.1438  0.2479
  527TIP3    H222997   1.805   3.776   6.447 -1.9389 -0.3055  0.6231
  528TIP3   OH222998   0.659   3.948  14.795 -0.0144  0.1319 -0.0135
  528TIP3    H122999   0.610   3.890  14.736 -0.0684  0.3988 -0.2298
  528TIP3    H223000   0.616   4.033  14.787 -0.9695 -0.1696  1.5324
  529TIP3   OH223001   3.837   0.585   1.484  0.1128 -0.1247  0.1152
  529TIP3    H123002   3.777   0.598   1.411  1.3643  1.5304 -0.6608
  529TIP3    H223003   3.922   0.614   1.450  0.7735  0.3434  2.1349
  530TIP3   OH223004   4.042   4.951   2.411  0.2844  0.1770  0.5836
  530TIP3    H123005   4.074   4.998   2.334  1.7437 -0.3809  0.8227
  530TIP3    H223006   4.095   4.985   2.483 -0.1640 -0.2528  1.1156
  531TIP3   OH223007   5.228   3.252   1.821  0.0975 -0.2001  0.0454
  531TIP3    H123008   5.159   3.315   1.801  0.9499  0.9434  0.6743
  531TIP3    H223009   5.291   3.262   1.749  0.1915 -0.3980  0.1005
  532TIP3   OH223010   6.057   1.944   3.126 -0.4143  0.1954  0.4369
  532TIP3    H123011   6.120   1.885   3.086 -0.2580  0.7907 -0.1967
  532TIP3    H223012   6.095   1.965   3.212 -0.1755 -0.1305  0.4119
  533TIP3   OH223013   3.704   2.240  17.138 -0.1313  0.1352  0.3453
  533TIP3    H123014   3.731   2.312  17.194  2.3191 -0.0290 -0.5798
  533TIP3    H223015   3.686   2.167  17.198  1.0490  0.3968  1.0200
  534TIP3   OH223016   4.808   5.658   4.493  0.2165  0.1196 -0.1247
  534TIP3    H123017   4.850   5.734   4.533  0.3684  0.2144 -0.4675
  534TIP3    H223018   4.785   5.602   4.567  1.4169 -0.1806  0.0205
  535TIP3   OH223019   2.107   3.948   0.844  0.0278 -0.0772  0.1612
  535TIP3    H123020   2.177   3.996   0.799  0.8713 -0.9705  0.4798
  535TIP3    H223021   2.110   3.860   0.805  0.1132 -0.5736  1.2592
  536TIP3   OH223022   4.578   1.549  11.862  0.1485 -0.1182 -0.2327
  536TIP3    H123023   4.642   1.483  11.890  0.6699 -0.3864 -2.0207
  536TIP3    H223024   4.630   1.626  11.841 -0.3673  0.5175  0.7403
  537TIP3   OH223025   2.661   2.741   3.273  0.3574  0.0991  0.5741
  537TIP3    H123026   2.594   2.809   3.274 -0.4211 -0.6677  0.3548
  537TIP3    H223027   2.707   2.751   3.357  0.1746  0.8157  0.5906
  538TIP3   OH223028   4.731   4.445   3.413  0.2472  0.1909 -0.3600
  538TIP3    H123029   4.781   4.520   3.444 -1.0414  0.7292  0.5042
  538TIP3    H223030   4.663   4.433   3.480 -0.0002 -1.2849 -0.8640
  539TIP3   OH223031   4.549   6.034   2.090  0.7306  0.1693 -0.4360
  539TIP3    H123032   4.477   5.971   2.085  1.3825 -0.4856 -1.7454
  539TIP3    H223033   4.536   6.092   2.015 -1.2197  3.1256  2.0523
  540TIP3   OH223034   1.873   4.731  13.792 -0.0548 -1.0560  0.5603
  540TIP3    H123035   1.879   4.682  13.710  1.3301 -0.4532  0.3019
  540TIP3    H223036   1.961   4.763  13.808 -1.1486  2.4176  0.0825
  541TIP3   OH223037   4.716   2.271  16.899  0.4365 -0.2262  0.0589
  541TIP3    H123038   4.634   2.290  16.946 -0.1735 -1.1572 -0.6267
  541TIP3    H223039   4.751   2.358  16.878  0.4200  0.2070  1.6945
  542TIP3   OH223040   1.793   4.862  16.359 -0.7948  0.4928 -0.3349
  542TIP3    H123041   1.850   4.916  16.304  0.6720 -2.1823 -1.5660
  542TIP3    H223042   1.731   4.823  16.297 -1.7662  0.6736  0.5199
  543TIP3   OH223043   3.456   2.301  17.026 -0.0046  0.2122 -0.8208
  543TIP3    H123044   3.542   2.294  17.067 -0.2330  0.7079 -0.2456
  543TIP3    H223045   3.430   2.392  17.040 -0.8380 -0.0604 -0.5317
  544TIP3   OH223046   0.074   3.436  15.577 -0.2041  0.2263 -0.2951
  544TIP3    H123047   0.103   3.413  15.489 -0.0719 -0.6320 -0.0290
  544TIP3    H223048   0.150   3.476  15.618  0.4992 -1.6076  0.2484
  545TIP3   OH223049   1.303   0.441   5.624 -0.0719 -0.5249  0.4061
  545TIP3    H123050   1.313   0.423   5.717 -1.2731  0.0125  0.6381
  545TIP3    H223051   1.269   0.530   5.619 -2.2367 -1.3459 -0.4352
  546TIP3   OH223052   0.185   4.860   3.985  0.8180  0.8002 -0.1466
  546TIP3    H123053   0.191   4.858   3.890  1.9414  0.7627 -0.0844
  546TIP3    H223054   0.156   4.772   4.009  4.8723 -0.7030 -0.2213
  547TIP3   OH223055   5.174   1.026   1.753 -0.5822 -0.4849 -0.3438
  547TIP3    H123056   5.260   1.013   1.712 -0.2462  1.0747 -0.1449
  547TIP3    H223057   5.147   1.114   1.726 -0.6306  0.3414  2.2781
  548TIP3   OH223058   5.423   2.383  16.464 -0.5734  0.2243 -0.6150
  548TIP3    H123059   5.342   2.414  16.422 -0.2765  0.3062 -1.1353
  548TIP3    H223060   5.394   2.316  16.526 -1.5142  3.2922  2.4357
  549TIP3   OH223061   4.872   0.171   3.086  0.4343 -0.7092  0.2906
  549TIP3    H123062   4.804   0.236   3.069 -0.5764 -1.6950  0.4416
  549TIP3    H223063   4.954   0.220   3.084 -0.3209  0.5966  0.6197
  550TIP3   OH223064   0.077   3.059  12.946  0.1197 -0.1890 -0.6415
  550TIP3    H123065   0.123   3.051  13.029  0.7577  1.7244 -0.7892
  550TIP3    H223066   0.145   3.049  12.879 -0.0369  0.4614 -0.8969
  551TIP3   OH223067   2.364   5.690  11.474 -0.3255  0.4913  0.1167
  551TIP3    H123068   2.398   5.641  11.399  1.0797  0.2215  0.9202
  551TIP3    H223069   2.308   5.757  11.435 -1.6908 -1.2462 -1.0544
  552TIP3   OH223070   0.749   3.128   3.376  0.0317 -0.0316  0.1344
  552TIP3    H123071   0.710   3.042   3.364 -0.3925  0.1777 -0.0255
  552TIP3    H223072   0.701   3.167   3.449  0.1612  0.1032  0.1486
  553TIP3   OH223073   4.280   1.016  11.173  0.0883 -0.1229 -0.4677
  553TIP3    H123074   4.285   0.920  11.173  0.4199 -0.1312  0.9613
  553TIP3    H223075   4.194   1.035  11.212  0.7622  0.1495  0.9304
  554TIP3   OH223076   1.718   4.234   2.870  0.9565 -0.4960 -0.1008
  554TIP3    H123077   1.729   4.244   2.775  1.8351 -1.0086 -0.0602
  554TIP3    H223078   1.807   4.235   2.904  0.7285 -1.7704  0.5676
  555TIP3   OH223079   6.555   3.139  11.924  0.1127 -0.1698  0.1436
  555TIP3    H123080   6.562   3.196  12.002  0.2032  0.2132 -0.1397
  555TIP3    H223081   6.537   3.200  11.852 -1.6619 -0.6975  0.1299
  556TIP3   OH223082   5.463   5.311  12.193 -0.6974 -0.2625 -0.4332
  556TIP3    H123083   5.551   5.274  12.185 -0.2090  0.4244  1.5785
  556TIP3    H223084   5.477   5.405  12.201 -1.6715 -0.0708 -0.9464
  557TIP3   OH223085   4.792   3.555  13.398  0.0767  0.1577  0.4644
  557TIP3    H123086   4.724   3.621  13.390 -1.8692 -1.8271  0.2657
  557TIP3    H223087   4.819   3.560  13.490 -0.3313  0.9147  0.5517
  558TIP3   OH223088   1.998   2.774  16.870 -0.7559 -0.0087 -0.2934
  558TIP3    H123089   1.982   2.868  16.867 -0.8198 -0.0143 -0.1285
  558TIP3    H223090   2.080   2.764  16.917 -1.4367 -0.1078  0.9012
  559TIP3   OH223091   4.739   0.616   3.487 -0.3472  0.0953  0.4211
  559TIP3    H123092   4.681   0.560   3.538 -0.1689 -0.8029 -0.3484
  559TIP3    H223093   4.817   0.627   3.542 -0.8835  0.6077  1.0936
  560TIP3   OH223094   2.353   1.211   2.961  0.1503 -0.3652  0.0919
  560TIP3    H123095   2.336   1.150   3.033 -3.8145  1.4138  0.8284
  560TIP3    H223096   2.321   1.165   2.883 -1.1180  0.0381  0.3698
  561TIP3   OH223097   3.748   6.488  13.164 -0.4396 -0.1978 -0.2015
  561TIP3    H123098   3.821   6.462  13.221 -0.3357 -1.2894 -0.8286
  561TIP3    H223099   3.674   6.497  13.224  0.3678  1.6081  0.5413
  562TIP3   OH223100   6.544   1.194   2.823 -0.2185  0.0445 -0.1515
  562TIP3    H123101   6.636   1.170   2.822 -0.4770 -1.0274  0.7454
  562TIP3    H223102   6.506   1.141   2.894 -1.9765 -1.2901 -2.0215
  563TIP3   OH223103   5.988   0.374  13.912 -0.3630  0.3266 -0.3367
  563TIP3    H123104   5.945   0.390  13.997 -0.3726 -1.9517  0.0989
  563TIP3    H223105   6.035   0.456  13.894  0.5334  0.4663  2.4118
  564TIP3   OH223106   2.401   5.647  13.753 -0.0675 -0.6548 -0.0731
  564TIP3    H123107   2.327   5.637  13.813  1.3436  0.9091  1.9546
  564TIP3    H223108   2.479   5.634  13.807  1.2253  0.5791 -1.5922
  565TIP3   OH223109   1.587   6.301   5.394 -0.3021  0.1966 -0.2368
  565TIP3    H123110   1.637   6.291   5.475 -0.8399 -1.6426 -0.0892
  565TIP3    H223111   1.589   6.394   5.375 -1.0865  0.8350  2.4975
  566TIP3   OH223112   2.195   2.745  11.036 -0.4185  0.3550  0.0328
  566TIP3    H123113   2.245   2.699  10.969  0.7497 -0.0009  1.1291
  566TIP3    H223114   2.169   2.676  11.098 -1.2721  0.7106  0.0694
  567TIP3   OH223115   2.059   0.173  13.871 -0.2193  0.0843  0.0627
  567TIP3    H123116   2.023   0.108  13.812  0.0925 -0.8124  0.8434
  567TIP3    H223117   2.120   0.224  13.817  0.1533 -0.7991 -0.3620
  568TIP3   OH223118   4.065   1.021   4.739  0.5975  0.4801 -1.1404
  568TIP3    H123119   4.041   1.055   4.653  2.2001  1.6633 -1.1300
  568TIP3    H223120   4.065   1.097   4.797  0.8328 -0.0939 -0.3717
  569TIP3   OH223121   6.166   4.388   1.381 -0.1077  0.4620  0.4652
  569TIP3    H123122   6.155   4.294   1.367 -1.9295  0.3492  2.3238
  569TIP3    H223123   6.260   4.403   1.369 -0.1773 -1.0706 -2.5803
  570TIP3   OH223124   1.440   2.536  14.719  0.1902 -0.6781 -0.3824
  570TIP3    H123125   1.483   2.462  14.762  0.8200  0.4663  0.9740
  570TIP3    H223126   1.510   2.581  14.672  0.3014  0.6101  1.0065
  571TIP3   OH223127   3.784   1.472  16.837 -0.0104 -0.1115 -0.0256
  571TIP3    H123128   3.790   1.382  16.868  1.8952 -0.3605 -1.0164
  571TIP3    H223129   3.870   1.510  16.856 -0.4318  1.1774 -0.5940
  572TIP3   OH223130   6.483   3.148   0.176  0.1226 -0.0148 -0.3046
  572TIP3    H123131   6.481   3.148   0.271 -0.9934  1.0211 -0.3173
  572TIP3    H223132   6.518   3.062   0.152  1.8783  0.2866  1.0504
  573TIP3   OH223133   2.635   4.241   0.098  0.2946 -0.1229 -0.2715
  573TIP3    H123134   2.686   4.216   0.021 -0.4981  1.0308 -1.1833
  573TIP3    H223135   2.614   4.333   0.084 -0.1037  0.0193  1.1932
  574TIP3   OH223136   5.613   5.229   4.774  0.2136  0.1644  0.0176
  574TIP3    H123137   5.520   5.233   4.797  0.3057  1.1429  0.2441
  574TIP3    H223138   5.652   5.172   4.841 -0.2486 -0.3948 -0.1833
  575TIP3   OH223139   1.041   3.640   5.852 -0.3760  0.1357 -0.6681
  575TIP3    H123140   0.952   3.665   5.827 -0.2960  0.9794 -0.1214
  575TIP3    H223141   1.067   3.705   5.918  0.4331 -0.4384 -0.4106
  576TIP3   OH223142   4.446   2.037  16.896  0.2350  0.6517  0.3970
  576TIP3    H123143   4.418   2.024  16.805 -0.2535  0.7513  0.5296
  576TIP3    H223144   4.412   2.123  16.920 -1.2901 -0.1570  1.2696
  577TIP3   OH223145   2.207   3.714  17.169  0.2017  0.5747  0.1244
  577TIP3    H123146   2.287   3.767  17.167  0.7902 -0.3234 -2.0587
  577TIP3    H223147   2.184   3.703  17.077 -1.5408 -0.5176  0.6792
  578TIP3   OH223148   5.284   6.513  13.770 -0.4596 -0.3776  0.4534
  578TIP3    H123149   5.226   6.447  13.731  1.2447 -0.5614 -1.8509
  578TIP3    H223150   5.357   6.463  13.805 -1.4891 -0.1137  3.1137
  579TIP3   OH223151   5.692   2.056  15.245  0.2129  0.1868 -0.2147
  579TIP3    H123152   5.651   1.969  15.236 -1.7231  1.0375  0.1093
  579TIP3    H223153   5.786   2.038  15.241 -0.1787 -1.6878 -2.3983
  580TIP3   OH223154   3.216   1.486  12.342  0.1312 -0.3432 -0.0142
  580TIP3    H123155   3.239   1.451  12.255 -0.7590 -0.2676 -0.2859
  580TIP3    H223156   3.134   1.443  12.364  0.5606 -0.6616  0.9820
  581TIP3   OH223157   1.756   2.616  15.391 -0.2536  0.3171 -0.2903
  581TIP3    H123158   1.799   2.647  15.471  0.7019 -0.1796 -0.6038
  581TIP3    H223159   1.702   2.690  15.363 -2.9492 -0.5491  2.4374
  582TIP3   OH223160   3.282   2.145   1.221 -0.3736 -0.4761  0.3096
  582TIP3    H123161   3.198   2.115   1.186 -1.5235  0.9154  1.7997
  582TIP3    H223162   3.289   2.102   1.306 -0.3595  0.6918  0.9100
  583TIP3   OH223163   2.505   3.227  11.776 -0.4794  0.2796  0.0827
  583TIP3    H123164   2.508   3.313  11.818 -1.8428 -0.3925  1.6012
  583TIP3    H223165   2.572   3.176  11.822 -0.2908  0.2629 -0.2099
  584TIP3   OH223166   4.547   3.409   4.669 -0.1769  0.0315  0.0744
  584TIP3    H123167   4.606   3.386   4.741  1.1559  0.0643 -0.9724
  584TIP3    H223168   4.557   3.338   4.606 -0.3878  0.6124 -0.6224
  585TIP3   OH223169   3.321   2.284   5.459  0.3807 -0.0493 -0.2795
  585TIP3    H123170   3.354   2.221   5.522 -1.1999  0.0689  0.6953
  585TIP3    H223171   3.363   2.367   5.483  0.1905 -0.1182  0.2968
  586TIP3   OH223172   5.824   0.386   2.989  0.3761 -0.5590  0.2835
  586TIP3    H123173   5.787   0.362   3.074 -0.8271  0.1000 -0.0427
  586TIP3    H223174   5.844   0.479   2.997  0.6944 -0.5986 -0.0072
  587TIP3   OH223175   4.720   4.865   4.670 -0.4050  0.0688 -0.2672
  587TIP3    H123176   4.763   4.791   4.627 -0.5270  1.1048 -2.2373
  587TIP3    H223177   4.791   4.912   4.713 -0.2262 -0.7647  0.3756
  588TIP3   OH223178   0.521   2.440   6.068  0.5177 -0.1069 -0.2709
  588TIP3    H123179   0.548   2.516   6.119 -0.5790  0.5149 -0.5966
  588TIP3    H223180   0.553   2.365   6.117  0.3670  0.5176  0.7979
  589TIP3   OH223181   6.614   2.172   0.824  0.1615 -0.4298 -0.4225
  589TIP3    H123182   6.588   2.178   0.916  1.1664  1.1328 -0.2344
  589TIP3    H223183   6.708   2.187   0.825  0.8094 -4.0673 -1.3229
  590TIP3   OH223184   1.428   1.317  14.424 -0.5224 -0.2560 -0.5347
  590TIP3    H123185   1.424   1.268  14.342  1.4157  0.5705 -1.1455
  590TIP3    H223186   1.494   1.273  14.476  0.4517  1.0443 -0.6539
  591TIP3   OH223187   4.731   1.225   5.035 -0.5065 -0.7482 -0.4367
  591TIP3    H123188   4.818   1.262   5.048 -1.2515  0.9762 -0.2494
  591TIP3    H223189   4.730   1.200   4.942 -1.2557  3.2135 -1.5873
  592TIP3   OH223190   4.977   4.261   1.769  0.2985  0.3893 -0.0317
  592TIP3    H123191   4.908   4.263   1.702 -0.6785 -0.9588  0.8916
  592TIP3    H223192   4.997   4.354   1.785 -0.9415  0.7950 -0.6969
  593TIP3   OH223193   5.989   6.649  16.494  0.1080  0.3113 -0.0059
  593TIP3    H123194   6.077   6.646  16.457  0.3752 -0.2843  0.6720
  593TIP3    H223195   5.931   6.657  16.418  0.3409 -5.6232 -0.9779
  594TIP3   OH223196   0.835   4.317  17.221  0.6221 -0.2184  0.2586
  594TIP3    H123197   0.739   4.324  17.220  0.6208 -0.1868  0.5556
  594TIP3    H223198   0.853   4.224  17.208  0.5281 -0.3786  1.2321
  595TIP3   OH223199   0.110   3.814   4.776 -0.1198  0.2856  0.3631
  595TIP3    H123200   0.050   3.842   4.845 -0.1998 -1.3035  0.9618
  595TIP3    H223201   0.060   3.824   4.695 -0.4884  0.8732  0.6567
  596TIP3   OH223202   1.523   2.038   1.212 -0.2806  0.8078  0.3889
  596TIP3    H123203   1.600   2.069   1.163  0.4188 -1.7264 -0.1762
  596TIP3    H223204   1.560   1.996   1.290 -0.9887 -1.3125 -0.3745
  597TIP3   OH223205   4.617   1.629  14.034 -0.3604 -0.3013  0.1576
  597TIP3    H123206   4.594   1.704  13.980  0.4694  0.5231  0.9502
  597TIP3    H223207   4.554   1.631  14.106  1.5591  1.4557  1.8587
  598TIP3   OH223208   4.561   0.223   2.763  0.5909 -0.0925 -0.4244
  598TIP3    H123209   4.491   0.285   2.742  0.3967  0.1029  0.7904
  598TIP3    H223210   4.642   0.272   2.748  0.4564 -0.0857 -1.1237
  599TIP3   OH223211   5.643   4.222   4.907  0.1167 -0.4443 -0.3853
  599TIP3    H123212   5.560   4.218   4.956  0.6163  0.9809  0.6148
  599TIP3    H223213   5.688   4.141   4.931 -0.6892 -0.9075 -0.3958
  600TIP3   OH223214   6.678   0.199   5.393  0.7268  0.1535 -0.1413
  600TIP3    H123215   6.772   0.212   5.375  0.5516  0.2218 -1.0663
  600TIP3    H223216   6.673   0.182   5.487  1.5481  1.3293  0.1262
  601TIP3   OH223217   4.679   3.716  15.439  0.2175 -0.5173 -0.8987
  601TIP3    H123218   4.741   3.655  15.402  0.0343 -1.3414  0.1294
  601TIP3    H223219   4.713   3.803  15.417  1.0081 -0.9819 -1.4802
  602TIP3   OH223220   6.534   3.480   0.366  0.6425 -0.0286  0.0115
  602TIP3    H123221   6.500   3.559   0.325 -0.6324 -0.6262 -0.1224
  602TIP3    H223222   6.509   3.489   0.458  1.6971  0.3520  0.2692
  603TIP3   OH223223   5.226   2.015  12.010  0.4503 -0.5721  0.2315
  603TIP3    H123224   5.273   1.952  11.955  0.9186  0.8743 -1.0713
  603TIP3    H223225   5.248   1.989  12.100  2.4339 -0.9482 -0.3238
  604TIP3   OH223226   0.828   1.357   0.538 -0.2127 -0.0798 -0.1379
  604TIP3    H123227   0.842   1.323   0.627 -2.9357 -1.5379 -0.2047
  604TIP3    H223228   0.857   1.286   0.481  2.2379  1.1491 -0.4619
  605TIP3   OH223229   2.123   0.206  14.672 -0.2305  0.0801  0.0001
  605TIP3    H123230   2.101   0.164  14.589  0.6324 -1.5383  0.5767
  605TIP3    H223231   2.086   0.294  14.664 -0.8621 -0.3153 -1.7723
  606TIP3   OH223232   0.804   2.222   0.505  0.1313  0.1080 -0.2169
  606TIP3    H123233   0.823   2.164   0.579  1.5273  0.2220 -0.4713
  606TIP3    H223234   0.791   2.162   0.431 -1.8740 -0.0357  0.2356
  607TIP3   OH223235   2.103   4.595  16.851  0.2686 -0.2057  0.8010
  607TIP3    H123236   2.064   4.591  16.763  3.0458  2.9435 -0.6880
  607TIP3    H223237   2.142   4.508  16.864 -0.8949 -0.9805 -0.7320
  608TIP3   OH223238   4.160   1.896   4.714  0.2529  0.6038  0.4925
  608TIP3    H123239   4.093   1.887   4.647  0.1930 -1.5511  0.8257
  608TIP3    H223240   4.172   1.991   4.723 -0.9260  0.9486 -1.3544
  609TIP3   OH223241   4.455   4.577   2.234  0.0815 -0.5788 -0.1239
  609TIP3    H123242   4.422   4.592   2.146  1.2549 -0.4530 -0.5510
  609TIP3    H223243   4.394   4.623   2.291  0.0601  0.4599 -0.9772
  610TIP3   OH223244   1.650   0.257  15.138 -0.5229  0.1776 -0.2288
  610TIP3    H123245   1.676   0.167  15.118 -1.9976 -0.3616  0.2138
  610TIP3    H223246   1.601   0.286  15.061 -0.2351  0.5257 -0.2804
  611TIP3   OH223247   1.357   2.703   2.978 -0.7597  0.0760  0.5367
  611TIP3    H123248   1.393   2.686   2.890 -1.8479 -0.9093  0.2648
  611TIP3    H223249   1.394   2.633   3.032 -2.1583 -0.8951  0.2740
  612TIP3   OH223250   3.774   5.001   2.293 -0.5050 -0.2564 -0.1086
  612TIP3    H123251   3.862   5.006   2.331 -1.0770  0.1562  1.1747
  612TIP3    H223252   3.750   5.092   2.276 -0.0586 -0.4597 -1.9564
  613TIP3   OH223253   3.663   1.717   0.970 -0.8973  0.3281  0.0824
  613TIP3    H123254   3.718   1.688   1.043 -0.0565 -0.5998 -0.9164
  613TIP3    H223255   3.615   1.792   1.006  0.4036  0.6543  1.2190
  614TIP3   OH223256   1.588   5.613   0.598 -0.0575  0.4381 -0.0243
  614TIP3    H123257   1.508   5.659   0.572 -0.3384 -0.5866 -0.9812
  614TIP3    H223258   1.613   5.655   0.681 -1.4841  0.8787  0.2024
  615TIP3   OH223259   6.582   1.322  13.985 -0.0656  0.2809 -0.5602
  615TIP3    H123260   6.537   1.238  13.982  3.0102 -1.4202 -0.0633
  615TIP3    H223261   6.559   1.365  13.903 -0.6948 -1.5378 -1.3426
  616TIP3   OH223262   4.534   3.651  13.639  0.1825  0.1519  0.0914
  616TIP3    H123263   4.565   3.742  13.638  0.2405  0.1310 -0.3701
  616TIP3    H223264   4.455   3.652  13.585 -1.3202  0.4382  2.2559
  617TIP3   OH223265   2.152   4.083   6.439 -0.0439 -0.1726  0.5049
  617TIP3    H123266   2.146   4.017   6.508 -0.0079  0.4509  1.1106
  617TIP3    H223267   2.081   4.144   6.458  1.0071  0.9061  0.9496
  618TIP3   OH223268   5.375   4.073   1.332  0.4458 -0.6207  0.0791
  618TIP3    H123269   5.339   4.029   1.255 -0.1345  0.4309 -0.2581
  618TIP3    H223270   5.364   4.166   1.314 -0.4777 -0.3744  1.7791
  619TIP3   OH223271   1.623   2.453   3.619  0.0080  0.0178  0.1580
  619TIP3    H123272   1.692   2.517   3.601 -1.1889  1.9722  2.2705
  619TIP3    H223273   1.619   2.448   3.715 -2.4854 -0.3479  0.0745
  620TIP3   OH223274   0.101   3.683  14.207 -0.0551  0.3472 -0.0246
  620TIP3    H123275   0.015   3.647  14.184  0.5480 -0.9358 -0.3482
  620TIP3    H223276   0.148   3.687  14.123  1.5666 -2.7633  0.6355
  621TIP3   OH223277   6.122   0.350   4.736 -0.0302 -0.0504  0.1991
  621TIP3    H123278   6.194   0.309   4.690  0.1214  1.0044 -0.5274
  621TIP3    H223279   6.160   0.380   4.818 -0.1556 -1.4000  0.7531
  622TIP3   OH223280   0.260   2.883   2.003  0.5803 -0.2642  0.2664
  622TIP3    H123281   0.250   2.869   1.909  0.1494  0.9611  0.1235
  622TIP3    H223282   0.337   2.831   2.027 -0.5123 -2.2354 -0.3819
  623TIP3   OH223283   6.698   1.900   0.714  0.0329 -0.1210  0.3141
  623TIP3    H123284   6.666   1.980   0.755  2.3519  0.9469  0.1082
  623TIP3    H223285   6.661   1.902   0.625 -0.7105  0.2229  0.6294
  624TIP3   OH223286   0.767   4.743  16.866  0.1147 -0.0260  0.7553
  624TIP3    H123287   0.689   4.798  16.869  1.1885  1.4416  2.6515
  624TIP3    H223288   0.790   4.741  16.773  0.0678  2.7880  0.6319
  625TIP3   OH223289   6.618   2.473  16.946 -0.0694  0.1726  0.5199
  625TIP3    H123290   6.610   2.466  17.041  1.0173  0.6211  0.6526
  625TIP3    H223291   6.536   2.438  16.913 -0.4271 -0.0692  1.6225
  626TIP3   OH223292   6.542   2.691   0.762  0.1086  0.7176 -0.3452
  626TIP3    H123293   6.518   2.649   0.679  0.7045 -0.5882  0.1249
  626TIP3    H223294   6.534   2.621   0.827  1.4668  1.2348  0.4037
  627TIP3   OH223295   6.412   1.775  14.102  1.2075  0.3584  0.4776
  627TIP3    H123296   6.418   1.684  14.130 -0.5586  0.2435  0.5599
  627TIP3    H223297   6.432   1.772  14.008  3.4269  0.2285  0.9338
  628TIP3   OH223298   6.461   6.023  12.983 -0.2561 -0.0367 -0.0078
  628TIP3    H123299   6.386   6.042  13.040 -1.0572 -0.4860 -0.8854
  628TIP3    H223300   6.531   5.996  13.042 -0.9985 -0.2599  0.7773
  629TIP3   OH223301   3.563   5.361  17.122 -0.5343 -0.0733  0.0997
  629TIP3    H123302   3.561   5.456  17.127  0.5705 -0.0598  0.4333
  629TIP3    H223303   3.477   5.333  17.154 -0.1199  0.7323  1.9622
  630TIP3   OH223304   3.220   6.301  11.622 -0.1342  0.2673 -0.3609
  630TIP3    H123305   3.253   6.380  11.665 -0.6988  0.7766 -0.8509
  630TIP3    H223306   3.276   6.231  11.654 -0.1924  0.7286  0.7750
  631TIP3   OH223307   5.877   1.688  15.030 -0.2116 -0.0409  0.2984
  631TIP3    H123308   5.933   1.612  15.013  0.3362  0.5175 -0.4777
  631TIP3    H223309   5.855   1.682  15.123  0.4945 -0.7050  0.4287
  632TIP3   OH223310   6.527   1.639   6.565  0.7310 -0.5925 -0.1942
  632TIP3    H123311   6.527   1.585   6.645 -0.7052 -0.5186 -0.1365
  632TIP3    H223312   6.608   1.615   6.520 -0.1077 -3.1963 -0.4094
  633TIP3   OH223313   6.528   3.364   0.817 -0.1411 -0.3946 -0.7006
  633TIP3    H123314   6.464   3.340   0.883 -0.7928 -0.4426 -1.3465
  633TIP3    H223315   6.507   3.455   0.796 -0.1523 -0.4863 -1.0874
  634TIP3   OH223316   1.460   4.014   5.102 -0.2584  0.2241  0.4516
  634TIP3    H123317   1.511   3.978   5.029 -1.3865 -0.1913 -0.1444
  634TIP3    H223318   1.503   3.978   5.180  0.5737  0.1623 -0.0208
  635TIP3   OH223319   4.748   1.377   4.044 -0.1216  0.2853  0.5179
  635TIP3    H123320   4.834   1.356   4.082  1.1328  1.1159 -1.7948
  635TIP3    H223321   4.745   1.327   3.962 -1.0656  1.7062 -0.3373
  636TIP3   OH223322   6.575   5.494   4.144  0.9654  0.1018 -0.0270
  636TIP3    H123323   6.534   5.442   4.212  1.0534 -0.8717 -0.7187
  636TIP3    H223324   6.502   5.528   4.091  1.0096 -1.1162 -0.8817
  637TIP3   OH223325   6.712   4.438   1.370  0.3915  0.4574  0.1867
  637TIP3    H123326   6.643   4.471   1.312  0.8335 -0.5552 -0.9605
  637TIP3    H223327   6.763   4.515   1.394 -1.3898  1.2966  1.4263
  638TIP3   OH223328   0.673   6.657   0.059 -0.0835  0.0551  0.3572
  638TIP3    H123329   0.686   6.734   0.113  1.1765  0.1367 -0.0504
  638TIP3    H223330   0.687   6.687  -0.031  2.0315 -0.9836  0.3190
  639TIP3   OH223331   0.443   5.781  16.583 -0.0838 -0.0225 -0.9771
  639TIP3    H123332   0.401   5.787  16.497  0.6972  1.0928 -1.2911
  639TIP3    H223333   0.403   5.850  16.635  3.0532  2.7347 -2.0437
  640TIP3   OH223334   2.029   2.318   2.199  0.2989  0.5468 -0.2134
  640TIP3    H123335   1.978   2.397   2.214  1.1279  1.0703 -0.0964
  640TIP3    H223336   1.986   2.275   2.125 -1.5137 -0.0661  1.1572
  641TIP3   OH223337   5.296   3.738  12.499  0.5253 -0.8357  0.2207
  641TIP3    H123338   5.387   3.708  12.486  0.8044 -0.2702  0.8921
  641TIP3    H223339   5.303   3.833  12.506  0.1173 -0.9376  2.2508
  642TIP3   OH223340   3.080   1.045  12.801  0.2882 -0.0711  0.0153
  642TIP3    H123341   3.003   1.091  12.837 -0.2310 -0.3487 -0.7247
  642TIP3    H223342   3.154   1.100  12.826 -0.4374  2.0559 -2.2142
  643TIP3   OH223343   4.883   4.184   5.877 -0.3066 -0.5475 -0.2171
  643TIP3    H123344   4.807   4.242   5.887  0.3781  0.3793 -0.3151
  643TIP3    H223345   4.957   4.236   5.908  0.5150 -0.8626 -1.6213
  644TIP3   OH223346   4.608   5.868   3.850 -0.2505 -0.2001  0.8851
  644TIP3    H123347   4.657   5.920   3.787  0.0242 -1.2438  0.2207
  644TIP3    H223348   4.624   5.777   3.824  0.1149 -0.6597  2.6475
  645TIP3   OH223349   1.832   3.898  15.312 -0.1436  0.7167  0.3800
  645TIP3    H123350   1.925   3.881  15.319  0.0860  1.9194  0.3353
  645TIP3    H223351   1.798   3.824  15.262  1.2560  1.6601 -2.0674
  646TIP3   OH223352   5.902   5.540  11.839  0.2019 -0.3303 -0.2985
  646TIP3    H123353   5.963   5.496  11.898 -0.5419 -0.9772 -0.0123
  646TIP3    H223354   5.950   5.618  11.810  0.7403 -0.2385  0.8098
  647TIP3   OH223355   5.485   0.695  13.177  0.2026 -0.1709 -0.4965
  647TIP3    H123356   5.396   0.662  13.162 -0.2715  0.8562  0.0156
  647TIP3    H223357   5.510   0.737  13.095 -1.2427  2.8298  0.5258
  648TIP3   OH223358   1.406   4.436  15.238 -0.2663  0.3650  1.0167
  648TIP3    H123359   1.390   4.456  15.330  0.8127  0.7577  1.1345
  648TIP3    H223360   1.430   4.343  15.237  1.5205  0.7899  1.3969
  649TIP3   OH223361   1.328   5.917  14.281 -0.3635 -0.2600  0.0922
  649TIP3    H123362   1.251   5.893  14.332 -1.1175  1.1407 -0.3614
  649TIP3    H223363   1.298   5.990  14.226  1.9295  1.9772  1.7115
  650TIP3   OH223364   5.865   5.626  15.439  0.0682  0.2183  0.0253
  650TIP3    H123365   5.818   5.709  15.450  0.4919  0.4901 -0.2399
  650TIP3    H223366   5.913   5.615  15.520  0.6096  0.6099 -0.2368
  651TIP3   OH223367   6.581   3.124  12.961  0.1887 -0.2942 -0.2223
  651TIP3    H123368   6.593   3.160  13.049 -1.8748 -0.7508  0.2648
  651TIP3    H223369   6.667   3.088  12.938  0.7981  0.0006  1.5266
  652TIP3   OH223370   3.819   2.409  15.809 -0.4592  0.3792  0.4174
  652TIP3    H123371   3.864   2.479  15.857 -0.8848 -0.7056  2.4374
  652TIP3    H223372   3.880   2.335  15.814 -1.5188 -0.4434  1.3148
  653TIP3   OH223373   4.594   3.872  12.918 -0.1257 -0.2081 -0.1754
  653TIP3    H123374   4.538   3.927  12.973  0.4211 -0.3409  0.5348
  653TIP3    H223375   4.632   3.809  12.979  0.1977 -0.6011 -0.7789
  654TIP3   OH223376   5.222   2.822  15.480  0.5234  0.1086  0.1169
  654TIP3    H123377   5.227   2.785  15.568  0.6651 -0.0372  0.0469
  654TIP3    H223378   5.286   2.773  15.430  2.2499  1.8575  0.5338
  655TIP3   OH223379   1.561   4.521  16.710 -0.1850  0.2347  0.0318
  655TIP3    H123380   1.499   4.574  16.659 -0.6354 -0.6465 -0.3503
  655TIP3    H223381   1.512   4.441  16.732  1.0965 -0.8794 -1.0390
  656TIP3   OH223382   3.052   2.871   4.980 -0.1645  0.4906  0.2651
  656TIP3    H123383   3.084   2.956   5.011  0.4821  0.0523  0.8010
  656TIP3    H223384   2.966   2.891   4.943 -0.6775  1.1461  1.7284
  657TIP3   OH223385   3.656   3.622  14.196 -0.1292 -0.7075 -0.2496
  657TIP3    H123386   3.635   3.679  14.122 -0.5580 -1.6912 -0.8966
  657TIP3    H223387   3.616   3.664  14.271 -0.6631 -0.2911 -0.7643
  658TIP3   OH223388   6.065   1.777   0.576 -0.2926  0.1402  0.2330
  658TIP3    H123389   6.032   1.856   0.618 -1.1815 -0.4332  0.6296
  658TIP3    H223390   5.992   1.715   0.580 -0.0511 -0.2704 -1.2451
  659TIP3   OH223391   3.763   1.419  14.395 -0.2067  0.5472 -0.3452
  659TIP3    H123392   3.735   1.335  14.358 -0.4419  1.4640 -2.2885
  659TIP3    H223393   3.804   1.465  14.322  0.9008  1.6968  0.9710
  660TIP3   OH223394   2.416   6.619   4.220 -0.3787 -0.9158 -0.0681
  660TIP3    H123395   2.375   6.696   4.261 -0.5024 -0.5768 -0.8178
  660TIP3    H223396   2.345   6.579   4.169 -1.1560 -3.3143  2.7872
  661TIP3   OH223397   2.671   3.934  17.041  0.2947  0.0327 -0.2601
  661TIP3    H123398   2.686   4.028  17.037  1.4772 -0.1906 -1.0322
  661TIP3    H223399   2.744   3.899  17.092  0.3511 -0.5684 -0.7381
  662TIP3   OH223400   1.272   6.667   0.357  0.1824  0.2622 -0.0169
  662TIP3    H123401   1.314   6.582   0.373  0.6604  0.2226 -1.3852
  662TIP3    H223402   1.286   6.683   0.264  3.3155  3.5845  0.9237
  663TIP3   OH223403   1.855   2.438   4.817  0.3921 -0.4097 -0.5239
  663TIP3    H123404   1.888   2.502   4.880  0.9696 -0.3495 -0.8804
  663TIP3    H223405   1.786   2.392   4.864  0.2482  0.2007 -0.1274
  664TIP3   OH223406   1.301   4.657  15.989  0.8162 -0.1624  0.3817
  664TIP3    H123407   1.266   4.571  16.008  1.8079 -0.4904  0.7748
  664TIP3    H223408   1.330   4.652  15.898  1.8360 -0.5953  0.7150
  665TIP3   OH223409   5.609   6.724  11.689 -0.7669 -0.2888  0.5905
  665TIP3    H123410   5.579   6.674  11.765 -1.0072  0.3099  0.8990
  665TIP3    H223411   5.670   6.788  11.726 -1.2964  0.3603  0.3519
  666TIP3   OH223412   3.377   2.221  14.028 -0.9056  0.4818 -0.1403
  666TIP3    H123413   3.430   2.143  14.017 -0.5688  0.6955 -0.0533
  666TIP3    H223414   3.287   2.191  14.016 -0.6535  0.4678 -2.2713
  667TIP3   OH223415   4.703   1.217  11.546 -0.3270 -0.4911 -0.2539
  667TIP3    H123416   4.690   1.310  11.565 -0.3366 -0.8585  1.6449
  667TIP3    H223417   4.794   1.200  11.572 -0.5210 -1.1383  0.0242
  668TIP3   OH223418   2.477   4.170   0.464 -0.8111  0.1235 -0.1218
  668TIP3    H123419   2.404   4.191   0.404  0.8627  2.8678 -1.2960
  668TIP3    H223420   2.512   4.256   0.489  2.0768 -1.1602  0.3375
  669TIP3   OH223421   1.434   0.642  14.148 -0.1313  0.2178  0.3835
  669TIP3    H123422   1.525   0.615  14.141 -0.5794 -0.7907 -2.1547
  669TIP3    H223423   1.405   0.607  14.232  1.7488  0.3550  1.1091
  670TIP3   OH223424   3.249   2.109   4.536 -0.2219  0.0387  0.5152
  670TIP3    H123425   3.253   2.186   4.592 -0.4332 -0.0328  0.6286
  670TIP3    H223426   3.162   2.112   4.497  0.3542  0.7350 -0.7274
  671TIP3   OH223427   2.054   3.201  11.064 -0.4801  0.2583 -0.1432
  671TIP3    H123428   2.020   3.207  10.975  0.6027 -0.2053 -0.5828
  671TIP3    H223429   2.072   3.292  11.088  0.8466  0.2304 -1.0232
  672TIP3   OH223430   3.103   0.002  16.531  0.4092  0.4140 -0.1330
  672TIP3    H123431   3.117  -0.075  16.587 -2.3543  1.9375  2.8210
  672TIP3    H223432   3.175   0.061  16.552  0.2138  0.3520  0.7244
  673TIP3   OH223433   1.459   5.859  15.213  0.1595 -0.1316 -0.0929
  673TIP3    H123434   1.405   5.903  15.278 -0.0532  0.1190 -0.4397
  673TIP3    H223435   1.442   5.766  15.226 -0.9620 -0.0254 -0.7245
  674TIP3   OH223436   6.203   3.421  16.325 -0.3215  0.1410  0.0182
  674TIP3    H123437   6.138   3.382  16.383 -0.2218 -0.0752 -0.0191
  674TIP3    H223438   6.268   3.459  16.385  0.4224 -1.1450  0.0455
  675TIP3   OH223439   6.670   0.206   4.695  0.1458  0.0182  0.5972
  675TIP3    H123440   6.690   0.114   4.712 -0.2616 -0.7624 -2.8240
  675TIP3    H223441   6.580   0.217   4.724  0.2135 -0.6448  1.0692
  676TIP3   OH223442   3.713   6.558   0.342  0.3560 -0.4249  0.4802
  676TIP3    H123443   3.664   6.640   0.337 -0.8640 -1.1616  0.3261
  676TIP3    H223444   3.747   6.556   0.432  0.2512  0.1682  0.5348
  677TIP3   OH223445   6.735   0.759  15.304 -0.2215 -0.2111  0.4167
  677TIP3    H123446   6.642   0.780  15.305 -0.5231 -1.5448  1.5040
  677TIP3    H223447   6.762   0.774  15.213 -1.7641 -0.9482 -0.1768
  678TIP3   OH223448   6.766   0.801   3.649  0.5546  0.2080  0.6200
  678TIP3    H123449   6.753   0.812   3.743 -0.2584  1.4425  0.3710
  678TIP3    H223450   6.797   0.887   3.619 -1.2323  0.4473 -0.5877
  679TIP3   OH223451   0.571   0.074   2.676  0.5583  0.0920 -0.2694
  679TIP3    H123452   0.559   0.057   2.582 -0.4492  3.0392 -0.7306
  679TIP3    H223453   0.663   0.100   2.684  0.7662 -0.5910 -0.3335
  680TIP3   OH223454   5.570   0.794   4.711 -1.0037 -0.8620  0.3092
  680TIP3    H123455   5.639   0.836   4.762 -1.5819  0.5150 -0.0385
  680TIP3    H223456   5.586   0.820   4.621 -0.2661 -2.9201 -0.1814
  681TIP3   OH223457   0.952   3.828   3.986 -0.2931  0.1584  0.6217
  681TIP3    H123458   0.874   3.879   3.964  1.1152  2.2692  0.3050
  681TIP3    H223459   0.965   3.844   4.079 -0.1323 -0.0426  0.6335
  682TIP3   OH223460   1.888   5.730   5.084  0.3428  0.0024  0.4879
  682TIP3    H123461   1.848   5.708   5.000  0.9837  0.1686  0.1439
  682TIP3    H223462   1.887   5.648   5.134  0.0144 -0.1062  0.3014
  683TIP3   OH223463   5.676   3.633   4.545 -0.3512  0.2135  1.0563
  683TIP3    H123464   5.622   3.709   4.521 -0.5405 -0.2160  0.0749
  683TIP3    H223465   5.695   3.590   4.461 -2.9002 -2.5999  1.8340
  684TIP3   OH223466   2.681   4.565  13.706 -0.0670 -0.1242 -0.0563
  684TIP3    H123467   2.670   4.642  13.650  3.1298  0.2525 -0.2485
  684TIP3    H223468   2.753   4.587  13.764 -0.4002 -2.2518  1.2265
  685TIP3   OH223469   2.678   2.914  12.089  0.1758  0.3033  0.5135
  685TIP3    H123470   2.662   2.965  12.169  1.4862  0.4233  0.7107
  685TIP3    H223471   2.692   2.980  12.021  0.8810  0.2240  0.5688
  686TIP3   OH223472   0.882   3.531   4.632  0.6229 -0.2030 -0.8448
  686TIP3    H123473   0.973   3.550   4.653  0.4652 -1.1328  0.7849
  686TIP3    H223474   0.840   3.519   4.717 -0.6785 -1.2560 -1.6198
  687TIP3   OH223475   4.404   6.071   0.127 -0.1940 -0.1521  0.0690
  687TIP3    H123476   4.327   6.108   0.084  0.0140 -0.7657 -0.8549
  687TIP3    H223477   4.475   6.087   0.066 -0.1731 -2.4357 -0.5742
  688TIP3   OH223478   2.929   6.482  16.358  0.1000  0.0580 -0.2401
  688TIP3    H123479   2.953   6.395  16.389  1.7743  0.1702 -1.1675
  688TIP3    H223480   2.866   6.514  16.423 -1.1661 -2.1537 -0.3422
  689TIP3   OH223481   1.040   0.149  11.199 -0.2394  0.2444 -0.7077
  689TIP3    H123482   1.037   0.239  11.166 -0.6293  0.5256  0.0803
  689TIP3    H223483   1.012   0.095  11.125  1.3194  0.6444 -1.6143
  690TIP3   OH223484   3.047   2.591  16.088 -1.0436  0.4682  0.1460
  690TIP3    H123485   3.062   2.518  16.027 -0.4086 -0.5844  1.5265
  690TIP3    H223486   3.069   2.555  16.174 -1.1603  2.1632  0.9101
  691TIP3   OH223487   0.730   0.430   3.161 -0.0574  0.4780  0.2343
  691TIP3    H123488   0.762   0.340   3.175  0.1556 -0.0223 -3.0323
  691TIP3    H223489   0.810   0.483   3.159 -0.0019  0.3860 -0.0926
  692TIP3   OH223490   1.649   0.139   4.869  0.7057  0.4922 -0.1064
  692TIP3    H123491   1.684   0.050   4.859 -0.8892 -0.1650  0.0040
  692TIP3    H223492   1.660   0.158   4.962 -1.3351 -0.6485  0.4117
  693TIP3   OH223493   1.071   5.502  12.829  0.3481 -0.5271  1.5009
  693TIP3    H123494   1.123   5.559  12.886  0.4474 -1.7502  2.6701
  693TIP3    H223495   1.110   5.511  12.743  1.1922  0.1513  1.9505
  694TIP3   OH223496   4.046   3.167   4.911 -0.0270  0.2762 -0.1228
  694TIP3    H123497   3.981   3.145   4.844  0.8375  0.9553 -1.1960
  694TIP3    H223498   4.044   3.093   4.971 -1.3701  0.0132 -0.4608
  695TIP3   OH223499   3.454   2.561  12.852  0.4602  0.3637  0.6986
  695TIP3    H123500   3.502   2.563  12.770  0.8013  0.1275  0.8917
  695TIP3    H223501   3.501   2.623  12.908 -0.8294  1.8992  0.1313
  696TIP3   OH223502   0.577   3.005  15.417 -0.6082 -0.1589 -0.1785
  696TIP3    H123503   0.667   2.997  15.383 -1.3371 -1.5370 -1.8837
  696TIP3    H223504   0.536   3.069  15.359 -0.6354  0.7907  0.8657
  697TIP3   OH223505   2.692   0.722  12.826 -0.1586  0.0903  0.1646
  697TIP3    H123506   2.672   0.815  12.809 -0.2595  0.2851  1.2974
  697TIP3    H223507   2.736   0.722  12.911  0.0549 -0.8813  0.0598
  698TIP3   OH223508   3.442   6.356   6.236  0.5290  0.3306  0.7489
  698TIP3    H123509   3.521   6.393   6.197  0.6247  0.2826  0.8935
  698TIP3    H223510   3.389   6.328   6.162  0.3533  0.9636  0.6357
  699TIP3   OH223511   6.206   3.333   4.745  0.2606  0.7556 -0.1250
  699TIP3    H123512   6.296   3.350   4.716  0.2596  1.2463  0.1426
  699TIP3    H223513   6.201   3.238   4.753  1.1618  0.7962  1.1354
  700TIP3   OH223514   6.529   5.227  15.051  0.5585 -0.4453  0.9423
  700TIP3    H123515   6.482   5.189  15.125 -0.8840  1.5590  1.0807
  700TIP3    H223516   6.546   5.317  15.076 -1.9657  0.9584 -2.0070
  701TIP3   OH223517   4.141   6.284   3.397  0.1283  0.6012  0.0567
  701TIP3    H123518   4.222   6.291   3.447 -0.5290  1.3791  1.0214
  701TIP3    H223519   4.102   6.371   3.400  0.7186  1.0311 -2.9651
  702TIP3   OH223520   3.550   3.344   5.802 -0.4221  0.4989 -0.1309
  702TIP3    H123521   3.474   3.372   5.853  0.5563  0.6284  1.2605
  702TIP3    H223522   3.543   3.249   5.798 -1.0211  0.5564 -0.5996
  703TIP3   OH223523   6.312   1.193  16.978  0.0238 -0.6177  0.2497
  703TIP3    H123524   6.298   1.138  16.901 -1.4760  0.5010 -0.2995
  703TIP3    H223525   6.402   1.174  17.005  0.0371 -2.1958 -0.8229
  704TIP3   OH223526   3.280   2.819   1.886  0.3386 -0.0081  0.3821
  704TIP3    H123527   3.311   2.826   1.796  0.7544  1.0044  0.6005
  704TIP3    H223528   3.332   2.748   1.924 -0.0448 -0.6370 -0.2554
  705TIP3   OH223529   3.503   5.384  14.972  0.0524  0.3749  0.6764
  705TIP3    H123530   3.439   5.422  15.032 -0.5048 -0.2120  0.4606
  705TIP3    H223531   3.576   5.359  15.028 -0.5533 -0.3627  1.1496
  706TIP3   OH223532   1.693   2.415  14.236 -0.5616 -0.1369  0.5518
  706TIP3    H123533   1.775   2.366  14.245 -1.8235 -2.4475 -0.0935
  706TIP3    H223534   1.642   2.391  14.314 -1.1829  0.2141  0.2562
  707TIP3   OH223535   3.451   1.664   5.640  0.1763  0.5196  0.1929
  707TIP3    H123536   3.417   1.600   5.577 -2.4363  3.1650 -1.2082
  707TIP3    H223537   3.428   1.629   5.726  1.8374 -2.0625 -0.3669
  708TIP3   OH223538   0.816   2.595   5.135  0.0267  0.3471 -0.9837
  708TIP3    H123539   0.884   2.536   5.167  1.6681  2.2960 -0.8035
  708TIP3    H223540   0.736   2.565   5.178  0.8039 -1.7866 -0.9741
  709TIP3   OH223541   2.389   4.752   4.754  0.1048 -0.1525  0.3986
  709TIP3    H123542   2.320   4.688   4.737 -0.1039  0.4367 -1.0705
  709TIP3    H223543   2.381   4.815   4.683  0.7787  1.1058  1.4282
  710TIP3   OH223544   5.012   0.173   5.528 -0.5454 -0.1542  0.3978
  710TIP3    H123545   5.014   0.269   5.521 -1.6894 -0.0149  1.8719
  710TIP3    H223546   4.922   0.149   5.505 -0.3415 -0.8677  0.3345
  711TIP3   OH223547   6.052   0.202   2.674  0.1058 -0.0814  0.2461
  711TIP3    H123548   6.027   0.223   2.584 -0.2950  0.2420  0.4288
  711TIP3    H223549   5.971   0.170   2.714  0.3181 -0.3646  0.4498
  712TIP3   OH223550   4.204   1.830  12.493  0.4382  0.2920  0.0173
  712TIP3    H123551   4.290   1.813  12.532  1.5446  1.7362 -1.7163
  712TIP3    H223552   4.223   1.851  12.402 -1.6521  1.7684 -0.1039
  713TIP3   OH223553   5.087   3.868   4.111 -0.2095 -0.5143  0.7610
  713TIP3    H123554   5.118   3.817   4.186  1.2188  2.5062  2.3051
  713TIP3    H223555   5.045   3.944   4.149  0.8907  1.2816 -1.4741
  714TIP3   OH223556   6.034   5.342   0.854 -0.2671  0.2845 -0.2570
  714TIP3    H123557   6.035   5.307   0.943  0.3919  1.4452  0.2051
  714TIP3    H223558   5.954   5.306   0.815  0.5937 -1.9918  0.0646
  715TIP3   OH223559   4.266   0.250  15.661  0.4655 -0.0244 -0.0688
  715TIP3    H123560   4.341   0.205  15.623  0.1226 -2.3550  1.8767
  715TIP3    H223561   4.197   0.243  15.595  1.6050  1.1979 -1.4220
  716TIP3   OH223562   0.509   6.536   0.261  0.4194 -0.4009 -0.1156
  716TIP3    H123563   0.543   6.566   0.177  0.1514 -0.0078 -0.0863
  716TIP3    H223564   0.581   6.489   0.301  1.1849  1.1146  0.3066
  717TIP3   OH223565   3.732   6.192   5.062 -0.3037  0.0536  0.8092
  717TIP3    H123566   3.773   6.274   5.089  0.7394  0.3737 -1.5567
  717TIP3    H223567   3.656   6.219   5.009 -1.7076 -0.5348  2.4727
  718TIP3   OH223568   2.345   5.736  12.798 -0.4005  0.5526 -0.3286
  718TIP3    H123569   2.310   5.649  12.818 -0.4883  0.7323  0.3263
  718TIP3    H223570   2.356   5.778  12.884  2.8628 -0.0474 -0.3929
  719TIP3   OH223571   3.514   4.110  10.843  0.6734 -0.6559 -0.2085
  719TIP3    H123572   3.496   4.172  10.773 -0.0685 -0.7366 -0.0938
  719TIP3    H223573   3.441   4.048  10.839  1.0563 -1.1302  0.1104
  720TIP3   OH223574   5.036   0.416  12.860  0.0268 -0.3351  0.3516
  720TIP3    H123575   4.962   0.474  12.875  1.2923  0.8251  2.2758
  720TIP3    H223576   5.055   0.378  12.945  1.6146 -0.6464 -0.1274
  721TIP3   OH223577   6.016   4.597  12.781  0.4395  0.1824  0.4631
  721TIP3    H123578   6.110   4.615  12.793  0.4614 -0.4006  1.1649
  721TIP3    H223579   6.003   4.601  12.686  1.3556 -0.5989  0.2983
  722TIP3   OH223580   3.118   0.886  16.030 -0.0634  0.3365  0.2789
  722TIP3    H123581   3.069   0.808  16.058  1.1272  0.0824  1.7389
  722TIP3    H223582   3.201   0.851  15.997 -0.0644  0.9067 -0.3327
  723TIP3   OH223583   0.306   3.127  16.585  0.1365 -0.1347  0.1927
  723TIP3    H123584   0.232   3.066  16.592  1.1611 -1.4696 -0.4728
  723TIP3    H223585   0.384   3.071  16.587  1.0929  1.1382 -0.5664
  724TIP3   OH223586   2.282   6.673   3.010 -0.0072  0.0677  0.5397
  724TIP3    H123587   2.191   6.649   2.991  0.1635 -0.6998  0.6784
  724TIP3    H223588   2.321   6.592   3.044  0.6170  0.5045  0.8636
  725TIP3   OH223589   3.770   3.058   3.946 -0.2110 -0.0003  0.1540
  725TIP3    H123590   3.690   3.044   3.996 -0.7068 -0.1684 -0.6638
  725TIP3    H223591   3.747   3.125   3.881  0.0309 -0.7159 -0.6877
  726TIP3   OH223592   2.569   2.323   5.555 -0.7954  0.2376  0.4285
  726TIP3    H123593   2.569   2.410   5.516 -1.3920 -0.4312 -1.0890
  726TIP3    H223594   2.541   2.337   5.645 -0.3932  1.6741  0.3419
  727TIP3   OH223595   3.548   0.545   5.973 -0.1311  0.5408  0.3688
  727TIP3    H123596   3.545   0.479   6.043  0.6206  1.6431  1.4472
  727TIP3    H223597   3.641   0.554   5.953 -0.2612  1.0122 -0.0177
  728TIP3   OH223598   5.873   0.707   1.199 -0.1996 -0.1854 -0.1183
  728TIP3    H123599   5.783   0.726   1.169 -0.1733 -0.0907 -0.1380
  728TIP3    H223600   5.888   0.617   1.171 -0.1174 -0.0435 -0.5339
  729TIP3   OH223601   4.264   0.292  12.721  0.2681 -0.0645 -0.0699
  729TIP3    H123602   4.176   0.302  12.685 -0.0463  0.4041  0.8163
  729TIP3    H223603   4.309   0.235  12.659 -0.3675  0.4644 -1.0319
  730TIP3   OH223604   1.670   6.769  14.482  0.3672  0.0841  0.1323
  730TIP3    H123605   1.689   6.676  14.492 -1.5598 -0.4825 -1.0876
  730TIP3    H223606   1.613   6.791  14.556  2.6466  0.8763  1.6968
  731TIP3   OH223607   0.695   4.033   4.148 -0.2570  0.0437  0.1982
  731TIP3    H123608   0.685   3.953   4.200 -0.4278 -0.1694 -0.1630
  731TIP3    H223609   0.684   4.004   4.057 -1.0227  0.5908  0.1121
  732TIP3   OH223610   3.105   5.825  12.280  0.3685  0.2933  0.0894
  732TIP3    H123611   3.056   5.752  12.242  3.2118  0.1083 -3.5329
  732TIP3    H223612   3.059   5.903  12.249  1.6314  0.1048 -2.3843
  733TIP3   OH223613   4.552   6.549  12.371 -0.4900 -0.3134  0.0265
  733TIP3    H123614   4.626   6.587  12.324  0.0269 -0.0730  1.0313
  733TIP3    H223615   4.477   6.567  12.314 -0.0605  1.0926 -0.1301
  734TIP3   OH223616   2.601   4.145  13.088  0.5003 -0.5025 -0.4483
  734TIP3    H123617   2.657   4.076  13.052  1.0505 -0.6630  0.7033
  734TIP3    H223618   2.662   4.205  13.131 -0.2815 -1.2387  1.7547
  735TIP3   OH223619   4.428   1.376   1.773 -0.3065 -0.4217 -0.0522
  735TIP3    H123620   4.405   1.374   1.866 -2.0433  2.3344 -0.3518
  735TIP3    H223621   4.349   1.409   1.730  1.5163  1.3530 -2.1380
  736TIP3   OH223622   4.018   4.793  11.737  0.3984  0.7353  0.1771
  736TIP3    H123623   4.048   4.704  11.757 -1.1812  0.1148 -0.1487
  736TIP3    H223624   4.097   4.847  11.743  1.6045 -0.8767 -0.8098
  737TIP3   OH223625   4.887   0.373   1.270  0.6185  0.0197  0.0932
  737TIP3    H123626   4.844   0.312   1.210  1.8239  2.2707 -3.1846
  737TIP3    H223627   4.956   0.322   1.311  0.4741 -1.2928 -1.2616
  738TIP3   OH223628   3.829   2.148  16.914  0.0918  0.3380 -0.4993
  738TIP3    H123629   3.795   2.061  16.893 -1.7266  0.7166  0.8144
  738TIP3    H223630   3.776   2.178  16.988  0.4696  2.7167 -1.1519
  739TIP3   OH223631   5.888   1.290   2.657  0.0594  0.2931 -0.1373
  739TIP3    H123632   5.959   1.334   2.609  1.5824 -1.6231  0.3039
  739TIP3    H223633   5.901   1.317   2.748 -0.2789  0.5904 -0.1770
  740TIP3   OH223634   4.930   4.400   6.154 -0.5151 -0.1797 -0.1463
  740TIP3    H123635   5.010   4.404   6.102 -0.8633 -0.0391 -0.6811
  740TIP3    H223636   4.942   4.325   6.212 -0.2767 -0.5713 -0.7011
  741TIP3   OH223637   6.299   3.254   3.006 -0.4443 -0.2979 -0.6948
  741TIP3    H123638   6.294   3.213   3.092 -0.3883  1.6804  0.2713
  741TIP3    H223639   6.208   3.261   2.977 -0.4293 -1.4158 -1.0235
  742TIP3   OH223640   0.721   2.509  14.927 -0.5809 -0.1376 -0.2263
  742TIP3    H123641   0.790   2.529  14.864 -0.2757 -0.1984  0.0879
  742TIP3    H223642   0.674   2.592  14.938 -1.6671 -0.5175 -1.7765
  743TIP3   OH223643   6.154   1.153   4.264 -0.0314  0.1399 -0.1303
  743TIP3    H123644   6.240   1.159   4.305  1.4898 -1.2462 -2.9281
  743TIP3    H223645   6.148   1.230   4.208 -0.9130  0.6022  0.5987
  744TIP3   OH223646   2.432   4.167   3.110  0.0944 -0.2243 -0.8258
  744TIP3    H123647   2.355   4.142   3.059 -0.4804 -0.5848  0.2081
  744TIP3    H223648   2.397   4.219   3.183  0.8232 -0.4511 -0.3118
  745TIP3   OH223649   1.866   5.554  16.575  0.0616 -0.3175 -0.3135
  745TIP3    H123650   1.868   5.648  16.559 -2.7059 -0.3653 -1.3272
  745TIP3    H223651   1.837   5.546  16.666  2.8872 -0.2046  0.6446
  746TIP3   OH223652   3.224   4.912   3.857 -0.1140 -0.0771  0.0788
  746TIP3    H123653   3.224   4.935   3.764 -0.9808 -0.0112  0.0866
  746TIP3    H223654   3.131   4.897   3.878  0.2673 -2.0306  0.4572
  747TIP3   OH223655   5.231   1.629  13.862 -0.0632 -0.7216  0.4532
  747TIP3    H123656   5.301   1.683  13.825 -0.8855  0.3440  0.4430
  747TIP3    H223657   5.181   1.600  13.786  0.4862 -1.6738  0.4422
  748TIP3   OH223658   3.322   0.057   3.936 -0.4278 -0.0910 -0.4245
  748TIP3    H123659   3.314   0.108   3.856 -0.5381  0.3433 -0.1411
  748TIP3    H223660   3.276   0.109   4.002  3.0800  1.5689  0.8159
  749TIP3   OH223661   3.395   2.344   5.203 -0.2026  0.3036 -0.2557
  749TIP3    H123662   3.361   2.430   5.181  2.0748  1.6294  1.1877
  749TIP3    H223663   3.355   2.323   5.287 -0.1926  0.3012 -0.2517
  750TIP3   OH223664   0.264   2.488   3.437  0.1276  0.5787 -0.2170
  750TIP3    H123665   0.215   2.566   3.462  0.9331  1.6458 -1.8598
  750TIP3    H223666   0.206   2.415   3.458 -0.3644  1.5766  1.9514
  751TIP3   OH223667   4.949   2.720   3.404 -0.4213  0.0159  0.1275
  751TIP3    H123668   4.901   2.712   3.321 -1.3639  0.6881  0.5991
  751TIP3    H223669   5.014   2.650   3.400 -0.4880  0.0055 -1.1639
  752TIP3   OH223670   0.996   6.536  15.599 -0.1635 -0.5957  0.2596
  752TIP3    H123671   1.036   6.465  15.549 -1.6967  1.1803 -3.7164
  752TIP3    H223672   1.037   6.615  15.564 -1.1898  0.7309  1.9740
  753TIP3   OH223673   6.149   3.114  13.664  0.6472 -0.1417 -0.1802
  753TIP3    H123674   6.126   3.188  13.607 -0.1536  0.7845  1.3145
  753TIP3    H223675   6.151   3.038  13.605 -0.3989  0.7607 -1.4046
  754TIP3   OH223676   5.184   1.467  13.290 -0.0919 -0.0115 -0.1625
  754TIP3    H123677   5.174   1.413  13.368 -0.9001  1.4446  0.7834
  754TIP3    H223678   5.162   1.410  13.217  2.0391 -1.7936  0.5423
  755TIP3   OH223679   4.708   0.099  12.047  0.1440  0.1613 -0.1233
  755TIP3    H123680   4.629   0.127  12.093  0.6643 -0.5078  1.1936
  755TIP3    H223681   4.768   0.072  12.116  0.2805 -2.6073 -1.2637
  756TIP3   OH223682   4.108   3.757   0.458 -0.0592 -0.2211 -0.0943
  756TIP3    H123683   4.173   3.759   0.528 -0.4076 -0.2212  0.2339
  756TIP3    H223684   4.030   3.795   0.498 -0.7159 -1.6188 -0.0142
  757TIP3   OH223685   2.574   6.743   3.862 -0.5649 -0.0989  0.2451
  757TIP3    H123686   2.594   6.661   3.906 -1.3529 -0.6636 -0.4404
  757TIP3    H223687   2.482   6.760   3.883 -0.4436  0.5469  0.2762
  758TIP3   OH223688   5.729   3.522  13.975 -0.2720  0.2776 -0.0482
  758TIP3    H123689   5.672   3.536  14.051 -1.1434 -2.0898 -0.2193
  758TIP3    H223690   5.817   3.544  14.007 -0.5025 -1.5221  1.9435
  759TIP3   OH223691   3.999   1.011   1.802  0.2260  0.0174 -0.4452
  759TIP3    H123692   4.053   1.090   1.791 -0.7722  0.4070 -3.0843
  759TIP3    H223693   4.054   0.941   1.769  0.0695  0.0422 -0.7634
  760TIP3   OH223694   5.383   5.646   3.490 -0.0038 -0.1311 -0.3616
  760TIP3    H123695   5.473   5.677   3.504 -0.5671 -0.0250  3.4117
  760TIP3    H223696   5.328   5.720   3.514 -1.1302 -0.1169 -2.8964
  761TIP3   OH223697   1.627   3.863  10.795 -0.2049  0.4794  0.2607
  761TIP3    H123698   1.671   3.863  10.880  1.0993 -0.0952 -0.3958
  761TIP3    H223699   1.580   3.946  10.791  2.2263  1.9023  0.2826
  762TIP3   OH223700   3.628   3.265  11.699  0.2574  0.1217  0.8490
  762TIP3    H123701   3.647   3.357  11.680 -1.3512  0.6917  1.8852
  762TIP3    H223702   3.696   3.240  11.762  1.1772  0.3645 -0.0366
  763TIP3   OH223703   2.839   3.790  14.642 -0.2569 -0.3812 -0.1101
  763TIP3    H123704   2.880   3.777  14.557 -2.2768 -2.4516 -0.8103
  763TIP3    H223705   2.894   3.742  14.703  1.6808  1.8151 -0.0518
  764TIP3   OH223706   2.220   5.186  16.174 -0.0168 -0.4617 -0.1817
  764TIP3    H123707   2.188   5.116  16.231 -2.5153  0.0003 -0.9283
  764TIP3    H223708   2.216   5.148  16.086 -1.1218  0.5168 -0.5591
  765TIP3   OH223709   4.228   4.134   6.089 -0.1551  0.2857  0.7144
  765TIP3    H123710   4.278   4.212   6.065  2.1220 -1.4840 -0.4323
  765TIP3    H223711   4.201   4.096   6.006 -0.8189 -0.4632  1.2623
  766TIP3   OH223712   1.660   5.636   3.327  0.3860 -0.6469  0.1149
  766TIP3    H123713   1.753   5.638   3.349  0.1389 -2.0454  1.4332
  766TIP3    H223714   1.655   5.579   3.251  0.4853 -1.7009  0.8775
  767TIP3   OH223715   1.080   2.061  13.436  0.0986  0.0640  0.0441
  767TIP3    H123716   1.167   2.059  13.478  1.0508  1.5207 -1.7917
  767TIP3    H223717   1.027   2.114  13.495  1.0935  1.0713  0.0608
  768TIP3   OH223718   0.076   5.836  15.019  0.0930  0.1236  0.5158
  768TIP3    H123719   0.130   5.779  15.074  0.6919 -1.1342 -1.2957
  768TIP3    H223720  -0.011   5.795  15.020 -0.4138  1.2169  2.1010
  769TIP3   OH223721   3.396   6.355  15.457 -0.2418  0.1421 -0.0503
  769TIP3    H123722   3.327   6.348  15.523 -1.4836  0.8044 -1.2734
  769TIP3    H223723   3.378   6.284  15.396  0.9016 -0.4585  0.2939
  770TIP3   OH223724   6.728   0.702   5.653 -0.5840  0.1354 -0.4372
  770TIP3    H123725   6.692   0.747   5.729  0.0360  0.5084 -0.3624
  770TIP3    H223726   6.665   0.719   5.583 -2.1149 -1.7816  0.4557
  771TIP3   OH223727   1.973   1.888  12.326  0.0247 -0.1655 -0.6926
  771TIP3    H123728   2.047   1.836  12.355  1.9916  3.3780  0.9697
  771TIP3    H223729   1.933   1.920  12.407 -0.6516  1.4967 -1.6667
  772TIP3   OH223730   2.007   5.781  13.866  0.4156  0.6271 -0.1056
  772TIP3    H123731   1.994   5.724  13.942  2.7921 -1.5952 -1.2693
  772TIP3    H223732   2.080   5.838  13.892 -1.1834  2.4014  0.6110
  773TIP3   OH223733   2.543   4.024   3.620  0.3382 -0.4520 -0.1173
  773TIP3    H123734   2.520   3.971   3.544  0.0787 -2.7806  1.5031
  773TIP3    H223735   2.509   4.111   3.601 -1.4056 -1.4785 -1.8293
  774TIP3   OH223736   5.731   4.332  11.907  0.2882  0.3256 -0.5457
  774TIP3    H123737   5.677   4.274  11.961  1.7375 -1.3380 -0.8099
  774TIP3    H223738   5.735   4.414  11.957 -1.8248  0.2132 -0.1738
  775TIP3   OH223739   5.317   5.409  11.604  0.2825  0.1162  0.2190
  775TIP3    H123740   5.385   5.473  11.581  0.1174 -0.4487 -2.0073
  775TIP3    H223741   5.363   5.325  11.605 -0.3543 -0.2761 -1.3780
  776TIP3   OH223742   0.596   4.154   0.756  0.0613  0.1275  0.1830
  776TIP3    H123743   0.583   4.184   0.666  2.0360 -0.1949 -0.2344
  776TIP3    H223744   0.690   4.140   0.763  0.1193  1.5348  2.7452
  777TIP3   OH223745   2.427   0.548   3.381 -0.2772  0.1701 -0.2278
  777TIP3    H123746   2.484   0.623   3.364  0.6565 -0.4567  0.0720
  777TIP3    H223747   2.486   0.480   3.415 -0.5579 -1.7745 -3.4254
  778TIP3   OH223748   1.876   6.569  13.093 -0.5061  0.6790  0.0736
  778TIP3    H123749   1.971   6.578  13.101 -0.4918  0.6511 -0.0604
  778TIP3    H223750   1.864   6.485  13.048 -0.6552 -0.2417  1.7683
  779TIP3   OH223751   0.607   3.980   1.958  0.2763  0.3585  0.5987
  779TIP3    H123752   0.654   4.062   1.976 -0.3477  1.2269 -1.5312
  779TIP3    H223753   0.549   4.002   1.886  1.0924 -2.3512 -0.9282
  780TIP3   OH223754   1.352   0.756   3.019 -0.1990 -0.4194  0.1265
  780TIP3    H123755   1.440   0.757   3.055 -0.9359 -1.1897  2.0616
  780TIP3    H223756   1.314   0.840   3.045  0.2800  0.3227 -1.5509
  781TIP3   OH223757   1.304   2.063   5.285  0.1996 -0.0719 -0.5116
  781TIP3    H123758   1.245   2.010   5.338 -1.6515  3.3567  1.0075
  781TIP3    H223759   1.254   2.086   5.207  0.9206 -0.3646 -1.0744
  782TIP3   OH223760   0.413   2.429   5.705 -0.0422 -0.3069 -0.2032
  782TIP3    H123761   0.351   2.491   5.744 -0.3582  1.0690 -2.8180
  782TIP3    H223762   0.499   2.463   5.727 -0.1887 -0.8359  1.2649
  783TIP3   OH223763   1.033   0.482   2.240  0.3458 -0.7576 -0.5548
  783TIP3    H123764   0.978   0.406   2.222  0.7654 -0.9237 -1.1355
  783TIP3    H223765   0.990   0.555   2.194 -0.4790 -0.4838  0.6370
  784TIP3   OH223766   2.634   2.036   2.478 -0.1639 -0.3096 -0.5458
  784TIP3    H123767   2.541   2.047   2.460 -0.1061 -0.5708 -1.0055
  784TIP3    H223768   2.671   2.124   2.472 -0.3795 -0.2081 -0.3717
  785TIP3   OH223769   2.061   2.144   3.525  0.0819  0.4043 -0.1712
  785TIP3    H123770   1.987   2.127   3.584 -0.3847  0.3447 -0.7630
  785TIP3    H223771   2.053   2.236   3.501  1.1146  0.8071  0.9969
  786TIP3   OH223772   3.955   4.917   5.022  0.2219  0.2993  0.1013
  786TIP3    H123773   4.037   4.952   4.989 -0.1491  1.3245  0.2082
  786TIP3    H223774   3.890   4.940   4.955 -0.0106 -0.2772  0.1308
  787TIP3   OH223775   6.438   1.457   1.791  0.0652 -0.3348  0.4440
  787TIP3    H123776   6.506   1.390   1.796 -0.7091 -1.0373  2.0689
  787TIP3    H223777   6.424   1.483   1.882 -0.6831  0.9887 -0.0355
  788TIP3   OH223778   3.998   3.340  15.712 -0.3522 -0.2733 -0.1643
  788TIP3    H123779   3.965   3.413  15.661 -0.2113  1.0947  1.6629
  788TIP3    H223780   3.956   3.263  15.674 -3.0239  1.0798 -0.0377
  789TIP3   OH223781   2.810   0.794   3.252  0.1706  0.2424  0.0211
  789TIP3    H123782   2.845   0.724   3.196  0.0759 -0.0217  0.2930
  789TIP3    H223783   2.835   0.875   3.207  1.2792  0.0589  0.3084
  790TIP3   OH223784   2.717   3.867   0.549 -0.1524  0.1368  0.5921
  790TIP3    H123785   2.754   3.919   0.477  0.7770 -1.0064  0.2094
  790TIP3    H223786   2.700   3.930   0.618 -0.8518  1.2311 -0.5483
  791TIP3   OH223787   5.603   4.141  13.982 -0.1051 -0.3918 -0.0240
  791TIP3    H123788   5.579   4.171  14.070 -1.4354 -0.2647 -0.4180
  791TIP3    H223789   5.538   4.075  13.960  0.2563 -0.4733 -0.8913
  792TIP3   OH223790   6.461   0.674   4.232 -0.2936 -0.2533 -0.1723
  792TIP3    H123791   6.496   0.586   4.222 -1.9254 -0.6593 -2.9957
  792TIP3    H223792   6.377   0.662   4.276 -0.8882 -0.2423 -1.2660
  793TIP3   OH223793   5.266   4.103   6.542  0.2996 -0.7226  0.3292
  793TIP3    H123794   5.347   4.152   6.523 -0.6119  0.8870  0.5006
  793TIP3    H223795   5.232   4.079   6.456 -0.0696  0.3309  0.1695
  794TIP3   OH223796   4.018   6.219  13.876 -0.1016  0.0357 -0.3816
  794TIP3    H123797   3.948   6.220  13.810 -0.2822 -1.8609 -0.2397
  794TIP3    H223798   4.025   6.311  13.904 -3.3120  0.1097  0.4068
  795TIP3   OH223799   0.428   4.451   5.923 -0.2019  1.2335 -0.3181
  795TIP3    H123800   0.369   4.418   5.990  0.2692  1.5971  0.2826
  795TIP3    H223801   0.481   4.516   5.968  1.1037  0.4458 -0.6966
  796TIP3   OH223802   5.538   3.632   5.751 -0.3222 -0.4394  0.8078
  796TIP3    H123803   5.543   3.649   5.657  1.2570 -0.1954  0.9175
  796TIP3    H223804   5.455   3.586   5.763  0.3708 -2.2574 -1.0036
  797TIP3   OH223805   2.076   0.693  12.852 -0.0496 -0.1418  0.1014
  797TIP3    H123806   2.139   0.732  12.913 -1.1949  1.8613  0.0492
  797TIP3    H223807   2.131   0.650  12.786  1.3476  2.7780 -0.7199
  798TIP3   OH223808   1.558   2.485   5.578  0.4089 -0.1298  0.2860
  798TIP3    H123809   1.466   2.460   5.591  0.9599 -2.1174  0.4971
  798TIP3    H223810   1.558   2.535   5.497 -0.5261 -2.1628 -1.0103
  799TIP3   OH223811   5.734   2.313   2.538 -0.5850  0.3333 -0.4982
  799TIP3    H123812   5.699   2.372   2.605 -0.0412 -0.2107  0.2682
  799TIP3    H223813   5.696   2.227   2.560  0.1124  0.0247 -0.4966
  800TIP3   OH223814   0.046   2.630  16.009  0.0357  0.2522 -0.1664
  800TIP3    H123815   0.048   2.576  15.930  1.1434 -1.0821  0.7500
  800TIP3    H223816   0.073   2.717  15.979  0.6274 -0.2856 -1.2377
  801TIP3   OH223817   3.235   3.979  12.432 -0.5749 -0.3150 -0.9712
  801TIP3    H123818   3.221   4.008  12.522  0.2590 -0.4829 -0.7810
  801TIP3    H223819   3.147   3.962  12.398 -0.8926 -0.2604 -0.1885
  802TIP3   OH223820   6.238   1.260  14.509 -0.2679  0.1996  0.3489
  802TIP3    H123821   6.261   1.319  14.581 -0.5194  0.6341  0.0747
  802TIP3    H223822   6.183   1.193  14.549 -0.8408  0.7341  0.4652
  803TIP3   OH223823   6.577   5.557   5.141  0.6571  0.2869  0.0192
  803TIP3    H123824   6.634   5.483   5.161  1.1716  0.7241  0.1592
  803TIP3    H223825   6.614   5.630   5.189  0.9988  0.9893 -1.2956
  804TIP3   OH223826   0.557   2.316   2.517 -0.0654 -0.3011  0.7339
  804TIP3    H123827   0.628   2.262   2.551 -1.0885 -2.4720 -0.4684
  804TIP3    H223828   0.584   2.338   2.428 -0.0447  0.4888  0.9303
  805TIP3   OH223829   3.205   5.996   2.616 -0.1941  0.3210  0.8447
  805TIP3    H123830   3.182   6.000   2.709 -1.2482 -0.6849  0.6303
  805TIP3    H223831   3.266   6.069   2.604 -1.0414  1.2449  2.0488
  806TIP3   OH223832   5.029   1.754  14.525 -0.4995 -0.2654 -0.0646
  806TIP3    H123833   5.029   1.772  14.619  1.8057  0.3228 -0.1454
  806TIP3    H223834   4.937   1.738  14.504 -1.3426  1.6350  1.9100
  807TIP3   OH223835   5.987   5.835   2.077  1.0491  0.3540 -0.5565
  807TIP3    H123836   5.991   5.763   2.139 -0.0721 -0.5869 -1.5421
  807TIP3    H223837   5.893   5.853   2.066  1.2217  0.5287 -1.9160
  808TIP3   OH223838   2.872   0.190  15.094 -0.4411 -0.2372  0.2148
  808TIP3    H123839   2.918   0.113  15.130 -0.1833 -0.6840 -1.0392
  808TIP3    H223840   2.942   0.254  15.078 -0.4395 -0.3623 -0.2905
  809TIP3   OH223841   4.585   1.902  12.174  0.2642 -0.2319 -0.5048
  809TIP3    H123842   4.677   1.878  12.167  0.4479  0.0455  0.9279
  809TIP3    H223843   4.563   1.937  12.087  0.9719 -2.0996 -1.4552
  810TIP3   OH223844   0.117   0.174   0.695  0.3962  0.2630  0.7313
  810TIP3    H123845   0.121   0.242   0.762  2.7957 -0.2363  1.1596
  810TIP3    H223846   0.173   0.207   0.624  0.1086 -0.4479  0.1713
  811TIP3   OH223847   4.399   6.483   0.849  0.7828 -0.6193 -0.3432
  811TIP3    H123848   4.384   6.519   0.762 -2.1121 -1.7109 -0.3568
  811TIP3    H223849   4.446   6.552   0.897 -0.9624  1.5085 -1.6107
  812TIP3   OH223850   5.321   5.759  16.437 -0.2993  0.1235  0.3890
  812TIP3    H123851   5.332   5.747  16.531 -0.3188  0.0858  0.3864
  812TIP3    H223852   5.400   5.720  16.399 -1.1925 -1.5868  0.2722
  813TIP3   OH223853   5.916   3.871  11.262 -0.1116 -0.7752 -0.2934
  813TIP3    H123854   5.881   3.839  11.178 -0.4439 -1.2641  0.0295
  813TIP3    H223855   5.841   3.869  11.321 -0.0486  0.2759 -0.1804
  814TIP3   OH223856   1.141   2.398  11.109  0.0088 -0.2516  0.1577
  814TIP3    H123857   1.203   2.368  11.175 -1.0491 -1.2149  0.7322
  814TIP3    H223858   1.195   2.418  11.033  0.9615 -1.7279  0.4248
  815TIP3   OH223859   1.083   6.119  15.241  0.2038  0.1168  0.0480
  815TIP3    H123860   0.994   6.115  15.274  0.5439  1.4164  1.1754
  815TIP3    H223861   1.074   6.114  15.146 -1.1023  0.8771  0.1247
  816TIP3   OH223862   4.266   2.822   5.514 -0.1708 -0.0661  0.1570
  816TIP3    H123863   4.208   2.776   5.573  0.5873 -0.4293  0.6316
  816TIP3    H223864   4.331   2.863   5.571  0.2913 -0.0260 -0.3865
  817TIP3   OH223865   5.402   6.189   0.690 -0.8095 -0.1221 -0.7551
  817TIP3    H123866   5.314   6.168   0.723 -1.3571  0.8547 -1.5687
  817TIP3    H223867   5.439   6.247   0.756 -1.3750  0.7185 -1.1755
  818TIP3   OH223868   3.760   5.018   1.281  0.3065  0.2195 -0.1375
  818TIP3    H123869   3.824   5.057   1.341  1.3931 -0.1944 -1.0220
  818TIP3    H223870   3.811   4.958   1.227 -0.5214  1.0933 -1.9492
  819TIP3   OH223871   1.074   3.976  11.502  0.2249 -0.1256 -0.1322
  819TIP3    H123872   1.120   3.929  11.432  0.5223  0.9661 -0.6746
  819TIP3    H223873   1.015   4.036  11.456 -1.3053 -1.0665  0.5559
  820TIP3   OH223874   2.678   0.938   1.638 -0.2748 -0.4807 -0.0031
  820TIP3    H123875   2.603   0.927   1.581  0.5995 -1.1745 -1.0272
  820TIP3    H223876   2.662   0.879   1.711 -1.6221  0.7595  0.7335
  821TIP3   OH223877   2.378   5.477   5.729  0.1006  0.0632 -0.2456
  821TIP3    H123878   2.390   5.511   5.640  1.3462  2.8948  0.9535
  821TIP3    H223879   2.435   5.400   5.733 -0.2863 -0.3343 -2.0163
  822TIP3   OH223880   1.960   0.019   6.130 -0.1802  0.0107 -0.5027
  822TIP3    H123881   2.033  -0.028   6.090 -0.2353 -0.7582  0.2791
  822TIP3    H223882   1.923  -0.043   6.193  0.5555  1.5460  1.4960
  823TIP3   OH223883   1.153   6.405  14.550 -0.6216 -0.1434 -0.3036
  823TIP3    H123884   1.098   6.458  14.492 -0.8102  0.5671  0.5242
  823TIP3    H223885   1.131   6.315  14.527 -1.9693  0.1302 -0.1465
  824TIP3   OH223886   6.167   5.138  15.398  0.0689  0.6847 -0.2313
  824TIP3    H123887   6.085   5.184  15.381  0.4454  1.4117 -0.1008
  824TIP3    H223888   6.175   5.138  15.494 -0.0173  0.1841 -0.2206
  825TIP3   OH223889   5.906   5.224  13.900 -0.3977 -0.7154  0.2590
  825TIP3    H123890   5.918   5.155  13.966  0.5068 -0.1632  0.6756
  825TIP3    H223891   5.973   5.206  13.834 -0.6676 -0.6872 -0.0212
  826TIP3   OH223892   5.187   6.534  11.057 -0.9424  0.4163  0.6435
  826TIP3    H123893   5.197   6.439  11.063 -1.1141  0.2649 -1.1988
  826TIP3    H223894   5.117   6.556  11.119 -2.6389 -0.9751 -0.7448
  827TIP3   OH223895   1.403   5.153  14.433  0.2666  0.1559  0.1913
  827TIP3    H123896   1.374   5.227  14.486 -0.9244  1.2848 -1.9677
  827TIP3    H223897   1.339   5.149  14.362  1.4509 -1.7391 -0.7894
  828TIP3   OH223898   2.313   0.595   4.786  0.6881  0.1557  0.0580
  828TIP3    H123899   2.365   0.628   4.860  1.5325  0.2401 -0.5585
  828TIP3    H223900   2.230   0.642   4.792 -0.4122 -2.0062  2.6944
  829TIP3   OH223901   5.593   3.471   0.559 -0.1147 -0.0369 -0.3677
  829TIP3    H123902   5.683   3.495   0.582  0.0553 -0.6876 -0.3565
  829TIP3    H223903   5.542   3.491   0.637  0.3867 -1.8094  0.4272
  830TIP3   OH223904   2.111   6.273   0.828 -0.0600  0.6991 -0.2599
  830TIP3    H123905   2.026   6.231   0.816  1.0851 -1.5062 -0.9385
  830TIP3    H223906   2.120   6.279   0.923 -0.1612 -0.8556 -0.1268
  831TIP3   OH223907   2.994   6.307  13.965  0.8325  0.0693 -0.2702
  831TIP3    H123908   2.992   6.398  13.935 -0.4396 -0.5954 -2.2434
  831TIP3    H223909   2.916   6.299  14.021 -0.1653 -0.3245 -1.6923
  832TIP3   OH223910   4.771   5.197   2.304 -0.1077  0.0350 -0.2101
  832TIP3    H123911   4.843   5.188   2.366  1.7223  0.1793 -2.2401
  832TIP3    H223912   4.814   5.197   2.218 -2.5433  0.0721 -1.4612
  833TIP3   OH223913   2.415   5.626  16.292 -0.2834 -0.1163  0.8204
  833TIP3    H123914   2.494   5.679  16.300  1.4759 -2.2632 -1.3911
  833TIP3    H223915   2.421   5.564  16.365  1.0955 -1.4607 -0.3856
  834TIP3   OH223916   0.549   2.929  16.644  0.3095 -0.3377 -0.1624
  834TIP3    H123917   0.564   2.877  16.565  2.2918 -0.0841  0.0213
  834TIP3    H223918   0.622   2.907  16.702  0.5034  1.7245  0.4108
  835TIP3   OH223919   4.952   0.446   5.439 -0.0565  0.1169 -0.0694
  835TIP3    H123920   5.025   0.498   5.403  0.8294 -1.1917 -0.1908
  835TIP3    H223921   4.909   0.408   5.363 -0.5545  0.4573  0.0371
  836TIP3   OH223922   3.527   3.752  10.497 -0.0077  0.3407  0.9084
  836TIP3    H123923   3.444   3.705  10.498  0.0886  0.1142 -0.6747
  836TIP3    H223924   3.503   3.842  10.473  0.3032  0.0504 -0.5179
  837TIP3   OH223925   4.626   0.408  15.880  0.4236 -0.3013 -0.2482
  837TIP3    H123926   4.618   0.503  15.879  0.5812 -0.2917 -1.0529
  837TIP3    H223927   4.671   0.388  15.962  2.6399  0.5005 -1.2350
  838TIP3   OH223928   6.488   3.569   3.203 -0.0948 -0.4369  0.2293
  838TIP3    H123929   6.392   3.565   3.210 -0.2137 -0.1684 -1.0799
  838TIP3    H223930   6.518   3.485   3.236 -0.8231 -0.7439  0.1125
  839TIP3   OH223931   4.697   3.164   5.174 -0.1836 -0.1702  0.1034
  839TIP3    H123932   4.672   3.143   5.264 -0.3457  1.2592  0.4021
  839TIP3    H223933   4.690   3.260   5.169  0.1543 -0.2132 -1.3278
  840TIP3   OH223934   6.262   2.232  16.222 -0.3000  0.2734 -0.2055
  840TIP3    H123935   6.241   2.203  16.311  0.0904 -1.7324 -0.7304
  840TIP3    H223936   6.217   2.170  16.165  0.5199  0.7447 -1.3916
  841TIP3   OH223937   5.244   2.443   0.143  0.7010  0.4376 -0.4868
  841TIP3    H123938   5.302   2.507   0.102  0.9657  1.0706  0.8824
  841TIP3    H223939   5.299   2.366   0.158  0.2283 -0.3792 -2.7266
  842TIP3   OH223940   4.166   0.999   2.203  0.5653 -0.0142  0.5470
  842TIP3    H123941   4.234   1.029   2.143  0.8958 -0.6078  0.6147
  842TIP3    H223942   4.160   1.068   2.270 -1.6422  1.9146 -1.5667
  843TIP3   OH223943   2.469   5.150  15.503  0.0698 -0.0733 -0.1959
  843TIP3    H123944   2.497   5.227  15.454 -0.3257  1.5408  2.0348
  843TIP3    H223945   2.412   5.103  15.443  0.2223  1.4321 -1.5537
  844TIP3   OH223946   4.463   4.904   4.759 -0.2970  0.0487  0.2258
  844TIP3    H123947   4.417   4.975   4.714 -0.4686 -0.5376 -0.5414
  844TIP3    H223948   4.540   4.888   4.704  0.2486  0.2825  0.9125
  845TIP3   OH223949   1.004   6.125   2.442 -0.4121  0.0098 -0.5151
  845TIP3    H123950   0.977   6.206   2.399 -0.3737 -1.4036 -3.3550
  845TIP3    H223951   1.026   6.150   2.531 -0.4309  3.1061 -1.3505
  846TIP3   OH223952   6.694   2.610   5.174  0.4373 -0.5234 -0.4485
  846TIP3    H123953   6.693   2.521   5.210  1.4470 -0.5299 -0.4141
  846TIP3    H223954   6.642   2.605   5.094  1.3724 -1.3857 -1.0074
  847TIP3   OH223955   4.606   0.275  11.299 -0.0598 -0.0582  0.0542
  847TIP3    H123956   4.535   0.239  11.353  0.0433  0.0689  0.2717
  847TIP3    H223957   4.674   0.299  11.362 -0.0531  0.3534 -0.1100
  848TIP3   OH223958   1.744   5.429  12.998  0.0174  0.3104 -0.1529
  848TIP3    H123959   1.811   5.479  12.952 -0.0993  0.5061 -0.1127
  848TIP3    H223960   1.758   5.449  13.090  0.7424 -0.6919 -0.0438
  849TIP3   OH223961   1.845   0.418  11.335  0.2325  0.0857 -0.3982
  849TIP3    H123962   1.938   0.432  11.316  0.3917 -0.4625 -0.0279
  849TIP3    H223963   1.832   0.453  11.423 -0.0588  0.7522 -0.6995
  850TIP3   OH223964   0.080   1.270  12.371 -0.6759  0.3622  0.1129
  850TIP3    H123965   0.139   1.204  12.335  0.3835  0.6039  1.3606
  850TIP3    H223966  -0.005   1.250  12.333 -0.1720 -1.1477 -0.2446
  851TIP3   OH223967   2.915   1.041   2.094  0.3152  0.2465  0.3399
  851TIP3    H123968   2.948   1.128   2.116 -0.3715  0.7536 -0.6087
  851TIP3    H223969   2.915   1.039   1.999 -1.1090 -0.2404  0.3382
  852TIP3   OH223970   1.436   5.218   3.348  0.3047  0.3422  0.9237
  852TIP3    H123971   1.369   5.209   3.416 -0.3946 -0.6318  0.1261
  852TIP3    H223972   1.433   5.135   3.301 -1.3311  2.0812 -2.2049
  853TIP3   OH223973   1.501   6.330   4.520  0.1683 -0.2714  0.3225
  853TIP3    H123974   1.595   6.315   4.526  0.3649  0.4917 -0.7408
  853TIP3    H223975   1.471   6.273   4.450  0.1339  0.7480 -0.5084
  854TIP3   OH223976   1.936   5.070   3.958 -0.8153 -0.5256 -0.2614
  854TIP3    H123977   1.865   5.036   4.012 -1.6810  1.2346 -0.2541
  854TIP3    H223978   1.913   5.042   3.869 -1.2824 -0.3656 -0.1945
  855TIP3   OH223979   6.238   1.784   3.364 -0.0076 -0.3057 -0.1179
  855TIP3    H123980   6.198   1.707   3.324  1.9767 -1.7055  0.4884
  855TIP3    H223981   6.322   1.794   3.319  1.3385 -0.6827  2.2061
  856TIP3   OH223982   2.998   4.312  13.413 -0.5265  0.3719 -0.3276
  856TIP3    H123983   3.007   4.406  13.400 -1.2748  0.4366 -0.4248
  856TIP3    H223984   2.935   4.304  13.485  0.2163 -0.0409  0.2775
  857TIP3   OH223985   0.403   5.180  15.112  0.1134 -0.7558 -0.2539
  857TIP3    H123986   0.337   5.249  15.113  1.7530  0.8471  0.4822
  857TIP3    H223987   0.476   5.216  15.163  1.2062 -2.8300 -0.2934
  858TIP3   OH223988   1.964   5.264  11.243  0.1412 -0.6167 -0.3726
  858TIP3    H123989   1.933   5.208  11.314 -1.4478 -2.7818 -2.6887
  858TIP3    H223990   2.018   5.207  11.189 -0.8333  0.2751 -2.3357
  859TIP3   OH223991   0.668   3.037  15.115  0.0949  0.0602 -0.3645
  859TIP3    H123992   0.640   3.121  15.151 -0.2975 -0.3882  0.3789
  859TIP3    H223993   0.587   2.989  15.100  0.3855 -0.7257  0.5296
  860TIP3   OH223994   1.224   1.400  11.806 -0.1440  0.2458 -0.4618
  860TIP3    H123995   1.278   1.385  11.884 -0.9683 -1.3271 -0.1661
  860TIP3    H223996   1.279   1.374  11.733  0.0217  0.0667 -0.2752
  861TIP3   OH223997   0.150   6.486  13.079 -0.2811  0.2303  0.4758
  861TIP3    H123998   0.240   6.481  13.048 -0.7915  1.3421 -1.2906
  861TIP3    H223999   0.138   6.578  13.103 -1.2099  0.2745 -0.1391
  862TIP3   OH224000   2.464   1.419   0.630  0.3376  0.6661  0.1441
  862TIP3    H124001   2.514   1.381   0.557 -1.0497  0.4571 -0.7078
  862TIP3    H224002   2.483   1.512   0.626 -0.1095  0.7184 -0.7746
  863TIP3   OH224003   2.513   0.089  14.338  0.0601  0.2607  0.4633
  863TIP3    H124004   2.476   0.145  14.270 -0.6501 -0.1564  0.5018
  863TIP3    H224005   2.452   0.097  14.411  0.0890 -0.3758  0.5549
  864TIP3   OH224006   0.022   4.355   3.201 -0.1863 -0.0681  0.2486
  864TIP3    H124007   0.117   4.342   3.209 -0.0599 -1.2883 -2.9408
  864TIP3    H224008   0.013   4.424   3.135 -1.5621 -0.5636 -0.0823
  865TIP3   OH224009   0.135   3.953   6.313  0.1706  0.1573 -0.2456
  865TIP3    H124010   0.109   4.043   6.330  0.0648  0.5758 -2.4143
  865TIP3    H224011   0.064   3.900   6.351 -0.0301  1.0044  0.5730
  866TIP3   OH224012   2.912   4.532   6.652  0.5591 -0.3822  0.2349
  866TIP3    H124013   2.847   4.549   6.583  0.5928 -0.2070  0.2481
  866TIP3    H224014   2.948   4.446   6.628 -0.4428 -0.9882  0.8284
  867TIP3   OH224015   1.403   4.862   3.905  0.8127 -0.0208 -0.3045
  867TIP3    H124016   1.369   4.856   3.816  0.0499 -2.4349  0.1090
  867TIP3    H224017   1.329   4.890   3.958  1.2422  1.3236 -0.4060
  868TIP3   OH224018   3.079   2.455   5.606  0.6438 -0.3389  0.2727
  868TIP3    H124019   3.014   2.436   5.673 -1.0746  0.9992 -0.9852
  868TIP3    H224020   3.103   2.369   5.571 -1.0016 -0.7884  0.2287
  869TIP3   OH224021   2.451   2.748  16.151 -0.2874 -0.2892 -0.2801
  869TIP3    H124022   2.513   2.686  16.113 -1.4982 -1.0383 -1.0802
  869TIP3    H224023   2.505   2.808  16.202  1.0668 -1.0513 -0.7898
  870TIP3   OH224024   5.014   4.323   5.432  0.2563 -0.3066  0.2870
  870TIP3    H124025   4.949   4.359   5.372 -0.3179 -0.5740  0.7491
  870TIP3    H224026   4.996   4.229   5.435  1.6946 -0.6440 -0.8412
  871TIP3   OH224027   3.516   2.057   4.114  0.3388  0.0812 -0.0749
  871TIP3    H124028   3.488   1.987   4.172 -0.7000  0.2398 -0.3712
  871TIP3    H224029   3.610   2.045   4.105  0.4135 -0.3073  1.1576
  872TIP3   OH224030   3.082   1.963  13.596 -0.0058  0.4618 -1.2378
  872TIP3    H124031   3.026   1.908  13.651  0.3740  1.4287  0.1341
  872TIP3    H224032   3.171   1.930  13.611  0.1757  1.1645 -0.7354
  873TIP3   OH224033   5.619   1.947   2.897 -0.2849  0.2194  0.1845
  873TIP3    H124034   5.620   1.951   2.993  0.2083 -0.4346  0.2093
  873TIP3    H224035   5.612   1.854   2.877 -2.1716  0.4835 -0.4167
  874TIP3   OH224036   6.271   5.968  12.801  0.0924  0.1214 -0.1406
  874TIP3    H124037   6.318   5.991  12.881 -2.7260  1.2334  1.2638
  874TIP3    H224038   6.229   5.884  12.820 -0.2749  0.1966 -0.5822
  875TIP3   OH224039   3.707   6.450   3.197  0.3002  0.0627 -0.2115
  875TIP3    H124040   3.764   6.484   3.265 -0.2984 -0.7472  0.7114
  875TIP3    H224041   3.625   6.499   3.208 -0.6448 -1.7563  1.2694
  876TIP3   OH224042   6.705   1.151   4.027  0.0828  0.0170  0.0606
  876TIP3    H124043   6.709   1.247   4.030 -3.3976  0.2526 -0.0596
  876TIP3    H224044   6.772   1.122   4.088  2.3434  2.4774 -1.1666
  877TIP3   OH224045   0.222   1.331  16.617  0.1779  0.1091 -0.6986
  877TIP3    H124046   0.203   1.277  16.540  0.0619 -0.8337 -0.0226
  877TIP3    H224047   0.146   1.387  16.627 -0.9186 -1.4885  0.1759
  878TIP3   OH224048   4.943   5.955  11.046 -0.1571 -0.6533 -0.7919
  878TIP3    H124049   5.027   5.916  11.073 -0.6773  0.5349  2.7628
  878TIP3    H224050   4.887   5.880  11.026  0.8038 -1.5263 -0.2541
  879TIP3   OH224051   2.022   5.010  12.595  0.3763 -0.0875  0.1750
  879TIP3    H124052   2.019   5.005  12.691 -0.3100  1.2173  0.2303
  879TIP3    H224053   2.040   5.102  12.576  2.2779 -0.6616 -0.9289
  880TIP3   OH224054   6.073   2.173   1.323  0.0535 -0.4917  0.3146
  880TIP3    H124055   5.988   2.210   1.300  1.2861  0.9552 -2.1385
  880TIP3    H224056   6.118   2.245   1.368 -0.0482 -1.3055  1.7459
  881TIP3   OH224057   1.695   0.068   1.141  0.0601  0.0561  0.1407
  881TIP3    H124058   1.721   0.045   1.052 -0.3215 -1.1694  0.3354
  881TIP3    H224059   1.600   0.062   1.140  0.0481  0.1686  0.6075
  882TIP3   OH224060   2.531   2.416  16.657 -0.1319 -0.1767 -0.0987
  882TIP3    H124061   2.568   2.502  16.636 -0.1685 -0.3074 -0.7010
  882TIP3    H224062   2.587   2.354  16.611 -0.7245 -0.4101 -0.5115
  883TIP3   OH224063   3.578   0.575   1.646 -0.0267 -0.0728 -0.4703
  883TIP3    H124064   3.569   0.558   1.552 -1.0428  1.4733 -0.6582
  883TIP3    H224065   3.669   0.601   1.657 -0.2330  0.9810 -1.2215
  884TIP3   OH224066   4.699   1.746   1.520  0.7322 -0.1148 -0.0637
  884TIP3    H124067   4.647   1.705   1.589 -0.0153 -0.1682 -0.6504
  884TIP3    H224068   4.740   1.821   1.562 -0.5850  0.4894  0.1782
  885TIP3   OH224069   0.084   1.911  14.303  0.4671  0.0751  0.5062
  885TIP3    H124070   0.087   2.006  14.292 -0.9101  0.0300 -0.2486
  885TIP3    H224071   0.138   1.877  14.232 -1.3043  0.1805 -0.9156
  886TIP3   OH224072   1.293   3.732   1.733 -0.4250  0.2797  0.0641
  886TIP3    H124073   1.325   3.677   1.661 -0.1098  1.2877 -0.5674
  886TIP3    H224074   1.362   3.727   1.800 -1.1458 -1.4255  0.7141
  887TIP3   OH224075   1.112   2.421  12.891  0.0241  0.5733  0.1443
  887TIP3    H124076   1.051   2.491  12.869  0.8675  0.6195 -2.1447
  887TIP3    H224077   1.082   2.346  12.839  0.3085 -0.1915  1.0666
  888TIP3   OH224078   4.377   5.511   0.593  0.1960  0.1249 -0.1329
  888TIP3    H124079   4.360   5.423   0.559 -1.2366  0.3043  0.0824
  888TIP3    H224080   4.291   5.544   0.618  0.8150  1.3152  0.4718
  889TIP3   OH224081   3.199   1.284  16.198  0.3786  0.9218 -0.2243
  889TIP3    H124082   3.264   1.316  16.135  0.4085  1.5462  0.1122
  889TIP3    H224083   3.117   1.280  16.148 -0.0959  3.6099  0.2386
  890TIP3   OH224084   3.532   6.137   2.704  0.2919  0.2192  0.0221
  890TIP3    H124085   3.531   6.107   2.613  0.3721 -2.0206  0.7375
  890TIP3    H224086   3.534   6.233   2.697 -0.1127  0.0984 -2.3241
  891TIP3   OH224087   6.160   4.036   4.244 -0.4591 -0.2923 -0.7308
  891TIP3    H124088   6.188   4.104   4.307 -1.1132 -0.3275 -0.3997
  891TIP3    H224089   6.230   3.970   4.249 -0.4242 -0.2217 -0.1540
  892TIP3   OH224090   4.032   0.414  14.974 -0.5680  0.3895  0.4652
  892TIP3    H124091   3.994   0.481  14.918 -0.5489 -1.4374 -1.8200
  892TIP3    H224092   3.959   0.385  15.029 -1.2680  0.3239 -0.4913
  893TIP3   OH224093   5.756   0.676   2.969 -0.0828 -0.1453  0.1773
  893TIP3    H124094   5.815   0.732   3.021  0.3320  0.7726 -1.2473
  893TIP3    H224095   5.747   0.722   2.886 -2.0359 -0.7887  0.0161
  894TIP3   OH224096   0.830   2.548   5.895 -0.6551 -0.1010 -0.1176
  894TIP3    H124097   0.816   2.500   5.978 -2.1109 -0.1236 -0.3570
  894TIP3    H224098   0.918   2.522   5.867  0.5613  1.2596  2.3063
  895TIP3   OH224099   3.520   6.059   2.424  0.4524 -0.4310  0.0233
  895TIP3    H124100   3.499   5.968   2.443  0.9309  0.1883  4.1894
  895TIP3    H224101   3.616   6.060   2.418  0.5374 -0.0650  1.2035
  896TIP3   OH224102   4.843   0.329   1.831 -0.1044 -0.3076  0.0828
  896TIP3    H124103   4.830   0.248   1.780 -0.0652 -0.7805  0.8119
  896TIP3    H224104   4.774   0.327   1.897  0.1445  0.0603  0.3550
  897TIP3   OH224105   4.967   2.913   1.199  0.2209 -0.2096  0.4504
  897TIP3    H124106   5.040   2.852   1.207  0.5349  0.2737  1.2633
  897TIP3    H224107   4.912   2.875   1.130  1.6891 -0.1188 -0.8124
  898TIP3   OH224108   1.238   4.176   3.447 -0.0770 -0.1798  0.1956
  898TIP3    H124109   1.195   4.259   3.426 -0.6268 -0.2472  1.0456
  898TIP3    H224110   1.195   4.112   3.391 -2.0398 -0.4876  1.9990
  899TIP3   OH224111   0.920   5.959  14.016  0.2383 -0.0984  0.3257
  899TIP3    H124112   1.010   5.987  14.033  0.5680 -0.6323 -0.4807
  899TIP3    H224113   0.878   5.962  14.102  0.9479  0.4242  0.6678
  900TIP3   OH224114   5.041   2.284  17.233 -0.0028 -0.1016  0.7670
  900TIP3    H124115   5.025   2.190  17.239  0.4518 -0.1063  2.1763
  900TIP3    H224116   5.126   2.296  17.275 -0.0627  0.9429  0.5961
  901TIP3   OH224117   3.853   2.042   2.992  0.2816 -0.5929 -0.1242
  901TIP3    H124118   3.762   2.014   3.003  0.4610 -1.2225 -0.2127
  901TIP3    H224119   3.903   1.961   2.998  0.7079 -0.4568 -1.6422
  902TIP3   OH224120   1.400   2.060   1.808 -0.1019 -0.0181 -0.1904
  902TIP3    H124121   1.470   2.001   1.780  1.7686  1.1134  1.9354
  902TIP3    H224122   1.401   2.131   1.744  1.1180  0.2923  0.1702
  903TIP3   OH224123   3.874   5.758   6.249  0.0083 -0.2201  0.4423
  903TIP3    H124124   3.951   5.762   6.305  0.1199 -1.3729  0.3672
  903TIP3    H224125   3.870   5.668   6.218  0.1248  0.4540 -1.6573
  904TIP3   OH224126   2.978   0.170   0.804  0.9906 -0.2962 -0.1352
  904TIP3    H124127   2.896   0.199   0.845  1.0239 -1.3647  0.6990
  904TIP3    H224128   3.001   0.090   0.850  0.9024 -1.6869 -2.4237
  905TIP3   OH224129   4.282   2.226  11.980  0.2205 -0.2649 -0.2791
  905TIP3    H124130   4.229   2.201  12.056  1.3291  0.0577  0.6078
  905TIP3    H224131   4.314   2.314  12.001 -1.9109  1.0874 -2.4416
  906TIP3   OH224132   6.161   6.343  16.521  0.0796  0.6797  0.1887
  906TIP3    H124133   6.079   6.355  16.473  0.2770 -0.8899 -0.5640
  906TIP3    H224134   6.228   6.377  16.461 -0.1195  3.3091  1.3803
  907TIP3   OH224135   6.080   2.168  12.146  0.3799  0.1331 -0.1516
  907TIP3    H124136   6.071   2.173  12.241  0.7031  1.0126 -0.1642
  907TIP3    H224137   6.011   2.225  12.112 -0.2066 -0.7545 -0.4653
  908TIP3   OH224138   4.775   2.480  15.215  0.8532  0.1092 -0.0539
  908TIP3    H124139   4.766   2.490  15.310  1.0801  4.0032 -0.3646
  908TIP3    H224140   4.822   2.558  15.187 -1.3762  0.2834 -3.6793
  909TIP3   OH224141   6.580   3.147   0.659 -0.0927 -0.3504  0.2702
  909TIP3    H124142   6.574   3.233   0.701 -0.1570 -0.9252  1.4667
  909TIP3    H224143   6.548   3.162   0.570  1.0503  1.1186  0.0795
  910TIP3   OH224144   2.050   5.999  14.177  0.3333  0.1326  0.1660
  910TIP3    H124145   2.025   6.081  14.136  0.9243 -0.3091 -1.0940
  910TIP3    H224146   2.143   5.990  14.158  0.5566 -0.2208  1.3720
  911TIP3   OH224147   6.574   2.751  15.812  0.4551 -0.3209 -0.1725
  911TIP3    H124148   6.521   2.754  15.732  0.0855  1.8459  0.1252
  911TIP3    H224149   6.653   2.704  15.787  0.3608  0.3775 -1.8294
  912TIP3   OH224150   3.815   6.193  15.701  0.2234 -0.4102  0.0802
  912TIP3    H124151   3.775   6.138  15.768  2.1412 -2.1677 -0.1679
  912TIP3    H224152   3.879   6.246  15.749 -0.6393  0.6241  0.1056
  913TIP3   OH224153   3.209   3.370  15.199  0.3157  0.1729 -0.5439
  913TIP3    H124154   3.264   3.444  15.223  1.4215  0.0026 -2.3926
  913TIP3    H224155   3.271   3.298  15.187 -0.4090 -0.2774 -1.6862
  914TIP3   OH224156   0.739   5.895   0.476 -0.2500 -0.2465  0.2185
  914TIP3    H124157   0.790   5.825   0.435  0.4548 -1.8239  3.6407
  914TIP3    H224158   0.649   5.862   0.475 -0.2371 -0.2804 -0.0002
  915TIP3   OH224159   5.137   6.728   6.175 -0.3301 -0.1824  0.1315
  915TIP3    H124160   5.116   6.638   6.201  1.5844  0.0969  2.8210
  915TIP3    H224161   5.069   6.781   6.216  1.0501 -0.0151  2.2468
  916TIP3   OH224162   0.899   3.531  13.736 -0.1660 -0.4750 -0.6250
  916TIP3    H124163   0.956   3.547  13.661 -1.5048  1.4072 -1.3003
  916TIP3    H224164   0.810   3.530  13.699 -0.9507  1.6971  1.0522
  917TIP3   OH224165   0.305   5.464   2.664  0.7945 -0.1691  0.1096
  917TIP3    H124166   0.312   5.460   2.568  0.2332 -0.5266  0.0818
  917TIP3    H224167   0.339   5.380   2.694 -1.1259 -0.9753  0.0976
  918TIP3   OH224168   6.277   2.057  13.098 -0.3353  0.0997 -0.7806
  918TIP3    H124169   6.281   1.980  13.155 -0.6921  1.6101  1.3363
  918TIP3    H224170   6.183   2.074  13.088 -0.2697 -0.0883 -1.7470
  919TIP3   OH224171   4.737   4.396  12.220  0.1303  0.3290  0.1939
  919TIP3    H124172   4.826   4.367  12.202 -0.2928 -0.5479 -0.4886
  919TIP3    H224173   4.707   4.436  12.138 -1.1938 -2.1678 -0.5993
  920TIP3   OH224174   1.737   0.541   6.452  0.2498  0.7057 -0.1851
  920TIP3    H124175   1.654   0.560   6.409  0.8976  2.6274 -0.6443
  920TIP3    H224176   1.774   0.468   6.402 -0.5973  0.6534 -0.7405
  921TIP3   OH224177   1.179   3.470  14.384 -0.1279  0.4930  0.1224
  921TIP3    H124178   1.127   3.414  14.441 -1.3158  0.6650 -0.7644
  921TIP3    H224179   1.138   3.461  14.298  0.7439  1.3601 -0.3936
  922TIP3   OH224180   5.335   5.490   2.665 -0.4681  0.2962  0.1056
  922TIP3    H124181   5.282   5.557   2.708 -1.2261 -0.8000  0.9190
  922TIP3    H224182   5.370   5.438   2.737  0.5487  0.1334 -0.5003
  923TIP3   OH224183   4.602   4.221  16.438 -0.7625  0.2406  0.5448
  923TIP3    H124184   4.626   4.145  16.491  2.6127  2.3156  2.2394
  923TIP3    H224185   4.516   4.247  16.470 -1.0226 -1.6164  1.3978
  924TIP3   OH224186   0.618   4.707  12.561 -0.0906 -0.1790  0.0158
  924TIP3    H124187   0.665   4.676  12.639  0.7061 -1.3398 -0.9090
  924TIP3    H224188   0.613   4.802  12.572 -0.3980 -0.3726  1.7107
  925TIP3   OH224189   5.211   2.148  14.281 -0.3548 -0.4220  0.3904
  925TIP3    H124190   5.267   2.193  14.217 -1.8596 -1.0889 -1.4635
  925TIP3    H224191   5.153   2.217  14.315 -0.5053 -0.3292 -0.0456
  926TIP3   OH224192   3.588   5.141  10.963 -0.1465  0.0674 -0.2435
  926TIP3    H124193   3.625   5.160  10.877 -1.3207 -1.1877 -1.0541
  926TIP3    H224194   3.562   5.226  10.998 -0.3978  0.5044 -1.4687
  927TIP3   OH224195   2.915   2.639  13.846  0.0108  0.5696 -0.4981
  927TIP3    H124196   2.875   2.687  13.773  0.3522 -1.5115 -2.0792
  927TIP3    H224197   2.842   2.620  13.905 -0.7384 -0.1331 -1.6432
  928TIP3   OH224198   5.562   3.293  11.660  0.3761  0.6060  0.3128
  928TIP3    H124199   5.488   3.322  11.714  0.5151  0.1715  0.7356
  928TIP3    H224200   5.632   3.355  11.679  0.2655  0.7539  0.2450
  929TIP3   OH224201   1.644   0.235  12.392 -0.1626 -0.1482 -0.6176
  929TIP3    H124202   1.623   0.265  12.481  0.1994 -1.5800 -0.0387
  929TIP3    H224203   1.579   0.167  12.375  0.7179 -0.9156 -0.8797
  930TIP3   OH224204   4.091   6.580   2.530 -0.1451  0.4546 -0.8299
  930TIP3    H124205   4.184   6.582   2.508 -0.2257  0.8304 -1.1481
  930TIP3    H224206   4.088   6.603   2.623  0.0966  0.1773 -0.7514
  931TIP3   OH224207   2.119   2.734   0.336 -0.2893 -0.3967  0.4399
  931TIP3    H124208   2.076   2.809   0.378  0.2724 -0.2267  0.7273
  931TIP3    H224209   2.084   2.658   0.382 -1.6809 -0.3786 -0.5935
  932TIP3   OH224210   5.741   4.781   5.397 -0.2865 -0.5665  0.0398
  932TIP3    H124211   5.711   4.864   5.362 -0.5178 -0.1251  1.2907
  932TIP3    H224212   5.670   4.751   5.453  0.8903 -0.3263  1.6711
  933TIP3   OH224213   2.710   4.586   4.208 -0.1846 -0.6006 -0.1168
  933TIP3    H124214   2.688   4.586   4.115  1.6679  0.7278 -0.5835
  933TIP3    H224215   2.692   4.676   4.236  0.3074 -0.7049  0.5398
  934TIP3   OH224216   5.391   4.440  11.071  0.1140  0.3716  0.1866
  934TIP3    H124217   5.459   4.377  11.048 -0.8762 -0.7045  0.1459
  934TIP3    H224218   5.438   4.512  11.112  1.3342 -0.1054 -0.3409
  935TIP3   OH224219   5.604   5.258  11.371 -0.1810 -0.5393 -0.4586
  935TIP3    H124220   5.622   5.177  11.323 -0.8371 -0.5892 -0.6368
  935TIP3    H224221   5.683   5.275  11.422 -0.1662 -1.4833 -0.1536
  936TIP3   OH224222   0.784   4.677   3.281  0.4699  0.4691 -0.3626
  936TIP3    H124223   0.812   4.668   3.372 -1.0836  0.6289  0.1480
  936TIP3    H224224   0.823   4.603   3.236 -0.8396 -1.0511  0.9580
  937TIP3   OH224225   0.545   4.677   6.388 -0.4244 -0.0787 -0.3762
  937TIP3    H124226   0.607   4.738   6.425  0.5679 -0.0776 -1.9861
  937TIP3    H224227   0.461   4.723   6.390 -0.1780  0.3299  0.7854
  938TIP3   OH224228   1.441   2.696   4.675 -0.2412  0.1593 -0.4774
  938TIP3    H124229   1.471   2.666   4.589  0.4114 -0.4778 -0.0404
  938TIP3    H224230   1.421   2.615   4.722 -1.7503  0.5454 -0.4317
  939TIP3   OH224231   5.573   0.437   0.795 -0.4958  0.7574 -0.5413
  939TIP3    H124232   5.587   0.410   0.704 -2.8910 -0.6930 -0.5298
  939TIP3    H224233   5.517   0.514   0.788  1.0063  1.8939 -0.3336
  940TIP3   OH224234   1.737   6.318   1.423 -0.7066  0.5956  0.4378
  940TIP3    H124235   1.745   6.309   1.328  0.2161  0.1817  0.5538
  940TIP3    H224236   1.802   6.384   1.447 -2.3120  2.1817  0.5482
  941TIP3   OH224237   5.494   4.339  16.317  0.0630  0.6098 -0.2677
  941TIP3    H124238   5.403   4.310  16.318  0.0699  0.4418 -2.5095
  941TIP3    H224239   5.532   4.296  16.241  1.2291  2.9701 -1.0743
  942TIP3   OH224240   2.031   0.204   5.074 -0.4217  0.5146 -0.3040
  942TIP3    H124241   2.051   0.132   5.134 -0.8286  1.1019  0.5434
  942TIP3    H224242   2.025   0.281   5.130 -0.6913  1.0922 -1.1175
  943TIP3   OH224243   0.795   0.574  11.197  0.1337 -0.2852 -0.0955
  943TIP3    H124244   0.794   0.502  11.134 -1.2062 -0.4121  0.0593
  943TIP3    H224245   0.790   0.653  11.143 -0.6445 -0.3811 -0.1651
  944TIP3   OH224246   2.381   3.132  12.908 -0.2009  0.4013  0.2972
  944TIP3    H124247   2.287   3.117  12.905 -0.2059 -0.0663  2.3058
  944TIP3    H224248   2.413   3.074  12.977  1.4417  1.1736  0.2186
  945TIP3   OH224249   5.928   1.431   4.366  0.1453  0.1403  0.0482
  945TIP3    H124250   5.834   1.413   4.360 -0.8936  4.4828  1.4335
  945TIP3    H224251   5.949   1.478   4.286  0.9723 -0.1296  0.1031
  946TIP3   OH224252   1.213   0.923  16.842 -0.2831  0.5828  0.1584
  946TIP3    H124253   1.229   1.018  16.837  0.9851  0.4532  1.5334
  946TIP3    H224254   1.301   0.884  16.846 -0.8165 -0.5918  0.5316
  947TIP3   OH224255   5.670   4.936  16.247 -0.2497 -0.4170 -0.2186
  947TIP3    H124256   5.600   4.991  16.213 -1.6518 -0.3513  2.5880
  947TIP3    H224257   5.630   4.849  16.255  0.5055 -0.7629 -0.1449
  948TIP3   OH224258   2.626   6.122   4.128 -0.3468 -0.6516  0.6981
  948TIP3    H124259   2.688   6.102   4.197  2.0273  1.7447 -0.6525
  948TIP3    H224260   2.594   6.210   4.148 -1.2084 -0.7576 -0.1223
  949TIP3   OH224261   6.358   4.651  16.015  0.5686  0.0832 -0.3041
  949TIP3    H124262   6.322   4.708  16.083  1.2960  0.3598 -0.1413
  949TIP3    H224263   6.424   4.598  16.062  1.0556  0.2572 -0.7901
  950TIP3   OH224264   1.079   2.158   3.125 -0.1800 -0.0937 -0.2974
  950TIP3    H124265   0.991   2.138   3.156  0.2668  1.3136  1.9660
  950TIP3    H224266   1.132   2.082   3.152 -0.4751 -0.4762 -0.7735
  951TIP3   OH224267   1.244   4.974  13.634  0.1440  0.4597 -0.0070
  951TIP3    H124268   1.309   4.918  13.677 -1.3195 -0.5512  0.9250
  951TIP3    H224269   1.191   4.914  13.581 -1.5282  0.9026  1.1053
  952TIP3   OH224270   3.078   6.112  13.040  0.2924  0.7673 -0.0768
  952TIP3    H124271   3.087   6.162  13.121  0.2534 -0.9610  1.0058
  952TIP3    H224272   2.985   6.120  13.017  0.1107  0.4508  0.5594
  953TIP3   OH224273   4.291   6.669  16.695 -0.3079  0.1841  0.1642
  953TIP3    H124274   4.324   6.705  16.613  0.4345 -1.9668 -0.5306
  953TIP3    H224275   4.361   6.686  16.759  0.0413  0.0051 -0.1659
  954TIP3   OH224276   3.138   2.578   1.002 -0.1891 -0.1755 -0.9081
  954TIP3    H124277   3.162   2.515   1.069 -0.7813 -0.5241 -1.0109
  954TIP3    H224278   3.087   2.527   0.939 -0.6571  0.4017 -1.0023
  955TIP3   OH224279   2.364   6.205   2.035  0.0530 -0.7621  0.1728
  955TIP3    H124280   2.297   6.270   2.014  0.4853 -0.9228 -1.7652
  955TIP3    H224281   2.430   6.215   1.968  0.7835 -2.2927  0.6310
  956TIP3   OH224282   2.384   3.941   5.030 -0.0772 -0.0065 -0.1037
  956TIP3    H124283   2.413   4.026   5.064 -0.1697 -0.2542  0.6056
  956TIP3    H224284   2.305   3.961   4.980  0.2314  0.4057 -0.4270
  957TIP3   OH224285   1.074   6.729   0.979 -0.3694  0.5681 -0.3492
  957TIP3    H124286   1.044   6.693   0.895  0.6752 -1.2710  0.0438
  957TIP3    H224287   0.998   6.777   1.013 -1.1914  0.2942 -1.7700
  958TIP3   OH224288   3.043   0.231   2.258  0.0965 -0.2287  0.3961
  958TIP3    H124289   3.058   0.182   2.339  1.2388  1.7522  1.4314
  958TIP3    H224290   2.952   0.215   2.235 -0.0882 -1.2021  1.8177
  959TIP3   OH224291   0.535   5.078   0.486 -0.2143  0.3110  0.4654
  959TIP3    H124292   0.486   5.075   0.568 -1.3410  0.9346 -0.1765
  959TIP3    H224293   0.468   5.077   0.418  0.6802  0.6999 -0.4326
  960TIP3   OH224294   5.495   3.822   5.297 -0.2364  0.2711  1.0394
  960TIP3    H124295   5.568   3.775   5.256 -0.2391 -0.5102  1.9366
  960TIP3    H224296   5.420   3.802   5.241  0.0428  0.3300  0.6374
  961TIP3   OH224297   6.640   1.634   0.695  0.1293  0.6831 -0.1616
  961TIP3    H124298   6.658   1.724   0.722 -1.7018  0.3288  2.4271
  961TIP3    H224299   6.671   1.629   0.605  3.3739  2.9284  0.7562
  962TIP3   OH224300   0.078   1.096  11.488  0.3696 -0.2417  0.4908
  962TIP3    H124301   0.089   1.170  11.547  1.1127  0.5881 -0.6679
  962TIP3    H224302   0.136   1.115  11.414 -3.3027  0.6755 -2.3435
  963TIP3   OH224303   0.408   5.001  11.227  0.2888 -0.4110 -0.0869
  963TIP3    H124304   0.362   4.924  11.194 -1.6162 -0.2923  2.1838
  963TIP3    H224305   0.387   5.071  11.164 -3.8793  0.0068  1.6273
  964TIP3   OH224306   4.897   3.575  15.348 -0.5259  0.5006 -0.1147
  964TIP3    H124307   4.898   3.618  15.263 -2.5877 -0.1128 -0.4773
  964TIP3    H224308   4.850   3.493  15.333  0.8729 -0.5541  1.1802
  965TIP3   OH224309   5.453   2.943  11.785 -0.6055  0.5877  0.1326
  965TIP3    H124310   5.400   2.882  11.836  1.5378 -0.8369  0.7144
  965TIP3    H224311   5.394   2.977  11.718 -1.5908 -2.8427 -0.8016
  966TIP3   OH224312   4.945   4.967  15.253  0.0720 -0.2010 -0.0895
  966TIP3    H124313   4.970   5.027  15.183  0.3284  0.3828  0.4985
  966TIP3    H224314   5.025   4.919  15.274  0.1393  0.0460  0.2157
  967TIP3   OH224315   5.895   3.921   6.611  0.1391 -0.0021 -0.6722
  967TIP3    H124316   5.957   3.895   6.680  0.0389  1.5923  0.0257
  967TIP3    H224317   5.932   3.882   6.531  2.6302  1.7986 -0.4661
  968TIP3   OH224318   0.721   1.091  15.333 -0.2637  0.3396  0.1155
  968TIP3    H124319   0.741   1.081  15.239  0.5456  1.3307  0.1698
  968TIP3    H224320   0.709   1.001  15.364 -0.2231 -0.0191 -0.8790
  969TIP3   OH224321   5.772   4.054  16.649 -0.4885 -0.8490  0.2105
  969TIP3    H124322   5.795   4.131  16.700 -0.5974 -1.3832  1.0756
  969TIP3    H224323   5.685   4.073  16.613 -0.8138 -0.8539  0.9962
  970TIP3   OH224324   3.171   0.989  12.341  0.7323  0.0922  0.2435
  970TIP3    H124325   3.161   0.957  12.251 -0.1054  0.3208  0.2551
  970TIP3    H224326   3.263   0.973  12.362  0.7141 -0.7974 -0.3364
  971TIP3   OH224327   6.438   2.885  11.013 -0.3069 -0.1304  0.1265
  971TIP3    H124328   6.431   2.912  10.921 -1.0576 -2.6010 -0.5765
  971TIP3    H224329   6.356   2.914  11.053 -0.7782 -0.6877 -0.4269
  972TIP3   OH224330   6.463   4.658   0.753 -0.4862 -0.0237  0.2678
  972TIP3    H124331   6.367   4.651   0.747 -0.5460  0.2347  0.8666
  972TIP3    H224332   6.489   4.581   0.803 -0.3950 -0.0035  0.2506
  973TIP3   OH224333   3.933   3.750  12.631 -0.4449 -0.1571 -0.3048
  973TIP3    H124334   3.932   3.655  12.640 -0.4188 -0.1768 -0.5257
  973TIP3    H224335   4.009   3.768  12.575 -2.3113 -0.2165 -2.9158
  974TIP3   OH224336   1.850   2.646   2.905  0.1625 -0.1140 -0.1177
  974TIP3    H124337   1.800   2.614   2.980 -1.1332  0.8116 -0.5781
  974TIP3    H224338   1.838   2.741   2.908  1.3024  0.0463 -0.6568
  975TIP3   OH224339   4.389   1.937  12.994  0.1911  0.2283 -0.1347
  975TIP3    H124340   4.367   1.854  12.952  1.1773  0.5443 -1.3055
  975TIP3    H224341   4.484   1.936  13.003  0.1516  0.9291  0.4932
  976TIP3   OH224342   1.610   4.930   2.860  0.4699  0.0501  0.5974
  976TIP3    H124343   1.618   4.922   2.955  0.4801  0.3289  0.6206
  976TIP3    H224344   1.572   4.847   2.832 -0.5513  0.3946  0.9665
  977TIP3   OH224345   2.671   3.442  16.798 -0.2496  0.1415 -0.0632
  977TIP3    H124346   2.587   3.441  16.843 -0.3265  0.0248 -0.2121
  977TIP3    H224347   2.678   3.530  16.761 -0.5540 -0.0244 -0.5197
  978TIP3   OH224348   3.976   2.523  11.393  0.0985 -0.4604 -0.3787
  978TIP3    H124349   3.937   2.589  11.337 -1.3167 -1.1544 -0.2461
  978TIP3    H224350   4.010   2.457  11.333 -0.3167 -0.6015 -0.4630
  979TIP3   OH224351   5.891   5.976   1.783 -0.4700 -0.0507 -0.2589
  979TIP3    H124352   5.947   6.032   1.729 -0.9230  0.4860 -0.1790
  979TIP3    H224353   5.807   5.976   1.738 -0.8772  0.4696  0.4803
  980TIP3   OH224354   4.215   6.542  15.948  0.3651 -0.0254  0.2949
  980TIP3    H124355   4.164   6.602  15.893  1.0895 -0.4434 -0.8603
  980TIP3    H224356   4.280   6.598  15.990 -1.0930  0.5368  1.8923
  981TIP3   OH224357   4.102   0.241  11.509 -0.1190  0.0316  0.1534
  981TIP3    H124358   4.185   0.289  11.520  0.2508 -0.7672  0.8948
  981TIP3    H224359   4.115   0.159  11.557 -0.0777 -1.6399 -2.6345
  982TIP3   OH224360   3.425   2.594  11.284  0.5254 -0.2792  0.5035
  982TIP3    H124361   3.507   2.561  11.250 -0.4521 -1.7332 -0.4925
  982TIP3    H224362   3.433   2.689  11.279  1.2157 -0.4362 -1.8620
  983TIP3   OH224363   2.597   6.108   5.073  0.0247  0.3841 -0.3524
  983TIP3    H124364   2.638   6.068   5.149  2.6518  1.8234 -0.9555
  983TIP3    H224365   2.649   6.077   4.999 -1.0330  0.8959 -1.3196
  984TIP3   OH224366   2.386   2.398   3.917 -0.1875  0.1383  0.1428
  984TIP3    H124367   2.461   2.358   3.962 -0.6753 -0.7643  0.1598
  984TIP3    H224368   2.364   2.336   3.848 -0.7735  0.5178 -0.0107
  985TIP3   OH224369   6.723   5.483   2.547  0.2588  0.1637 -0.1072
  985TIP3    H124370   6.746   5.397   2.581  2.2222  1.2330  1.3860
  985TIP3    H224371   6.643   5.469   2.497  2.0147 -2.9658 -2.1362
  986TIP3   OH224372   3.101   2.525   1.449  0.1549  0.4151  0.5183
  986TIP3    H124373   3.049   2.491   1.522 -1.5366 -0.3454 -0.9909
  986TIP3    H224374   3.115   2.617   1.470 -0.2948  0.2015  1.8051
  987TIP3   OH224375   2.335   2.635  12.202  0.0382 -0.0113 -0.0376
  987TIP3    H124376   2.430   2.632  12.194  0.1617  0.4712  1.2289
  987TIP3    H224377   2.305   2.549  12.172  0.7043  0.5846 -2.5578
  988TIP3   OH224378   1.372   4.305   3.763 -0.6435 -0.3122 -0.8814
  988TIP3    H124379   1.408   4.280   3.848  2.4013  2.8733 -1.1071
  988TIP3    H224380   1.289   4.348   3.784  0.2137  0.7116  0.5805
  989TIP3   OH224381   1.529   4.782  15.449 -0.5973 -0.5618  0.3307
  989TIP3    H124382   1.443   4.791  15.407 -0.0764 -0.7461 -0.7929
  989TIP3    H224383   1.542   4.865  15.495 -1.0615 -0.2473 -0.0944
  990TIP3   OH224384   1.548   6.235   1.586 -0.0326 -0.3783 -0.7114
  990TIP3    H124385   1.612   6.243   1.516  0.5366  0.3351 -0.1109
  990TIP3    H224386   1.537   6.140   1.597 -0.3874 -0.4883 -1.9956
  991TIP3   OH224387   4.257   6.623  12.903 -0.0051 -0.0165  0.3721
  991TIP3    H124388   4.320   6.565  12.946  0.3714 -1.3981 -1.9291
  991TIP3    H224389   4.306   6.663  12.832 -1.5893 -0.7563 -1.1741
  992TIP3   OH224390   3.739   1.858  15.776 -0.1368  0.2061 -0.1972
  992TIP3    H124391   3.780   1.877  15.692 -0.3725 -0.0354 -0.3676
  992TIP3    H224392   3.681   1.784  15.758  1.5127 -1.3340  0.6795
  993TIP3   OH224393   2.859   4.944   4.295  0.0000  0.2315 -0.1854
  993TIP3    H124394   2.920   4.958   4.367  1.2923 -1.3070 -0.9284
  993TIP3    H224395   2.773   4.953   4.334  0.6719 -0.9795  1.6650
  994TIP3   OH224396   1.674   5.782  16.274  0.6657 -0.1625 -0.1582
  994TIP3    H124397   1.732   5.758  16.202 -0.2306 -0.0695 -0.9172
  994TIP3    H224398   1.586   5.783  16.235 -0.0280 -1.6756  1.2863
  995TIP3   OH224399   5.443   5.102  16.299 -0.2844  0.0866  0.0855
  995TIP3    H124400   5.418   5.184  16.341  2.0982  0.8731  0.0836
  995TIP3    H224401   5.372   5.042  16.320 -0.9567  1.4901  2.0819
  996TIP3   OH224402   5.684   1.851   5.225  0.5184  0.0045 -0.0573
  996TIP3    H124403   5.766   1.892   5.253  0.6949 -0.2140 -0.2474
  996TIP3    H224404   5.656   1.800   5.301 -0.1305  1.1249  0.4596
  997TIP3   OH224405   1.916   0.323   4.374 -0.4648  0.3916  0.8122
  997TIP3    H124406   1.843   0.366   4.329  0.1128  0.7556  0.2149
  997TIP3    H224407   1.957   0.268   4.307 -0.1421  0.2498  1.1239
  998TIP3   OH224408   2.092   0.959   0.255 -0.3425  0.3543  0.1848
  998TIP3    H124409   2.029   1.030   0.262 -0.8821 -0.0994 -0.0013
  998TIP3    H224410   2.086   0.931   0.163  0.5227  0.6699  0.0289
  999TIP3   OH224411   1.288   2.957  13.524  0.2408 -0.1690 -0.0272
  999TIP3    H124412   1.370   2.952  13.475  0.4110 -0.3137  0.2689
  999TIP3    H224413   1.221   2.969  13.457  0.4653 -0.4212 -0.3038
 1000TIP3   OH224414   3.972   6.400  11.828  0.1332 -0.2946 -0.0479
 1000TIP3    H124415   3.899   6.462  11.822  2.1526  2.0110 -2.1203
 1000TIP3    H224416   3.999   6.386  11.738  3.1665  0.0807  0.7400
 1001TIP3   OH224417   3.031   1.079  15.819  0.2025 -0.1287  0.3841
 1001TIP3    H124418   3.028   1.020  15.894  0.8610 -2.0615 -1.0621
 1001TIP3    H224419   2.974   1.038  15.754 -0.4725  1.5952 -0.1399
 1002TIP3   OH224420   2.075   4.416  15.092 -0.0233  0.5300  0.6112
 1002TIP3    H124421   2.140   4.372  15.038  0.7398  1.1634  1.0024
 1002TIP3    H224422   2.126   4.472  15.151 -0.9272  1.1651  0.8109
 1003TIP3   OH224423   3.539   1.692   2.544 -1.0519  0.3979  0.4163
 1003TIP3    H124424   3.590   1.642   2.480  0.4816  0.1556  1.8037
 1003TIP3    H224425   3.544   1.783   2.513 -0.6237  0.2283 -0.0127
 1004TIP3   OH224426   4.809   2.245   1.785  0.5414  0.0967  0.7660
 1004TIP3    H124427   4.895   2.214   1.813  0.8475  1.0106  0.8550
 1004TIP3    H224428   4.827   2.315   1.723 -0.1363  0.3525  0.8449
 1005TIP3   OH224429   5.830   2.713   1.256  0.2292  0.4259 -0.3363
 1005TIP3    H124430   5.760   2.653   1.229  0.6512  0.4752 -1.5639
 1005TIP3    H224431   5.791   2.800   1.249 -0.5453  0.3058  1.9290
 1006TIP3   OH224432   6.431   2.633  14.262  0.3425 -0.1834 -0.1139
 1006TIP3    H124433   6.375   2.580  14.204 -0.2582  0.3330 -0.0114
 1006TIP3    H224434   6.481   2.688  14.202 -1.1722  1.2376 -0.1159
 1007TIP3   OH224435   3.943   4.291   5.971 -0.0487  0.4966  0.1113
 1007TIP3    H124436   3.983   4.204   5.971  1.8697  1.3348 -0.9969
 1007TIP3    H224437   3.859   4.279   6.015 -0.1735 -2.0773 -0.7415
 1008TIP3   OH224438   4.362   3.110  16.329  0.4062 -0.1732 -0.1580
 1008TIP3    H124439   4.332   3.192  16.290  1.5369 -0.6602 -2.1295
 1008TIP3    H224440   4.396   3.060  16.255  1.2152 -1.7573  1.2664
 1009TIP3   OH224441   0.948   5.805  13.260  0.2444 -0.4190 -0.0217
 1009TIP3    H124442   0.993   5.889  13.270 -0.8929 -0.0299  2.4758
 1009TIP3    H224443   0.860   5.829  13.229  0.2923 -0.7740 -0.4240
 1010TIP3   OH224444   1.479   4.759  12.730 -0.6746  0.1708 -0.0470
 1010TIP3    H124445   1.560   4.770  12.680 -0.9531  0.4931 -0.4194
 1010TIP3    H224446   1.483   4.826  12.798  0.1985 -0.9329  1.0158
 1011TIP3   OH224447   2.088   3.883  12.716  0.1221  0.1839  0.3821
 1011TIP3    H124448   2.049   3.920  12.796  2.0559 -0.0675  1.4739
 1011TIP3    H224449   2.155   3.824  12.748 -0.0059 -0.9780 -1.4413
 1012TIP3   OH224450   1.180   5.578  14.099  0.4118  0.4595  0.1813
 1012TIP3    H124451   1.205   5.668  14.116  0.8841  0.5301 -0.8155
 1012TIP3    H224452   1.222   5.557  14.015  1.1106 -0.9940  0.8690
 1013TIP3   OH224453   6.664   0.804   2.146 -0.1562 -0.0126 -0.5873
 1013TIP3    H124454   6.745   0.821   2.194 -0.4238  0.1337 -0.1757
 1013TIP3    H224455   6.660   0.873   2.080 -0.6374  0.8275  0.2987
 1014TIP3   OH224456   6.421   1.104  10.989 -0.3003 -0.3549 -0.8566
 1014TIP3    H124457   6.480   1.039  11.027  0.1371 -0.3486 -1.5223
 1014TIP3    H224458   6.475   1.151  10.925  0.0826  2.2490  1.2863
 1015TIP3   OH224459   0.030   4.810  16.345  0.3099 -0.2536  0.5982
 1015TIP3    H124460   0.110   4.766  16.316  0.4318  1.1686 -1.2987
 1015TIP3    H224461   0.046   4.903  16.328 -1.3082  0.1554  1.2552
 1016TIP3   OH224462   6.469   4.196   2.301  0.4664 -0.0539  0.1634
 1016TIP3    H124463   6.397   4.161   2.248 -1.0933  0.4504  1.8885
 1016TIP3    H224464   6.527   4.238   2.238 -1.5853  0.9432 -1.1072
 1017TIP3   OH224465   0.015   6.332   1.350 -0.5368 -0.4110  0.1914
 1017TIP3    H124466   0.019   6.245   1.390  1.8256 -0.8815 -0.9262
 1017TIP3    H224467  -0.053   6.325   1.284 -1.0248 -1.1236  0.7612
 1018TIP3   OH224468   5.624   5.405   3.729  0.0968  0.3710 -0.1659
 1018TIP3    H124469   5.530   5.419   3.740  0.5904  1.7679  2.9194
 1018TIP3    H224470   5.635   5.310   3.726 -1.2535  0.1461  1.3388
 1019TIP3   OH224471   1.113   0.335  13.335 -1.0874  0.1000  0.1462
 1019TIP3    H124472   1.187   0.395  13.325 -1.5446  0.5422 -0.6067
 1019TIP3    H224473   1.042   0.390  13.369 -1.5389  0.0068 -0.6406
 1020TIP3   OH224474   4.273   2.489  12.489  0.8826  0.1378  0.4564
 1020TIP3    H124475   4.304   2.575  12.517  1.5703 -0.4767  1.6106
 1020TIP3    H224476   4.230   2.452  12.566  1.4997 -0.9630  0.2893
 1021TIP3   OH224477   4.699   1.046  10.747 -0.0176 -0.2378  0.1011
 1021TIP3    H124478   4.784   1.082  10.723 -0.7454  0.9055 -0.8246
 1021TIP3    H224479   4.643   1.123  10.757 -0.9124 -0.9773  0.8246
 1022TIP3   OH224480   4.784   4.628  11.816 -0.0774 -0.2269 -0.1541
 1022TIP3    H124481   4.846   4.684  11.863  0.2861 -1.2288  0.5724
 1022TIP3    H224482   4.700   4.674  11.824  0.8209  1.9418 -2.4985
 1023TIP3   OH224483   2.917   2.478  10.892  0.3653 -0.1706 -0.7535
 1023TIP3    H124484   2.955   2.390  10.890  1.8561  0.3371  2.1288
 1023TIP3    H224485   2.827   2.464  10.922  0.9310 -0.6537  0.7822
 1024TIP3   OH224486   6.627   3.811   1.146  0.3714 -0.2340  0.1905
 1024TIP3    H124487   6.541   3.808   1.103  1.5548 -0.1186 -2.3027
 1024TIP3    H224488   6.639   3.903   1.168 -0.0274 -0.2013  0.2736
 1025TIP3   OH224489   3.181   4.868  15.314  0.3327 -0.4728 -0.1078
 1025TIP3    H124490   3.230   4.949  15.320 -0.9900  0.3059  0.4804
 1025TIP3    H224491   3.201   4.822  15.396  1.4545 -0.9706 -0.6503
 1026TIP3   OH224492   4.326   1.822   1.851 -0.9986 -0.0792  0.2872
 1026TIP3    H124493   4.259   1.870   1.898 -1.0729 -1.1762  1.3212
 1026TIP3    H224494   4.396   1.808   1.915 -0.6316 -0.6517 -0.2246
 1027TIP3   OH224495   5.003   5.890   5.725  0.0525 -0.5273  0.1952
 1027TIP3    H124496   4.913   5.867   5.750 -0.3734 -0.3999 -1.1743
 1027TIP3    H224497   5.028   5.823   5.661  0.0552  0.7808 -1.2103
 1028TIP3   OH224498   2.191   0.230  16.526 -0.0221 -0.2844  0.0974
 1028TIP3    H124499   2.160   0.187  16.606  0.6159 -1.2085 -0.1445
 1028TIP3    H224500   2.158   0.175  16.455  3.3384 -2.1117 -0.1282
 1029TIP3   OH224501   4.935   2.900   4.936 -0.4714  0.2290  0.0378
 1029TIP3    H124502   4.980   2.848   4.870  0.7102  0.4696  0.6376
 1029TIP3    H224503   4.849   2.859   4.945 -0.4326 -0.1470 -1.2278
 1030TIP3   OH224504   1.276   2.029   2.879  0.5058  0.4055 -0.3328
 1030TIP3    H124505   1.342   2.079   2.928 -0.7519  2.2580 -0.4807
 1030TIP3    H224506   1.230   2.096   2.828 -1.4892 -0.8825 -0.2314
 1031TIP3   OH224507   3.512   6.425   2.340 -0.0609  0.1028 -0.0594
 1031TIP3    H124508   3.608   6.419   2.333 -0.0836 -2.5999  1.2768
 1031TIP3    H224509   3.498   6.476   2.420  0.2648  0.1090 -0.0028
 1032TIP3   OH224510   2.061   5.091  12.876 -0.2056  0.5726 -0.6811
 1032TIP3    H124511   2.101   5.151  12.939  0.8071 -0.2492 -0.5288
 1032TIP3    H224512   1.968   5.115  12.876  0.3243  2.7625 -1.3274
 1033TIP3   OH224513   2.834   2.506  11.203  0.1174 -0.5284 -0.4286
 1033TIP3    H124514   2.781   2.504  11.123 -3.0588  1.2743  1.5467
 1033TIP3    H224515   2.789   2.447  11.263  2.1863 -1.4639  0.2512
 1034TIP3   OH224516   6.078   4.097  11.357 -0.2138  0.6239 -0.2413
 1034TIP3    H124517   5.990   4.061  11.368 -0.6275  1.5314 -0.5490
 1034TIP3    H224518   6.127   4.027  11.314 -1.1869  0.6737 -1.4395
 1035TIP3   OH224519   4.500   6.180  15.246 -0.1992 -0.5639 -0.3491
 1035TIP3    H124520   4.516   6.215  15.334 -1.1548  2.5705 -1.3607
 1035TIP3    H224521   4.586   6.149  15.217  0.6849  0.8478  0.6573
 1036TIP3   OH224522   4.376   6.385  11.738 -0.6385 -0.3796 -0.2660
 1036TIP3    H124523   4.462   6.397  11.698 -0.0341 -2.4010  0.4053
 1036TIP3    H224524   4.324   6.339  11.672 -0.3104 -1.7560  0.4299
 1037TIP3   OH224525   3.472   6.210  12.161  0.1164 -0.9140  0.1657
 1037TIP3    H124526   3.451   6.116  12.162  0.3146 -0.9738 -1.3879
 1037TIP3    H224527   3.551   6.217  12.214 -1.2347 -1.2896  2.3062
 1038TIP3   OH224528   1.144   0.879  12.871 -0.5682 -0.0778  0.4286
 1038TIP3    H124529   1.087   0.956  12.877 -0.2997  0.0966  0.7599
 1038TIP3    H224530   1.120   0.838  12.788 -0.4435  0.5844  0.0584
 1039TIP3   OH224531   2.280   6.116  14.556 -0.4823  0.1656  0.4740
 1039TIP3    H124532   2.193   6.104  14.593 -0.7739 -1.9880 -0.8943
 1039TIP3    H224533   2.339   6.092  14.627 -0.9930  0.1175  0.8861
 1040TIP3   OH224534   2.240   6.173  16.437  0.2800 -0.7630 -0.0740
 1040TIP3    H124535   2.201   6.109  16.497 -2.2051  0.2443 -0.5321
 1040TIP3    H224536   2.290   6.231  16.494 -0.7304 -0.7716  0.8449
 1041TIP3   OH224537   6.085   6.285  12.482  0.0843  0.1620  0.2933
 1041TIP3    H124538   6.090   6.201  12.527 -0.3628  0.7601  1.4921
 1041TIP3    H224539   6.118   6.348  12.545  1.8040  0.7226 -1.1191
 1042TIP3   OH224540   0.435   1.567  15.481  0.2971  0.0785  0.4605
 1042TIP3    H124541   0.497   1.509  15.436  0.0612  0.4177 -0.3139
 1042TIP3    H224542   0.380   1.601  15.411 -0.1095  0.5794  1.0221
 1043TIP3   OH224543   4.608   4.906  12.738  0.0358 -0.1838 -0.7451
 1043TIP3    H124544   4.512   4.902  12.733  0.0982 -1.5104 -1.1813
 1043TIP3    H224545   4.629   4.859  12.818  0.3424 -0.3418 -0.9176
 1044TIP3   OH224546   5.024   3.868   1.221 -0.6463  0.7704 -0.6335
 1044TIP3    H124547   5.050   3.824   1.303  0.5897 -1.5127 -2.1889
 1044TIP3    H224548   4.959   3.933   1.248 -0.9344 -0.5629  2.0554
 1045TIP3   OH224549   4.097   1.738  12.881  0.2210  0.5255  0.2917
 1045TIP3    H124550   4.082   1.764  12.791  1.1440  1.0761  0.2895
 1045TIP3    H224551   4.057   1.651  12.888  0.2033  0.4511 -0.6631
 1046TIP3   OH224552   3.874   0.832  16.749  0.3634  0.2647 -0.2320
 1046TIP3    H124553   3.783   0.806  16.737 -0.1117  1.6004  0.4106
 1046TIP3    H224554   3.892   0.890  16.675  0.7641 -0.1810 -0.4832
 1047TIP3   OH224555   3.441   1.497   2.744  0.2553  0.7081  0.6693
 1047TIP3    H124556   3.517   1.452   2.780  0.1163  0.5465  0.7557
 1047TIP3    H224557   3.479   1.569   2.692  0.5171 -0.2582 -0.5108
 1048TIP3   OH224558   5.411   4.780   2.848  0.3457 -0.4977 -0.2356
 1048TIP3    H124559   5.466   4.851   2.880  0.1111  0.0426 -1.0123
 1048TIP3    H224560   5.427   4.708   2.909  1.8279 -0.3169 -0.3917
 1049TIP3   OH224561   2.465   6.320  12.513 -0.3116 -0.0007 -0.1957
 1049TIP3    H124562   2.506   6.250  12.564 -0.4716  0.9601  1.2818
 1049TIP3    H224563   2.538   6.373  12.482 -0.3002  0.4844  0.6349
 1050TIP3   OH224564   1.753   3.026   0.460 -0.4441  0.0499 -0.7938
 1050TIP3    H124565   1.827   3.078   0.491 -2.4034  1.0163  2.4289
 1050TIP3    H224566   1.710   3.082   0.396  1.2324 -0.2994 -2.2831
 1051TIP3   OH224567   6.129   1.632  16.114 -0.1864  0.2926 -0.7091
 1051TIP3    H124568   6.092   1.641  16.026  2.5558  2.9855 -1.6884
 1051TIP3    H224569   6.192   1.704  16.120  0.0434 -0.1683  3.2875
 1052TIP3   OH224570   5.508   5.791   5.388  0.7163 -0.6237 -0.5278
 1052TIP3    H124571   5.458   5.729   5.442  3.6264 -2.0082  0.6602
 1052TIP3    H224572   5.547   5.851   5.451  0.7116  0.3495 -1.4389
 1053TIP3   OH224573   3.920   5.733   5.074  0.0088  0.4680  0.4769
 1053TIP3    H124574   4.013   5.722   5.056  0.0179 -2.7833  2.1648
 1053TIP3    H224575   3.915   5.741   5.169 -1.2004  3.7782  0.1740
 1054TIP3   OH224576   5.544   4.750  13.049  0.0911 -0.0924 -0.2593
 1054TIP3    H124577   5.614   4.704  13.004  0.3777  0.6272 -0.5590
 1054TIP3    H224578   5.585   4.785  13.128  0.3345  1.1863 -0.9306
 1055TIP3   OH224579   0.839   1.680  14.044 -0.1230 -0.1666  0.1216
 1055TIP3    H124580   0.750   1.704  14.068  0.2705  0.9596  0.4855
 1055TIP3    H224581   0.892   1.757  14.067  1.0142 -1.0105  0.3778
 1056TIP3   OH224582   0.669   5.876  13.065  0.0036 -0.2470 -0.1484
 1056TIP3    H124583   0.680   5.792  13.109 -0.9491  0.1419  0.8693
 1056TIP3    H224584   0.674   5.941  13.135 -0.3497  0.4672 -0.7699
 1057TIP3   OH224585   4.140   6.388  14.868 -0.5613  0.2731 -0.0721
 1057TIP3    H124586   4.229   6.423  14.862  0.7789 -2.7739  0.9044
 1057TIP3    H224587   4.126   6.345  14.783 -0.4969 -0.5714  0.3403
 1058TIP3   OH224588   4.223   3.517  11.164  0.4565  0.4691  0.7218
 1058TIP3    H124589   4.229   3.423  11.181  0.8910 -0.0831 -2.1772
 1058TIP3    H224590   4.314   3.547  11.162  0.8482 -0.4675 -5.1151
 1059TIP3   OH224591   6.596   0.137   0.220  0.1138 -0.4837 -0.2077
 1059TIP3    H124592   6.670   0.198   0.225  0.4010 -0.8082 -0.4672
 1059TIP3    H224593   6.627   0.066   0.164 -0.1220 -0.9939  0.2986
 1060TIP3   OH224594   3.962   1.434  17.168 -0.1045 -0.2084 -0.4288
 1060TIP3    H124595   3.882   1.456  17.216  0.7385 -0.3611  1.0628
 1060TIP3    H224596   3.985   1.346  17.199  0.8338 -0.0332 -0.6138
 1061TIP3   OH224597   5.371   3.956  12.791  0.2144  0.5322 -0.4401
 1061TIP3    H124598   5.439   3.889  12.784  1.0661  1.2651  0.6960
 1061TIP3    H224599   5.310   3.922  12.856 -1.2359 -0.7153 -2.3736
 1062TIP3   OH224600   3.109   0.778  13.728 -0.0705  0.3264 -1.1288
 1062TIP3    H124601   3.102   0.773  13.633 -0.6671 -0.1654 -1.0664
 1062TIP3    H224602   3.065   0.860  13.751 -0.0206  0.3929 -1.2728
 1063TIP3   OH224603   6.450   2.771  15.544 -0.2119 -0.3153 -0.3682
 1063TIP3    H124604   6.478   2.861  15.530  1.7877 -1.0989 -1.7318
 1063TIP3    H224605   6.355   2.774  15.543 -0.1577  1.7322 -0.6179
 1064TIP3   OH224606   0.247   0.697  13.211  0.6114 -0.4721 -0.4132
 1064TIP3    H124607   0.159   0.728  13.233 -0.7008 -3.2851 -1.4709
 1064TIP3    H224608   0.288   0.771  13.165 -1.5481  0.5152 -0.8190
 1065TIP3   OH224609   0.017   2.043  12.287 -0.2209 -0.9752 -0.2435
 1065TIP3    H124610   0.093   2.101  12.280 -0.9379 -0.1580 -1.5544
 1065TIP3    H224611   0.005   2.008  12.199 -0.7380 -1.9207  0.1907
 1066TIP3   OH224612   4.363   5.358  13.383  0.2029 -0.1323 -0.1678
 1066TIP3    H124613   4.391   5.338  13.294  0.6434  0.3787 -0.1438
 1066TIP3    H224614   4.420   5.430  13.411  0.7199 -0.9421  0.8763
 1067TIP3   OH224615   4.413   3.198   5.926 -0.2877  0.1314 -0.2078
 1067TIP3    H124616   4.506   3.179   5.928  0.0602  1.6361 -1.1303
 1067TIP3    H224617   4.385   3.193   6.017  0.9635  0.8802  0.2299
 1068TIP3   OH224618   1.215   4.187   0.213 -0.3729  0.5972  0.9955
 1068TIP3    H124619   1.237   4.103   0.252  1.1159  0.2773 -0.5039
 1068TIP3    H224620   1.213   4.171   0.119 -1.4930  1.9168  0.7770
 1069TIP3   OH224621   4.945   1.198   3.236 -0.0070  0.2567 -0.1267
 1069TIP3    H124622   4.859   1.171   3.205 -0.4862 -0.1363  1.4872
 1069TIP3    H224623   4.928   1.249   3.315  1.2802 -1.0623  1.0581
 1070TIP3   OH224624   6.579   6.291   5.386 -0.0458 -0.2685  0.1190
 1070TIP3    H124625   6.631   6.309   5.464 -0.0518  0.7105 -0.0961
 1070TIP3    H224626   6.626   6.336   5.315 -0.6857 -0.1544 -0.2374
 1071TIP3   OH224627   4.367   4.969  14.611 -0.1578  0.0108 -0.1719
 1071TIP3    H124628   4.430   4.921  14.557 -1.2107  0.3665 -1.7239
 1071TIP3    H224629   4.392   5.061  14.603 -1.2864  0.2266 -1.3633
 1072TIP3   OH224630   0.760   1.769  16.477  0.1857 -0.0638  0.1546
 1072TIP3    H124631   0.733   1.677  16.484  1.6660 -0.7075 -2.0290
 1072TIP3    H224632   0.848   1.771  16.513 -0.4391  0.8537  1.6844
 1073TIP3   OH224633   5.696   5.000  11.425  0.4917 -0.2367  0.1429
 1073TIP3    H124634   5.705   4.955  11.509 -0.7557  2.2235  1.6472
 1073TIP3    H224635   5.778   5.047  11.414  0.7480 -0.7490 -0.1253
 1074TIP3   OH224636   5.866   0.020   4.956 -0.0835  0.8262 -0.4327
 1074TIP3    H124637   5.878   0.096   4.900 -1.3969  0.6381 -0.9684
 1074TIP3    H224638   5.935   0.028   5.022  0.7838  1.6231 -1.4215
 1075TIP3   OH224639   2.144   0.807  14.843  0.5615  0.2317  0.6782
 1075TIP3    H124640   2.137   0.766  14.930 -0.1298  0.1017  0.5600
 1075TIP3    H224641   2.058   0.794  14.803  0.3162  1.8689  0.6610
 1076TIP3   OH224642   4.136   2.953   3.812  0.2526  0.0979  0.2143
 1076TIP3    H124643   4.186   2.896   3.754 -0.7370 -0.2583 -0.2903
 1076TIP3    H224644   4.071   2.896   3.852 -1.8919  1.1767 -1.6133
 1077TIP3   OH224645   3.247   4.063   6.529  0.5887  0.1185  0.9502
 1077TIP3    H124646   3.337   4.062   6.497 -0.0192  0.3947 -0.8100
 1077TIP3    H224647   3.195   4.036   6.454 -0.8332  0.3243  1.8522
 1078TIP3   OH224648   3.188   6.082  15.933  0.3874  0.0465  0.1142
 1078TIP3    H124649   3.264   6.118  15.888  1.6322 -1.9727  0.5438
 1078TIP3    H224650   3.197   6.112  16.024  1.8435 -1.9315  0.6503
 1079TIP3   OH224651   0.623   5.785   5.185  0.3611 -0.1272  0.6042
 1079TIP3    H124652   0.585   5.864   5.147 -1.2007 -0.7166  0.9098
 1079TIP3    H224653   0.694   5.817   5.240  0.5772  0.9658 -0.2913
 1080TIP3   OH224654   1.226   2.683  10.534 -0.2674 -0.1701 -0.7373
 1080TIP3    H124655   1.308   2.657  10.576  0.1487  0.4585 -1.1566
 1080TIP3    H224656   1.172   2.717  10.606 -0.1204 -0.4703 -0.4803
 1081TIP3   OH224657   4.138   5.579  11.571  0.1037 -0.0472 -0.3904
 1081TIP3    H124658   4.152   5.673  11.560 -1.1033  0.0576 -1.1631
 1081TIP3    H224659   4.168   5.540  11.488  1.7566 -0.4830  0.3945
 1082TIP3   OH224660   4.274   4.438   5.181  0.9145 -0.0790 -0.1954
 1082TIP3    H124661   4.309   4.355   5.151 -2.5101 -1.5609 -0.3448
 1082TIP3    H224662   4.220   4.469   5.108 -2.1462 -0.4357  1.8163
 1083TIP3   OH224663   1.726   3.031   3.279  0.7133  0.2285 -0.5635
 1083TIP3    H124664   1.682   3.071   3.204 -1.2133 -1.3824 -0.3410
 1083TIP3    H224665   1.794   3.094   3.304 -1.7677  3.0522 -0.6149
 1084TIP3   OH224666   2.331   2.600   2.100 -0.1170  0.7485  0.0392
 1084TIP3    H124667   2.258   2.639   2.052 -0.6728 -0.3480 -0.0413
 1084TIP3    H224668   2.294   2.520   2.138  0.5813  1.1095  1.4890
 1085TIP3   OH224669   4.808   4.768  12.300 -0.4154 -0.2365 -0.0832
 1085TIP3    H124670   4.812   4.850  12.252 -2.3187  0.5640  1.0484
 1085TIP3    H224671   4.714   4.746  12.302 -0.0301 -1.9180  0.4751
 1086TIP3   OH224672   0.997   4.048   4.551  0.5590 -0.7243 -0.5817
 1086TIP3    H124673   1.032   4.137   4.557  0.0829 -0.5281 -0.7365
 1086TIP3    H224674   0.992   4.018   4.642 -1.7154  0.3511 -0.3207
 1087TIP3   OH224675   5.626   0.098   5.640 -0.3282 -0.3789 -0.1628
 1087TIP3    H124676   5.720   0.089   5.621  0.0571 -2.5656  2.4722
 1087TIP3    H224677   5.587   0.118   5.555  2.4078 -0.4155 -1.5003
 1088TIP3   OH224678   0.724   6.258  14.710  0.6042  0.1205  0.1352
 1088TIP3    H124679   0.666   6.333  14.695  0.4012 -0.1910 -0.6521
 1088TIP3    H224680   0.803   6.296  14.750  1.3987  1.0703 -2.2367
 1089TIP3   OH224681   1.878   5.881  17.026 -0.0910  0.1716 -0.3595
 1089TIP3    H124682   1.949   5.870  16.963 -0.0801 -0.0910 -0.3004
 1089TIP3    H224683   1.801   5.897  16.973 -0.2880 -1.1382 -0.4797
 1090TIP3   OH224684   3.221   1.781   0.565  0.2475  0.4622  0.1463
 1090TIP3    H124685   3.255   1.835   0.637  1.9447  0.0091 -0.2920
 1090TIP3    H224686   3.169   1.842   0.513  0.4745  1.2138  0.7776
 1091TIP3   OH224687   1.969   2.913  11.011 -0.2877  0.5294 -0.0363
 1091TIP3    H124688   2.028   2.838  11.017  0.2356  1.1086  2.6809
 1091TIP3    H224689   1.976   2.941  10.920 -0.2961 -2.5251 -1.0604
 1092TIP3   OH224690   0.590   6.320   1.157 -0.3611 -0.1628  0.1195
 1092TIP3    H124691   0.684   6.327   1.175 -0.0232  1.5634 -2.0942
 1092TIP3    H224692   0.548   6.329   1.242  1.4541 -0.5068  1.0729
 1093TIP3   OH224693   3.432   6.182  16.489  0.4208  0.6527  0.3665
 1093TIP3    H124694   3.451   6.090  16.505  0.8757  0.4598 -1.1593
 1093TIP3    H224695   3.518   6.224  16.486  0.1661  1.3162  2.1088
 1094TIP3   OH224696   3.522   2.461  14.351 -0.3654 -0.6603 -0.2618
 1094TIP3    H124697   3.585   2.482  14.283 -0.4649  1.3795  0.2593
 1094TIP3    H224698   3.437   2.467  14.309 -0.4784  1.4576  0.2273
 1095TIP3   OH224699   2.773   2.897   4.958  0.7633 -1.0613 -0.3460
 1095TIP3    H124700   2.693   2.910   4.907  1.9995  2.5095 -1.5027
 1095TIP3    H224701   2.748   2.922   5.047  1.0993  2.3080 -1.1304
 1096TIP3   OH224702   1.533   2.719   4.384  0.0549  0.1362  0.2454
 1096TIP3    H124703   1.561   2.646   4.329 -0.7808 -0.5080  0.6564
 1096TIP3    H224704   1.613   2.769   4.401  0.6870 -0.8349  0.1834
 1097TIP3   OH224705   6.208   5.775   5.780 -0.6080 -0.0401 -0.3701
 1097TIP3    H124706   6.231   5.708   5.844 -0.2441  1.7820  1.4412
 1097TIP3    H224707   6.268   5.847   5.797 -1.0409  0.8085 -2.2393
 1098TIP3   OH224708   2.098   6.224   6.447  0.1772 -0.1240 -0.0086
 1098TIP3    H124709   2.136   6.173   6.376 -0.4080 -0.5029 -0.0556
 1098TIP3    H224710   2.020   6.175   6.472  1.1663 -0.7852  1.8851
 1099TIP3   OH224711   1.960   2.347  16.000 -0.0834 -0.3103  0.2507
 1099TIP3    H124712   1.899   2.353  16.074  0.6016 -1.3685  0.9145
 1099TIP3    H224713   1.945   2.259  15.964  0.1430 -0.0922 -0.3764
 1100TIP3   OH224714   5.868   3.637  13.399 -0.1734 -0.3950  0.0417
 1100TIP3    H124715   5.827   3.551  13.411 -1.5847  0.4795  1.8954
 1100TIP3    H224716   5.799   3.690  13.358  0.3078  0.1353 -0.0806
 1101TIP3   OH224717   6.760   4.891  13.908  0.2498  0.2464 -0.4313
 1101TIP3    H124718   6.786   4.862  13.995  0.5559  0.4780 -0.4426
 1101TIP3    H224719   6.733   4.811  13.863 -0.4234  0.1979  0.0466
 1102TIP3   OH224720   5.183   0.133   5.323 -0.5805  0.1879 -0.2416
 1102TIP3    H124721   5.125   0.152   5.397 -0.7501  0.8498 -0.5392
 1102TIP3    H224722   5.170   0.040   5.305  0.8876 -0.4432  1.7789
 1103TIP3   OH224723   0.455   2.540  12.955 -0.1956 -0.2442 -0.0283
 1103TIP3    H124724   0.410   2.624  12.970 -1.1151 -0.3857 -1.8652
 1103TIP3    H224725   0.385   2.479  12.931  0.5284 -1.4393  0.8520
 1104TIP3   OH224726   4.868   0.573   4.952 -0.2552  0.0915  0.1862
 1104TIP3    H124727   4.849   0.541   5.040 -0.2909  0.6195  0.3699
 1104TIP3    H224728   4.960   0.598   4.955 -0.0929 -0.4546 -0.1003
 1105TIP3   OH224729   5.412   2.749   4.663 -0.4972  0.5566 -0.6124
 1105TIP3    H124730   5.411   2.679   4.598 -0.5868  0.1688 -0.1963
 1105TIP3    H224731   5.505   2.768   4.677 -0.4991  1.0702 -1.3139
 1106TIP3   OH224732   1.476   0.607   6.398 -0.1398  0.1918  0.3139
 1106TIP3    H124733   1.400   0.569   6.442 -0.6963 -2.0797 -2.4225
 1106TIP3    H224734   1.442   0.687   6.358 -0.6782  0.0723  0.5239
 1107TIP3   OH224735   3.011   4.050  17.132  0.2067 -0.3648 -0.3457
 1107TIP3    H124736   2.969   3.964  17.124 -0.4799 -0.0428 -0.1813
 1107TIP3    H224737   3.096   4.038  17.090 -0.0872 -0.9903 -0.7803
 1108TIP3   OH224738   2.649   2.593  12.991 -0.0783 -0.5658  0.5071
 1108TIP3    H124739   2.563   2.561  13.015 -0.2816  0.7282  1.5741
 1108TIP3    H224740   2.689   2.620  13.073 -0.1651  2.4190 -0.3690
 1109TIP3   OH224741   5.605   5.417   3.086  0.0855 -0.0916  0.2835
 1109TIP3    H124742   5.576   5.483   3.149 -0.5755 -1.3732  1.3359
 1109TIP3    H224743   5.693   5.445   3.061  0.5212  0.2169  2.0855
 1110TIP3   OH224744   5.763   5.181  12.663 -0.2979 -0.1940  0.0504
 1110TIP3    H124745   5.780   5.130  12.742  2.1122 -0.2829 -0.4819
 1110TIP3    H224746   5.668   5.177  12.652 -0.5953 -0.8811  2.4563
 1111TIP3   OH224747   0.485   6.676  15.915  0.1415  0.4295 -0.2259
 1111TIP3    H124748   0.547   6.617  15.958 -1.7503 -0.7166  0.9863
 1111TIP3    H224749   0.539   6.746  15.879  1.9887  0.2129  2.0589
 1112TIP3   OH224750   4.884   2.123  14.416 -0.1105  0.0461 -0.0717
 1112TIP3    H124751   4.881   2.122  14.320  1.3443  0.3121 -0.1336
 1112TIP3    H224752   4.940   2.197  14.438 -1.2857  0.6222  1.0204
 1113TIP3   OH224753   3.936   0.198   1.921  0.3148  0.2223 -0.0517
 1113TIP3    H124754   3.967   0.280   1.960 -0.1766 -0.4900  1.8660
 1113TIP3    H224755   3.948   0.211   1.826  3.1579  1.3147  0.4042
 1114TIP3   OH224756   4.959   4.143   4.257  0.4628  0.1414  0.1531
 1114TIP3    H124757   4.901   4.068   4.270 -0.7396  1.2753  1.4293
 1114TIP3    H224758   4.904   4.210   4.216  0.7931  1.2715  1.4872
 1115TIP3   OH224759   4.932   2.524   4.062  0.5359 -0.1757  0.3462
 1115TIP3    H124760   5.006   2.483   4.017  2.3723  2.0852  1.2034
 1115TIP3    H224761   4.893   2.582   3.997 -1.6115 -2.6732 -0.6438
 1116TIP3   OH224762   1.978   3.298   3.107  0.1512  0.6360 -0.0622
 1116TIP3    H124763   2.009   3.384   3.135 -0.8112  0.8745  0.2778
 1116TIP3    H224764   1.902   3.317   3.051  0.9184  0.0856 -1.3308
 1117TIP3   OH224765   0.350   1.649   4.708 -0.2115 -0.2056  0.0078
 1117TIP3    H124766   0.371   1.669   4.799  1.5713  2.1928 -0.8552
 1117TIP3    H224767   0.436   1.645   4.665 -1.1176  0.4801 -1.8911
 1118TIP3   OH224768   4.669   2.979  16.484 -0.8378 -0.8074  0.2000
 1118TIP3    H124769   4.751   2.975  16.534 -0.3523  1.5818 -0.3570
 1118TIP3    H224770   4.603   2.947  16.545  0.1919 -0.7621  1.3801
 1119TIP3   OH224771   6.040   0.315  15.957 -0.5362  0.4554 -0.5282
 1119TIP3    H124772   6.131   0.301  15.983 -0.6075  0.3413 -0.3385
 1119TIP3    H224773   6.011   0.230  15.922  0.0252  1.0151 -2.4243
 1120TIP3   OH224774   3.174   5.523   4.646  0.4173 -0.6832  0.4855
 1120TIP3    H124775   3.088   5.543   4.608  0.9373 -1.5850 -1.2272
 1120TIP3    H224776   3.174   5.567   4.731 -1.1795  0.5316 -0.1257
 1121TIP3   OH224777   3.620   4.112   0.530 -0.2975 -0.7069 -0.5965
 1121TIP3    H124778   3.555   4.044   0.550 -0.2685 -1.5687 -3.2266
 1121TIP3    H224779   3.640   4.099   0.437  0.8699  1.9372 -0.7554
 1122TIP3   OH224780   2.230   3.636   2.582  0.3661  0.3172 -0.0096
 1122TIP3    H124781   2.160   3.586   2.540 -0.4211  1.2680  0.1455
 1122TIP3    H224782   2.262   3.577   2.651 -3.6648  1.6592  3.2532
 1123TIP3   OH224783   6.481   6.141  15.410 -0.2512 -0.2286 -0.1523
 1123TIP3    H124784   6.445   6.228  15.391 -0.2522 -0.1264  0.3259
 1123TIP3    H224785   6.436   6.114  15.490  1.3836  0.2669  0.9640
 1124TIP3   OH224786   4.903   2.539  16.443 -0.3523 -0.0247  0.5925
 1124TIP3    H124787   4.816   2.568  16.417 -0.8046 -0.3352  1.7539
 1124TIP3    H224788   4.936   2.609  16.499  0.7593  0.8020 -1.0353
 1125TIP3   OH224789   1.381   6.185  13.536 -0.2677  0.0380 -0.1069
 1125TIP3    H124790   1.392   6.239  13.614  1.3671 -0.0500 -0.2747
 1125TIP3    H224791   1.462   6.195  13.488  0.1047 -2.6364 -0.1002
 1126TIP3   OH224792   5.669   2.048   0.907 -0.4544  0.0286  0.1081
 1126TIP3    H124793   5.680   2.038   1.001  1.1581 -0.4456 -0.1190
 1126TIP3    H224794   5.682   2.141   0.891 -0.9284  0.1414  0.3780
 1127TIP3   OH224795   5.823   3.655  15.983 -0.2878  0.4194 -0.3471
 1127TIP3    H124796   5.740   3.665  16.031 -0.4125  2.1339 -0.8645
 1127TIP3    H224797   5.878   3.602  16.041 -1.7485 -0.7253 -0.0003
 1128TIP3   OH224798   4.715   0.933   1.284 -0.0361 -0.4524  0.0298
 1128TIP3    H124799   4.629   0.907   1.319  0.3418  0.2396  1.5101
 1128TIP3    H224800   4.721   1.027   1.301  0.0145 -0.0124 -2.2830
 1129TIP3   OH224801   6.439   2.895   0.501  0.3313  0.3506  0.5781
 1129TIP3    H124802   6.426   2.985   0.473 -0.0159  0.1166 -0.0276
 1129TIP3    H224803   6.492   2.855   0.432  0.1752 -0.0056  0.6620
 1130TIP3   OH224804   0.993   3.947  15.671 -0.8003 -0.0302  0.7753
 1130TIP3    H124805   0.951   3.861  15.677 -2.2956  0.7010  1.3114
 1130TIP3    H224806   1.083   3.929  15.644 -1.1340 -1.7459  0.7566
 1131TIP3   OH224807   6.451   2.972   3.087 -0.2138  0.0543 -0.1850
 1131TIP3    H124808   6.384   3.040   3.090 -0.8185 -0.5845  0.8786
 1131TIP3    H224809   6.482   2.965   3.177  0.1436 -0.7937 -0.3702
 1132TIP3   OH224810   1.872   3.535  13.485  0.2977  0.3566  0.0721
 1132TIP3    H124811   1.822   3.613  13.508  1.3254  1.3354 -0.9400
 1132TIP3    H224812   1.958   3.549  13.524  0.2826 -0.5794  0.4528
 1133TIP3   OH224813   5.323   0.784  12.515 -0.0250 -0.5186 -0.2373
 1133TIP3    H124814   5.304   0.690  12.512 -0.8135 -0.3394 -1.0864
 1133TIP3    H224815   5.333   0.809  12.423 -3.2970  0.9115 -0.2466
 1134TIP3   OH224816   4.487   0.146   3.694  0.2571 -0.4871 -0.0359
 1134TIP3    H124817   4.569   0.191   3.718  0.8545 -0.6969 -1.6057
 1134TIP3    H224818   4.489   0.065   3.743  1.1824 -0.6543 -0.3278
 1135TIP3   OH224819   1.419   5.138   0.673 -0.2201 -0.4627  0.1982
 1135TIP3    H124820   1.342   5.195   0.667  0.9934  1.3464  1.3726
 1135TIP3    H224821   1.383   5.052   0.695 -2.0031  0.0818 -0.5138
 1136TIP3   OH224822   4.349   1.446  10.344  0.3393  0.6698  0.5958
 1136TIP3    H124823   4.392   1.474  10.263  1.0771  1.9910  1.4227
 1136TIP3    H224824   4.256   1.461  10.328  0.4091  0.1392 -0.3106
 1137TIP3   OH224825   2.454   5.005  16.460 -0.9180  0.4409  0.6851
 1137TIP3    H124826   2.522   4.994  16.394 -1.5996 -2.0364  0.3561
 1137TIP3    H224827   2.470   4.936  16.524 -3.0792 -0.1300  0.6365
 1138TIP3   OH224828   0.778   1.827   4.804  0.2150  0.2057 -0.1766
 1138TIP3    H124829   0.868   1.828   4.837  0.1870 -1.7590 -0.0023
 1138TIP3    H224830   0.724   1.832   4.883  0.1585  0.9094 -0.2543
 1139TIP3   OH224831   4.998   3.824   0.780 -0.7177  0.3712 -0.3893
 1139TIP3    H124832   4.924   3.858   0.730 -1.3763 -0.6197 -0.1038
 1139TIP3    H224833   5.036   3.902   0.821 -0.9947  1.0137 -1.3296
 1140TIP3   OH224834   4.840   3.522   2.020 -0.1129  0.3578 -0.5351
 1140TIP3    H124835   4.747   3.544   2.023  0.2549  1.9681 -0.1720
 1140TIP3    H224836   4.859   3.484   2.105 -0.2725  0.7864 -0.3064
 1141TIP3   OH224837   5.474   1.809  16.187  0.5277 -0.2698 -0.5956
 1141TIP3    H124838   5.418   1.732  16.195  1.5949 -1.1015 -0.9192
 1141TIP3    H224839   5.472   1.830  16.093 -0.3785  0.5693 -0.3897
 1142TIP3   OH224840   0.785   2.395  15.194  0.3756  0.0614  0.7887
 1142TIP3    H124841   0.817   2.306  15.179 -3.7100 -1.3355 -0.3221
 1142TIP3    H224842   0.764   2.428  15.107  0.1924  1.4777  1.3470
 1143TIP3   OH224843   0.005   6.360  11.148  0.1034 -0.1510 -0.1611
 1143TIP3    H124844  -0.036   6.356  11.235  1.2862  0.1399  0.4184
 1143TIP3    H224845   0.091   6.319  11.160  1.3320  2.2451 -0.5815
 1144TIP3   OH224846   1.926   5.223   0.256  0.3518  0.7020 -0.6401
 1144TIP3    H124847   1.835   5.219   0.227  0.6490  0.8491 -1.6087
 1144TIP3    H224848   1.975   5.253   0.180  1.4900 -1.2956 -0.7557
 1145TIP3   OH224849   1.589   5.781   0.257 -0.4693  0.5530 -0.1056
 1145TIP3    H124850   1.664   5.837   0.240 -0.1790  0.6723  1.4947
 1145TIP3    H224851   1.621   5.692   0.239  0.6051  0.4271  2.2186
 1146TIP3   OH224852   3.953   3.568   0.313  0.6992 -0.5315 -0.1241
 1146TIP3    H124853   3.888   3.623   0.272 -0.9207  0.2825  3.3397
 1146TIP3    H224854   4.019   3.628   0.346  0.3315 -0.8572  1.2502
 1147TIP3   OH224855   5.357   0.064  11.390 -0.0078  0.0931 -0.3720
 1147TIP3    H124856   5.332  -0.017  11.433 -1.2346 -0.0522 -1.3441
 1147TIP3    H224857   5.367   0.127  11.461  2.3621 -1.2274  0.5401
 1148TIP3   OH224858   4.953   5.391  10.547  0.5790 -0.2082  0.1393
 1148TIP3    H124859   4.926   5.445  10.473  0.7649 -1.0609 -0.5602
 1148TIP3    H224860   5.046   5.409  10.557  0.6958 -0.6041 -0.2578
 1149TIP3   OH224861   2.071   6.116  11.845 -0.0960  0.0841 -0.2375
 1149TIP3    H124862   2.163   6.104  11.867 -0.2131 -0.0660  0.1770
 1149TIP3    H224863   2.035   6.028  11.841 -0.7331  0.2066  1.8424
 1150TIP3   OH224864   4.519   0.599   4.614 -0.1022  0.6303 -0.7152
 1150TIP3    H124865   4.538   0.645   4.695  3.4783 -0.4426 -0.8832
 1150TIP3    H224866   4.431   0.564   4.626  0.4423  0.3648  2.7510
 1151TIP3   OH224867   4.773   6.384  12.580  0.6072 -0.1129  0.6070
 1151TIP3    H124868   4.816   6.375  12.495  0.7015 -1.0608  0.7525
 1151TIP3    H224869   4.821   6.324  12.637 -0.9458 -1.2081  0.7653
 1152TIP3   OH224870   3.966   0.022  15.083  0.7031 -0.6306 -0.1935
 1152TIP3    H124871   3.994  -0.068  15.094 -1.1895 -1.3823 -1.2037
 1152TIP3    H224872   3.999   0.068  15.160  0.5572 -2.4758  0.9966
 1153TIP3   OH224873   2.331   3.960  15.354 -0.2886  0.5735  0.7553
 1153TIP3    H124874   2.405   3.928  15.302 -1.4463 -1.8148  0.5264
 1153TIP3    H224875   2.371   3.992  15.435  0.9532 -1.2963  0.9132
 1154TIP3   OH224876   6.383   2.997   0.853 -0.3586  0.0986 -0.0108
 1154TIP3    H124877   6.393   3.041   0.937  1.3039  0.7546 -0.5442
 1154TIP3    H224878   6.315   2.931   0.868 -1.2337  1.2941  1.4070
 1155TIP3   OH224879   2.858   5.863   5.496  0.6948  0.3479  0.2073
 1155TIP3    H124880   2.788   5.826   5.550  0.0166 -1.0199 -1.5507
 1155TIP3    H224881   2.817   5.933   5.447  0.4194 -0.7271 -1.1364
 1156TIP3   OH224882   6.421   5.213   1.410 -0.8324  0.1177  0.5701
 1156TIP3    H124883   6.400   5.272   1.481 -1.9316 -1.1493  1.3210
 1156TIP3    H224884   6.510   5.183   1.429 -0.4437  1.1804  0.4202
 1157TIP3   OH224885   5.692   1.572  13.848 -0.1947  0.4452 -0.4296
 1157TIP3    H124886   5.623   1.637  13.843  1.0694  1.8500 -0.0813
 1157TIP3    H224887   5.762   1.606  13.792  0.6175 -0.4349  0.0218
 1158TIP3   OH224888   0.492   4.937  12.370  0.1611  0.1271  0.1199
 1158TIP3    H124889   0.577   4.971  12.345 -0.5202  2.0862  0.3883
 1158TIP3    H224890   0.497   4.843  12.352  2.9755 -0.0928  1.8409
 1159TIP3   OH224891   5.480   1.140   6.030 -0.2785  0.5391 -0.4565
 1159TIP3    H124892   5.487   1.228   6.066 -0.3597  0.7768 -1.0075
 1159TIP3    H224893   5.393   1.110   6.057 -1.1537  1.4859 -2.1211
 1160TIP3   OH224894   5.190   0.820  14.915  0.0054 -0.5802 -0.0293
 1160TIP3    H124895   5.192   0.816  15.011 -0.1399  1.3054  0.0727
 1160TIP3    H224896   5.099   0.843  14.894 -0.0791 -1.4623 -0.6495
 1161TIP3   OH224897   2.532   3.675   2.577 -0.7121 -0.4450  0.4410
 1161TIP3    H124898   2.454   3.696   2.525 -0.5311  0.5898  0.5727
 1161TIP3    H224899   2.530   3.738   2.649  1.5157  1.1619 -0.8441
 1162TIP3   OH224900   5.965   3.394   4.882 -0.4892 -0.6300  0.5343
 1162TIP3    H124901   6.038   3.347   4.842 -0.9172 -1.1600  0.3705
 1162TIP3    H224902   5.937   3.456   4.816 -0.0018 -0.2202  0.7052
 1163TIP3   OH224903   1.982   3.950   1.208 -0.4346 -0.1852 -0.0227
 1163TIP3    H124904   1.945   4.031   1.243  0.9949  1.3120 -1.8760
 1163TIP3    H224905   1.916   3.918   1.146 -0.7377 -0.1081  0.2608
 1164TIP3   OH224906   4.248   5.787   1.643  0.1201  0.2258 -0.1640
 1164TIP3    H124907   4.194   5.748   1.712 -0.6204 -0.1443 -0.9359
 1164TIP3    H224908   4.282   5.867   1.681  0.2369 -0.2935  0.8500
 1165TIP3   OH224909   4.519   2.422   0.855  0.1922  0.3848 -0.2225
 1165TIP3    H124910   4.453   2.369   0.809 -1.4712  0.6845  1.7083
 1165TIP3    H224911   4.553   2.481   0.788 -1.1280 -0.1450 -1.4039
 1166TIP3   OH224912   0.621   3.370   2.639  0.4539  0.0866 -0.0985
 1166TIP3    H124913   0.548   3.309   2.625 -0.3700  1.4394 -1.9475
 1166TIP3    H224914   0.687   3.318   2.685  0.4981 -2.7407 -3.1233
 1167TIP3   OH224915   0.089   6.380   4.931 -0.7571  0.0556 -0.3375
 1167TIP3    H124916   0.140   6.320   4.985 -0.5650 -1.2319 -1.9395
 1167TIP3    H224917   0.005   6.336   4.919 -1.0981  0.7181 -0.4193
 1168TIP3   OH224918   1.511   5.263   0.200 -0.0986  0.6064 -0.5118
 1168TIP3    H124919   1.509   5.186   0.258 -0.3541  1.6641  0.9150
 1168TIP3    H224920   1.556   5.233   0.122  1.2212 -0.5626  0.6795
 1169TIP3   OH224921   2.832   1.614  16.243 -0.6377  0.2654  0.0486
 1169TIP3    H124922   2.904   1.606  16.181  0.7979 -2.3850  1.9272
 1169TIP3    H224923   2.758   1.573  16.200 -0.9431  2.5867 -1.7141
 1170TIP3   OH224924   3.471   2.584  17.071 -0.6981 -0.0064 -0.1258
 1170TIP3    H124925   3.398   2.642  17.049  0.8381  2.1578  0.3454
 1170TIP3    H224926   3.508   2.621  17.151  0.5955 -1.3813 -0.0640
 1171TIP3   OH224927   5.875   0.837  17.189  0.1593 -0.3272  0.9113
 1171TIP3    H124928   5.894   0.874  17.103 -2.0990 -0.1086  0.4764
 1171TIP3    H224929   5.921   0.893  17.251 -0.8062  1.4272  0.0598
 1172TIP3   OH224930   2.972   1.973   4.771 -0.2436 -0.0762 -0.1015
 1172TIP3    H124931   3.058   1.937   4.752  0.8421  2.4512 -0.1030
 1172TIP3    H224932   2.978   2.005   4.862 -1.4891 -0.7485  0.2367
 1173TIP3   OH224933   0.107   4.556   1.006 -0.6182 -0.3290 -0.2486
 1173TIP3    H124934   0.053   4.634   1.009 -3.1265 -2.0626  0.6903
 1173TIP3    H224935   0.147   4.559   0.919 -0.2217  2.2503 -0.0315
 1174TIP3   OH224936   1.102   1.777   2.311 -0.2393 -0.6582  0.4404
 1174TIP3    H124937   1.170   1.805   2.250 -1.7370  2.9440  0.2845
 1174TIP3    H224938   1.031   1.745   2.255  0.3449 -2.1124  0.5141
 1175TIP3   OH224939   2.292   2.392  15.659 -0.3266 -0.0732 -0.6069
 1175TIP3    H124940   2.354   2.462  15.639  0.4264 -0.3678  0.6308
 1175TIP3    H224941   2.206   2.432  15.649  0.0947  1.7097  2.2611
 1176TIP3   OH224942   3.227   3.368  15.809  0.0443  0.4363 -0.7238
 1176TIP3    H124943   3.300   3.367  15.871 -0.0825  0.4303 -0.5741
 1176TIP3    H224944   3.269   3.373  15.723  0.2947 -1.9325 -0.7725
 1177TIP3   OH224945   2.777   3.022  12.498  0.3935 -0.2022  0.5166
 1177TIP3    H124946   2.836   3.096  12.483  0.7588 -0.5300  0.3067
 1177TIP3    H224947   2.701   3.040  12.443  0.4331  0.0673  0.5484
 1178TIP3   OH224948   5.379   1.722   6.468 -0.0330 -0.0832 -0.1221
 1178TIP3    H124949   5.387   1.637   6.510 -0.8283 -0.2859 -0.3799
 1178TIP3    H224950   5.386   1.704   6.374 -0.5187  0.0928 -0.1957
 1179TIP3   OH224951   5.940   4.097  11.021  0.4207 -0.3614 -0.0870
 1179TIP3    H124952   5.997   4.033  11.064  2.0945  0.0768 -1.5701
 1179TIP3    H224953   5.954   4.178  11.070  1.5921 -0.0966 -0.8430
 1180TIP3   OH224954   2.435   1.696   1.762  0.0087 -0.7397 -0.8243
 1180TIP3    H124955   2.505   1.632   1.747  0.3979 -0.2859 -0.9290
 1180TIP3    H224956   2.460   1.741   1.843  0.3503  0.1134 -1.4056
 1181TIP3   OH224957   2.276   2.716  13.639  0.4939  0.1814  0.1520
 1181TIP3    H124958   2.353   2.731  13.694 -0.8639 -0.0569  2.1839
 1181TIP3    H224959   2.242   2.631  13.668  0.2973 -0.4307 -1.7608
 1182TIP3   OH224960   6.416   0.643   4.854 -0.2120  0.1653 -0.8376
 1182TIP3    H124961   6.418   0.718   4.914  0.6472 -0.2511 -0.3418
 1182TIP3    H224962   6.405   0.567   4.911  1.8726 -0.3534 -1.0932
 1183TIP3   OH224963   0.838   0.884  13.790  0.1466  0.0786 -0.3187
 1183TIP3    H124964   0.759   0.886  13.843  0.2145  0.7719 -0.2422
 1183TIP3    H224965   0.820   0.818  13.722 -1.3263  1.7424 -1.5922
 1184TIP3   OH224966   6.369   5.497  11.425  0.0401 -0.0943  0.1684
 1184TIP3    H124967   6.389   5.588  11.445 -0.7756  0.0983  0.1257
 1184TIP3    H224968   6.358   5.496  11.330  1.4248 -0.5123  0.0074
 1185TIP3   OH224969   4.945   0.662   2.614  0.4115 -0.1423 -0.0075
 1185TIP3    H124970   4.987   0.586   2.574  0.4355 -0.3096  0.3327
 1185TIP3    H224971   4.993   0.676   2.696  0.8419  0.6511 -0.3942
 1186TIP3   OH224972   6.296   6.518  13.867 -0.1668  0.0986 -0.6596
 1186TIP3    H124973   6.278   6.609  13.890 -1.7789 -0.0565 -1.2478
 1186TIP3    H224974   6.309   6.474  13.951 -1.1496  0.5168 -0.2853
 1187TIP3   OH224975   0.191   6.313  13.286 -0.1364  0.1882  0.1058
 1187TIP3    H124976   0.158   6.353  13.366 -0.0620  0.5690 -0.0544
 1187TIP3    H224977   0.165   6.373  13.216  0.7874  0.4303 -0.0334
 1188TIP3   OH224978   0.825   0.995  12.378  0.5642  0.7701 -0.2907
 1188TIP3    H124979   0.919   0.978  12.367  0.1249 -0.8069 -1.6572
 1188TIP3    H224980   0.795   1.023  12.292 -0.0552  2.2264  0.3735
 1189TIP3   OH224981   1.661   2.250   4.938  0.1341  0.1412  0.4690
 1189TIP3    H124982   1.620   2.324   4.983 -1.1686  0.2255 -0.8276
 1189TIP3    H224983   1.588   2.191   4.918  0.9980 -0.9092  0.3769
 1190TIP3   OH224984   6.344   6.458  16.357 -0.1533  0.6510  0.3498
 1190TIP3    H124985   6.316   6.549  16.346  0.6046  1.2356  2.9929
 1190TIP3    H224986   6.427   6.464  16.404  0.0417 -1.4108  0.3189
 1191TIP3   OH224987   1.037   1.601   1.410  0.0585 -0.2332  0.3983
 1191TIP3    H124988   1.097   1.675   1.402  0.6703 -0.5799  1.5955
 1191TIP3    H224989   0.984   1.622   1.487 -2.9053  1.1416 -1.9561
 1192TIP3   OH224990   2.973   4.462   3.238 -0.3966 -0.2560 -0.0442
 1192TIP3    H124991   2.942   4.550   3.261 -1.0923 -0.4784 -0.1106
 1192TIP3    H224992   2.970   4.461   3.142  3.6557  1.0967 -0.3038
 1193TIP3   OH224993   2.899   6.461   4.118 -0.1840  0.1461  0.0621
 1193TIP3    H124994   2.849   6.454   4.200 -1.0598 -0.9760 -0.5497
 1193TIP3    H224995   2.979   6.412   4.134 -1.4722 -2.2761 -0.5554
 1194TIP3   OH224996   4.360   4.229   5.592  0.6633  0.4703  0.2026
 1194TIP3    H124997   4.454   4.238   5.573  0.3473  1.6494 -0.8326
 1194TIP3    H224998   4.330   4.319   5.605 -1.0520  0.3982 -2.9587
 1195TIP3   OH224999   0.482   1.625  15.981 -0.3031  0.1311 -0.0453
 1195TIP3    H125000   0.455   1.586  15.898  0.3085  0.8423 -0.5860
 1195TIP3    H225001   0.420   1.696  15.995 -2.1662 -1.7376  1.5417
 1196TIP3   OH225002   2.274   1.162  14.093  0.3316 -0.3581 -0.1842
 1196TIP3    H125003   2.204   1.119  14.043  0.2468  0.0311 -0.3987
 1196TIP3    H225004   2.264   1.255  14.073 -0.4159 -0.0782  1.4326
 1197TIP3   OH225005   2.007   4.642  15.420 -0.2175 -0.0957 -0.2394
 1197TIP3    H125006   2.005   4.700  15.496 -1.1519  2.2354 -1.9973
 1197TIP3    H225007   1.921   4.654  15.379  1.4913  1.3397 -3.5809
 1198TIP3   OH225008   0.852   2.754  16.623  0.9549  0.0548  0.5860
 1198TIP3    H125009   0.802   2.682  16.660  0.1567  0.6385  0.6554
 1198TIP3    H225010   0.916   2.712  16.566  0.0207 -0.6778  0.0635
 1199TIP3   OH225011   5.147   0.374  13.670 -0.3280 -0.1275 -0.4559
 1199TIP3    H125012   5.106   0.432  13.607 -1.6983  0.3147  0.8052
 1199TIP3    H225013   5.107   0.288  13.654 -1.6326  0.2530  0.6149
 1200TIP3   OH225014   3.192   2.968   3.525 -0.0492 -0.3143 -0.2869
 1200TIP3    H125015   3.138   2.995   3.451  0.2378 -0.7850 -0.6673
 1200TIP3    H225016   3.281   2.963   3.490  0.4031  1.2867  0.5408
 1201TIP3   OH225017   5.055   4.608  13.423  0.4662 -0.3327  0.1719
 1201TIP3    H125018   5.095   4.677  13.370  2.1424 -0.3857  1.3183
 1201TIP3    H225019   4.982   4.576  13.370  0.9206  0.9295 -1.2491
 1202TIP3   OH225020   1.609   0.345   5.960  0.1187 -0.5770  0.0114
 1202TIP3    H125021   1.704   0.351   5.959  0.1798 -1.4794 -0.2866
 1202TIP3    H225022   1.587   0.322   6.050  0.0335  1.6328  0.5848
 1203TIP3   OH225023   5.739   6.571  16.280 -0.3617  0.3359 -0.0918
 1203TIP3    H125024   5.701   6.565  16.368 -2.0866 -0.9929 -0.8969
 1203TIP3    H225025   5.666   6.598  16.224  0.3089 -0.4585 -1.3728
 1204TIP3   OH225026   1.995   3.087   4.420  0.2594  0.6738  0.1279
 1204TIP3    H125027   1.917   3.136   4.395 -1.0771 -1.4268  0.0813
 1204TIP3    H225028   2.021   3.041   4.340  0.6129  0.1248  0.5557
 1205TIP3   OH225029   5.358   5.486  10.894 -0.0633  0.3870 -0.1313
 1205TIP3    H125030   5.423   5.424  10.862  1.2475  1.9649 -0.5338
 1205TIP3    H225031   5.406   5.567  10.908 -1.2358  0.6609  2.7641
 1206TIP3   OH225032   4.553   1.617   2.837 -0.5049 -0.0977 -0.4360
 1206TIP3    H125033   4.524   1.526   2.847 -1.8587  0.2889 -0.7139
 1206TIP3    H225034   4.478   1.662   2.798  0.0315  1.2123 -0.0012
 1207TIP3   OH225035   2.303   0.788  13.023 -0.0067 -0.0118  0.4427
 1207TIP3    H125036   2.357   0.711  13.042 -0.2876 -0.4211 -0.3958
 1207TIP3    H225037   2.346   0.831  12.949 -0.5559 -0.0784  0.0766
 1208TIP3   OH225038   6.018   3.673  12.119 -0.0178  0.4021  0.1513
 1208TIP3    H125039   6.034   3.654  12.211  1.6288 -0.6025 -0.3167
 1208TIP3    H225040   5.931   3.637  12.102  0.2824 -0.7589  0.9661
 1209TIP3   OH225041   1.360   3.491  12.504  0.1999  0.3891 -0.0558
 1209TIP3    H125042   1.353   3.572  12.553  1.3662  0.5198 -0.0936
 1209TIP3    H225043   1.334   3.422  12.566 -0.1496  0.7243  0.1698
 1210TIP3   OH225044   5.263   5.624   5.279  0.2947  0.4307 -0.2241
 1210TIP3    H125045   5.262   5.719   5.273  0.9462  0.5438  1.2878
 1210TIP3    H225046   5.172   5.598   5.263 -0.2985  1.4510  1.3720
 1211TIP3   OH225047   3.367   3.477   5.038  0.1232 -0.0249  0.0824
 1211TIP3    H125048   3.350   3.402   4.982  1.2064 -0.2351  0.0126
 1211TIP3    H225049   3.457   3.464   5.068  0.0539  0.8464  0.6839
 1212TIP3   OH225050   4.757   6.042  15.210  0.1404 -0.4890 -0.0709
 1212TIP3    H125051   4.834   5.992  15.238 -0.5172  0.2511  3.3474
 1212TIP3    H225052   4.793   6.116  15.162  1.6685  0.0618  1.8243
 1213TIP3   OH225053   2.370   2.334   2.506  0.0299  0.3566  0.0479
 1213TIP3    H125054   2.331   2.293   2.583  0.3308 -2.3972 -1.1894
 1213TIP3    H225055   2.360   2.269   2.437 -0.4475  2.8614 -2.3254
 1214TIP3   OH225056   5.312   3.247   5.087  0.3283 -0.0919 -0.8989
 1214TIP3    H125057   5.284   3.259   4.996  1.7292  0.6466 -1.2534
 1214TIP3    H225058   5.328   3.336   5.119  0.1654 -0.3702 -0.0355
 1215TIP3   OH225059   6.213   3.627   4.756  0.5300 -0.6381 -0.1913
 1215TIP3    H125060   6.138   3.673   4.795  0.0978 -0.7335 -0.9041
 1215TIP3    H225061   6.176   3.543   4.727  1.6489 -2.1665  2.6004
 1216TIP3   OH225062   0.194   3.037  11.396 -0.0053 -0.2049 -0.6322
 1216TIP3    H125063   0.122   2.979  11.420  1.6794 -2.0833  0.0106
 1216TIP3    H225064   0.168   3.074  11.311 -0.4935 -3.0293 -1.7596
 1217TIP3   OH225065   2.294   3.927   0.531  0.0973  0.3752  0.3174
 1217TIP3    H125066   2.355   4.000   0.545 -0.2508  0.6157  0.5932
 1217TIP3    H225067   2.350   3.850   0.524  0.4697  0.6670  0.0285
 1218TIP3   OH225068   2.964   1.572  16.711  0.0167 -0.0830  0.1887
 1218TIP3    H125069   3.049   1.539  16.741 -0.2200 -0.4636  0.4574
 1218TIP3    H225070   2.976   1.666  16.703  0.3087 -0.0694  0.7545
 1219TIP3   OH225071   2.965   5.684   2.474  0.4025  0.1706  0.3088
 1219TIP3    H125072   2.932   5.752   2.533  1.5011  1.3696 -0.4219
 1219TIP3    H225073   2.888   5.654   2.426 -0.2920  0.0377  1.4832
 1220TIP3   OH225074   5.429   0.243  11.151 -0.1456  0.3655 -0.4404
 1220TIP3    H125075   5.354   0.295  11.121 -0.5610  0.9402  1.4973
 1220TIP3    H225076   5.450   0.280  11.237  0.6426 -1.5736  0.2253
 1221TIP3   OH225077   0.887   4.779   5.306  0.0805 -0.2879 -0.1713
 1221TIP3    H125078   0.893   4.739   5.393  0.1265 -0.7824 -0.3984
 1221TIP3    H225079   0.795   4.806   5.299  0.4014  1.0165  0.5761
 1222TIP3   OH225080   6.490   3.228  16.265 -0.1331  0.5046 -0.2325
 1222TIP3    H125081   6.531   3.314  16.256 -0.3077  0.5281 -0.8345
 1222TIP3    H225082   6.399   3.246  16.284  0.0363  0.4518  0.6226
 1223TIP3   OH225083   6.272   3.364   0.298 -0.1997 -0.6058  0.3211
 1223TIP3    H125084   6.343   3.428   0.297 -0.7487  0.0334  1.1149
 1223TIP3    H225085   6.269   3.330   0.208  0.5920 -0.0631  0.0848
 1224TIP3   OH225086   0.739   5.394  10.493  0.3337  0.7041 -0.1779
 1224TIP3    H125087   0.737   5.451  10.571 -0.4255  0.0907  0.2570
 1224TIP3    H225088   0.775   5.311  10.525 -0.2308  0.3643 -0.4199
 1225TIP3   OH225089   0.291   0.281  11.322 -0.3410 -0.1603 -0.5713
 1225TIP3    H125090   0.213   0.229  11.339 -0.4146  0.6615  1.8345
 1225TIP3    H225091   0.258   0.370  11.309  0.0517 -0.1193 -1.3007
 1226TIP3   OH225092   3.367   5.198  12.110  0.1373 -0.4173 -0.2631
 1226TIP3    H125093   3.460   5.176  12.109  0.2117 -0.1755  0.6133
 1226TIP3    H225094   3.343   5.192  12.202 -0.3788  0.9341 -0.2999
 1227TIP3   OH225095   2.330   5.519  14.714  0.6502  0.3504  0.2473
 1227TIP3    H125096   2.353   5.446  14.656  0.5781  0.0672  0.5709
 1227TIP3    H225097   2.411   5.539  14.760  1.0384  1.4419 -0.8936
 1228TIP3   OH225098   1.781   4.269   1.676  0.1033  0.2496  0.0440
 1228TIP3    H125099   1.839   4.205   1.715 -0.1384  0.2161  0.3495
 1228TIP3    H225100   1.797   4.350   1.724 -1.0688 -0.0876  1.0460
 1229TIP3   OH225101   1.841   1.105  11.184 -0.1673 -0.0304  0.9829
 1229TIP3    H125102   1.788   1.030  11.157  2.1473 -1.0933 -0.7626
 1229TIP3    H225103   1.823   1.172  11.119  0.6343 -0.3987  0.3788
 1230TIP3   OH225104   2.987   0.736  11.921 -0.3907  0.1932 -0.2978
 1230TIP3    H125105   3.040   0.725  11.842 -1.0315  2.0864 -1.0059
 1230TIP3    H225106   2.966   0.646  11.948 -0.8038 -0.4590 -2.7103
 1231TIP3   OH225107   6.100   4.168  17.078 -0.6670  0.2629 -0.1955
 1231TIP3    H125108   6.181   4.213  17.102  0.2488 -1.3814 -0.1598
 1231TIP3    H225109   6.045   4.237  17.040  0.9832  1.2855 -0.7863
 1232TIP3   OH225110   3.769   0.287  10.349  0.2390 -0.1770 -0.3413
 1232TIP3    H125111   3.828   0.323  10.283  0.2751  0.1094 -0.1496
 1232TIP3    H225112   3.685   0.279  10.304  0.6833 -1.6368 -0.9574
 1233TIP3   OH225113   2.844   5.070   5.222  0.1878  0.9390 -0.2070
 1233TIP3    H125114   2.758   5.054   5.260 -0.0896 -1.0730 -1.5869
 1233TIP3    H225115   2.855   5.165   5.227 -1.1471  1.0181  1.9795
 1234TIP3   OH225116   2.853   0.363  11.382  0.4058  0.3647  0.1104
 1234TIP3    H125117   2.921   0.428  11.401 -0.9449  2.7118 -2.6446
 1234TIP3    H225118   2.776   0.415  11.359 -0.3566 -2.1194 -3.4438
 1235TIP3   OH225119   1.943   4.841   0.420 -0.9139 -0.0361  0.2406
 1235TIP3    H125120   1.859   4.863   0.459 -0.7201 -1.6583  1.6543
 1235TIP3    H225121   1.962   4.752   0.452  0.5364 -0.3452 -1.3920
 1236TIP3   OH225122   0.966   3.490  10.801 -0.0663 -0.2902  0.1282
 1236TIP3    H125123   0.985   3.397  10.784  0.0680 -0.4077  0.9130
 1236TIP3    H225124   0.872   3.492  10.819 -0.4273 -0.0027 -1.7328
 1237TIP3   OH225125   1.875   2.218   1.142  0.4398  0.2853  0.4197
 1237TIP3    H125126   1.908   2.245   1.227  1.1124  0.2511  0.1712
 1237TIP3    H225127   1.852   2.125   1.153  0.6632  0.2423  0.5211
 1238TIP3   OH225128   1.187   2.667  13.415 -0.2399 -0.4449  0.1072
 1238TIP3    H125129   1.278   2.680  13.442 -0.0771  0.0632 -0.6638
 1238TIP3    H225130   1.181   2.574  13.393  0.4561 -0.2039 -1.1491
 1239TIP3   OH225131   2.394   1.312   4.102 -0.1025  0.0380  0.2650
 1239TIP3    H125132   2.463   1.329   4.166  0.9889 -1.4266 -0.5070
 1239TIP3    H225133   2.351   1.232   4.133 -0.6760  0.2664  0.0778
 1240TIP3   OH225134   4.795   0.613  15.572 -0.0395  0.2128 -0.0201
 1240TIP3    H125135   4.887   0.588  15.575 -0.0748  0.1547  1.0058
 1240TIP3    H225136   4.793   0.702  15.609 -0.3871  0.2081 -0.0228
 1241TIP3   OH225137   5.607   1.262  13.008 -0.2847 -0.1041 -0.2889
 1241TIP3    H125138   5.597   1.194  13.075  0.7577  0.3693  0.3670
 1241TIP3    H225139   5.567   1.339  13.047  1.7102  0.5804  0.4412
 1242TIP3   OH225140   0.724   0.799  11.063 -0.0662  0.1057 -0.1015
 1242TIP3    H125141   0.676   0.796  10.981 -2.0872  0.9567  1.0177
 1242TIP3    H225142   0.804   0.847  11.043 -0.4475  0.1197 -1.6116
 1243TIP3   OH225143   5.847   3.094   6.429  0.3619  0.4178  0.3039
 1243TIP3    H125144   5.766   3.124   6.471  0.1682 -0.3517  0.5006
 1243TIP3    H225145   5.878   3.024   6.487 -1.1409 -2.2636 -2.0442
 1244TIP3   OH225146   1.802   6.284  11.391 -0.0992  0.2039  0.3629
 1244TIP3    H125147   1.876   6.334  11.424 -0.1275 -0.4403  1.4347
 1244TIP3    H225148   1.814   6.197  11.429 -2.0202  0.4034  1.5017
 1245TIP3   OH225149   5.707   4.216   5.463  0.0610 -0.5686  0.0956
 1245TIP3    H125150   5.677   4.145   5.521  1.4655  0.6244  2.3395
 1245TIP3    H225151   5.644   4.286   5.478 -1.3854 -1.3104 -2.2008
 1246TIP3   OH225152   5.943   1.118  15.717 -0.2855 -0.6209 -0.0846
 1246TIP3    H125153   5.947   1.152  15.806 -1.3250 -0.7364  0.0130
 1246TIP3    H225154   5.872   1.168  15.675 -0.5198 -1.3056 -0.5164
 1247TIP3   OH225155   5.520   1.225   5.416  0.3384  0.1992 -0.2474
 1247TIP3    H125156   5.480   1.260   5.337 -1.7296 -0.6467  0.3868
 1247TIP3    H225157   5.503   1.292   5.483  2.1203  0.9334 -0.5133
 1248TIP3   OH225158   2.367   2.336  15.022 -0.1315  0.3926  0.1089
 1248TIP3    H125159   2.362   2.252  15.066  0.4074  0.2113 -0.1625
 1248TIP3    H225160   2.432   2.323  14.953 -1.2215  0.5618 -0.9667
 1249TIP3   OH225161   0.839   4.405   6.531 -0.4602 -0.4198 -0.0775
 1249TIP3    H125162   0.866   4.313   6.535 -1.5656 -0.6740  2.4961
 1249TIP3    H225163   0.894   4.449   6.595  0.5050  0.8830 -1.7448
 1250TIP3   OH225164   0.881   2.885   1.211  0.5620  0.1504 -0.1390
 1250TIP3    H125165   0.833   2.951   1.262 -0.7193 -0.8621  0.0054
 1250TIP3    H225166   0.836   2.884   1.126  1.8028  0.8286 -0.8200
 1251TIP3   OH225167   2.291   0.699  15.267  0.4911 -0.0903  0.3441
 1251TIP3    H125168   2.230   0.702  15.340 -2.0982  2.4214 -1.7955
 1251TIP3    H225169   2.314   0.791  15.251 -0.3302 -0.3926 -3.0207
 1252TIP3   OH225170   0.662   3.858  14.148  0.3700  0.0760  0.1798
 1252TIP3    H125171   0.710   3.937  14.171  4.3466 -1.9364 -0.7395
 1252TIP3    H225172   0.616   3.880  14.067  0.1263  1.9108  0.7957
 1253TIP3   OH225173   0.011   5.319  13.819 -0.0263 -0.5024  0.2990
 1253TIP3    H125174   0.107   5.313  13.816  0.0241 -0.1244  1.0233
 1253TIP3    H225175  -0.009   5.406  13.786 -0.1929 -0.9852 -0.9065
 1254TIP3   OH225176   6.701   4.442  16.783  0.0352 -0.0395  0.2648
 1254TIP3    H125177   6.771   4.377  16.789  0.6206  0.4187 -1.3605
 1254TIP3    H225178   6.727   4.511  16.845  1.7214  0.7357 -1.2391
 1255TIP3   OH225179   0.207   4.839  13.151 -0.2977 -0.0182  0.6943
 1255TIP3    H125180   0.265   4.851  13.226 -0.7965  1.1136  0.9185
 1255TIP3    H225181   0.228   4.912  13.093 -0.9247 -0.0634  0.4079
 1256TIP3   OH225182   2.572   6.555   2.574  0.0669  0.7082  0.1142
 1256TIP3    H125183   2.579   6.513   2.489 -0.0329 -0.2545  0.5776
 1256TIP3    H225184   2.482   6.541   2.601  0.0188  1.2613  0.2504
 1257TIP3   OH225185   1.846   5.258  10.825  0.0682  0.5177 -0.4629
 1257TIP3    H125186   1.778   5.285  10.887 -0.4442 -3.1534  0.6596
 1257TIP3    H225187   1.843   5.163  10.825  3.0260  0.3430 -2.8884
 1258TIP3   OH225188   0.737   4.491  11.207 -0.1626  0.2455 -0.2905
 1258TIP3    H125189   0.772   4.577  11.182 -2.6672  0.9120 -1.6898
 1258TIP3    H225190   0.647   4.491  11.172 -0.5315 -2.5544  0.5709
 1259TIP3   OH225191   4.024   1.016   5.237 -0.1514 -0.4857  0.3306
 1259TIP3    H125192   4.119   1.013   5.226 -0.0851  0.8944  0.4322
 1259TIP3    H225193   4.009   0.986   5.327  0.1024 -1.7735 -0.0585
 1260TIP3   OH225194   1.161   4.591   1.320 -0.2516  0.0019  0.6793
 1260TIP3    H125195   1.116   4.602   1.236  0.4611 -0.6048  0.2201
 1260TIP3    H225196   1.176   4.681   1.351  0.0238  0.2390 -0.1283
 1261TIP3   OH225197   5.239   1.234  14.154  0.3482  0.0477 -0.1299
 1261TIP3    H125198   5.143   1.224  14.153  0.3319  0.1054  0.5298
 1261TIP3    H225199   5.272   1.152  14.116  0.0372  0.0863 -0.4942
 1262TIP3   OH225200   0.070   4.982  13.647 -0.5043  0.3096 -0.1986
 1262TIP3    H125201   0.025   4.908  13.688  1.8729 -0.9907  0.1567
 1262TIP3    H225202   0.132   5.012  13.713 -2.4029  3.5837  0.1998
 1263TIP3   OH225203   5.577   1.755   4.580  0.6509 -0.7056  0.4268
 1263TIP3    H125204   5.656   1.706   4.601  1.5336  0.3330 -0.3978
 1263TIP3    H225205   5.603   1.847   4.587  0.5075 -0.3051 -3.4215
 1264TIP3   OH225206   2.998   0.637   0.997  0.3062 -0.0320  0.4821
 1264TIP3    H125207   2.998   0.722   0.954 -0.1522  1.8282  4.0031
 1264TIP3    H225208   3.087   0.626   1.030  0.5511 -1.2810 -0.5132
 1265TIP3   OH225209   5.414   2.087  13.585 -0.6563 -0.5029  0.4000
 1265TIP3    H125210   5.376   2.101  13.498 -0.0604 -0.2566  0.1780
 1265TIP3    H225211   5.480   2.019  13.572 -0.7361 -0.6392  0.7100
 1266TIP3   OH225212   0.521   6.375  13.532  0.0524  0.5339  0.0617
 1266TIP3    H125213   0.464   6.322  13.588 -1.9088  2.9904  0.4379
 1266TIP3    H225214   0.593   6.400  13.589 -0.2614  0.3197  0.5627
 1267TIP3   OH225215   1.868   0.942  13.763  0.0936  0.0569 -0.2735
 1267TIP3    H125216   1.792   0.908  13.717  0.2252  1.7374 -1.8025
 1267TIP3    H225217   1.939   0.883  13.740 -0.7020 -1.4294  1.0343
 1268TIP3   OH225218   1.376   6.159  15.598 -0.2658  0.3195  0.6810
 1268TIP3    H125219   1.349   6.081  15.549  0.9360 -0.0527  0.5834
 1268TIP3    H225220   1.299   6.184  15.648 -1.3440  0.3605 -0.9597
 1269TIP3   OH225221   3.274   0.301   4.731  0.5998 -0.1436 -0.0945
 1269TIP3    H125222   3.213   0.240   4.690 -2.5023  0.2506  3.6704
 1269TIP3    H225223   3.351   0.249   4.752  0.1135 -1.5064 -1.6461
 1270TIP3   OH225224   6.591   3.020  14.533 -0.6582  0.4622 -0.0428
 1270TIP3    H125225   6.523   2.970  14.489 -0.4059  1.6314 -1.8383
 1270TIP3    H225226   6.610   2.972  14.614 -3.5605  0.1029  0.4547
 1271TIP3   OH225227   6.580   5.178   4.649  0.4129 -1.0061 -0.4980
 1271TIP3    H125228   6.538   5.123   4.583  0.6853 -1.6636 -0.1338
 1271TIP3    H225229   6.664   5.134   4.667 -0.3825 -1.7907  1.5140
 1272TIP3   OH225230   2.160   1.453  13.267 -0.1513  0.0843  0.3952
 1272TIP3    H125231   2.180   1.545  13.248  0.4938 -0.2409 -0.5574
 1272TIP3    H225232   2.208   1.433  13.347 -0.0688  0.4975  0.4484
 1273TIP3   OH225233   1.618   3.602  16.361 -0.0284  0.2041 -0.0032
 1273TIP3    H125234   1.667   3.624  16.281  1.3591 -2.6336 -0.0044
 1273TIP3    H225235   1.641   3.672  16.423 -0.2708  1.8564 -1.7297
 1274TIP3   OH225236   3.972   6.265  16.375  0.5693 -0.0210 -0.3266
 1274TIP3    H125237   4.000   6.356  16.364  1.3972 -0.2164  0.1571
 1274TIP3    H225238   3.975   6.229  16.286  1.5059  0.0576 -0.3264
 1275TIP3   OH225239   3.703   3.284   3.012  0.2105  0.1130  0.8530
 1275TIP3    H125240   3.737   3.216   3.071  2.3393  0.3139 -0.1076
 1275TIP3    H225241   3.781   3.330   2.981 -0.8318 -0.0010 -2.1349
 1276TIP3   OH225242   5.847   1.111   4.386 -0.3147  0.7758  0.5929
 1276TIP3    H125243   5.761   1.124   4.346  0.4865  1.2391 -1.0273
 1276TIP3    H225244   5.829   1.093   4.478 -2.4962 -4.4860 -0.6620
 1277TIP3   OH225245   5.454   2.513  13.140  0.1455 -0.4158  0.5955
 1277TIP3    H125246   5.444   2.432  13.190 -0.6755 -1.2972 -0.9635
 1277TIP3    H225247   5.365   2.551  13.138  0.4856  0.4402  1.1521
 1278TIP3   OH225248   6.505   2.086  16.871  0.4716 -1.0746 -0.2109
 1278TIP3    H125249   6.500   2.078  16.966  0.3556 -1.8134 -0.2675
 1278TIP3    H225250   6.414   2.084  16.841  0.5508 -1.9971 -0.4115
 1279TIP3   OH225251   2.108   0.391  11.252  0.2282  0.4405 -0.2693
 1279TIP3    H125252   2.159   0.447  11.194  0.2490  2.7904  1.9530
 1279TIP3    H225253   2.163   0.314  11.265  1.7629  1.4771 -0.5445
 1280TIP3   OH225254   3.422   5.704  13.462 -0.7133  0.0323 -0.0049
 1280TIP3    H125255   3.517   5.690  13.459 -0.6079  0.3370  1.5786
 1280TIP3    H225256   3.387   5.644  13.396  0.5891  0.0658 -0.7457
 1281TIP3   OH225257   5.531   0.275   1.139 -0.0482  0.5432 -0.0204
 1281TIP3    H125258   5.621   0.266   1.171  0.1650 -0.1346 -0.7717
 1281TIP3    H225259   5.534   0.240   1.050 -1.1747  0.0298  0.1306
 1282TIP3   OH225260   4.056   0.229  16.898 -0.1989  0.4110  0.0756
 1282TIP3    H125261   4.007   0.149  16.918 -1.3784  1.6158  2.2948
 1282TIP3    H225262   4.142   0.198  16.870 -0.9705 -1.6605 -0.1184
 1283TIP3   OH225263   4.741   3.205  11.983  0.1920  0.3696 -0.3704
 1283TIP3    H125264   4.742   3.130  12.043  2.5174 -0.3283 -1.2372
 1283TIP3    H225265   4.746   3.166  11.896 -1.7420  1.4403 -0.9869
 1284TIP3   OH225266   2.936   3.421   3.578 -0.3068 -0.1130 -0.4603
 1284TIP3    H125267   2.864   3.481   3.557 -1.0238 -1.3121 -1.5648
 1284TIP3    H225268   2.969   3.451   3.662 -1.7624  0.7878 -0.1881
 1285TIP3   OH225269   0.175   0.830  15.801 -0.0557  0.2294 -0.0433
 1285TIP3    H125270   0.099   0.874  15.840 -0.5289 -0.2762 -0.3788
 1285TIP3    H225271   0.242   0.897  15.796 -0.2871  0.5409  0.8052
 1286TIP3   OH225272   6.371   0.294   3.950 -0.0115 -0.2608  0.1660
 1286TIP3    H125273   6.429   0.220   3.967 -0.1806 -0.1813  1.1622
 1286TIP3    H225274   6.425   0.371   3.969 -0.2695 -0.1725  0.5567
 1287TIP3   OH225275   4.585   5.643  15.945 -0.3324 -0.5533 -0.0265
 1287TIP3    H125276   4.494   5.662  15.967 -0.4439 -1.5735  0.4123
 1287TIP3    H225277   4.626   5.624  16.029  0.2862 -0.1334 -0.2279
 1288TIP3   OH225278   6.281   0.556   3.811 -0.2879  0.2022  0.3496
 1288TIP3    H125279   6.354   0.502   3.843 -0.6671 -0.7653 -0.4131
 1288TIP3    H225280   6.207   0.497   3.807 -0.2128  0.2426 -2.4830
 1289TIP3   OH225281   2.846   3.994  13.796  0.2112 -0.1196  0.1397
 1289TIP3    H125282   2.830   4.085  13.773 -2.7595 -0.0492  2.2373
 1289TIP3    H225283   2.883   3.997  13.884  1.6515 -0.8799 -0.4235
 1290TIP3   OH225284   5.582   3.328  12.165 -0.1133  0.5278  0.3763
 1290TIP3    H125285   5.487   3.323  12.157 -0.0587 -0.0340  0.0272
 1290TIP3    H225286   5.615   3.258  12.108  0.6539  3.3082 -2.6873
 1291TIP3   OH225287   0.686   0.770  13.157 -0.4293 -0.3089 -0.1402
 1291TIP3    H125288   0.654   0.728  13.077  0.1046  0.8507 -0.9844
 1291TIP3    H225289   0.626   0.740  13.226 -0.1324 -2.3188 -0.7271
 1292TIP3   OH225290   2.061   6.727   5.771 -0.6426  0.2741 -0.2838
 1292TIP3    H125291   2.065   6.782   5.850  1.2040  1.2475 -1.0332
 1292TIP3    H225292   2.082   6.639   5.802 -1.7344  0.3133  0.6065
 1293TIP3   OH225293   5.726   4.522  14.585  0.3480 -0.1406  0.2791
 1293TIP3    H125294   5.651   4.551  14.637  0.6527  0.0136  0.6357
 1293TIP3    H225295   5.777   4.602  14.569  0.7639 -0.3435  0.5732
 1294TIP3   OH225296   0.026   4.686   4.258  0.4736 -0.4121  0.0228
 1294TIP3    H125297   0.094   4.663   4.321 -0.6072 -1.3940  0.8421
 1294TIP3    H225298   0.071   4.688   4.174  1.7401  0.0320  0.7078
 1295TIP3   OH225299   6.491   1.496  16.059  0.1292 -1.0168 -0.4254
 1295TIP3    H125300   6.436   1.418  16.047  0.1370 -0.8575 -1.4863
 1295TIP3    H225301   6.450   1.563  16.005  2.5877 -1.5108 -3.0112
 1296TIP3   OH225302   2.553   2.469  14.386  0.2047  0.0055  0.2360
 1296TIP3    H125303   2.459   2.465  14.404  0.0615  0.7798 -0.2765
 1296TIP3    H225304   2.558   2.477  14.290  0.8674 -2.1385  0.0680
 1297TIP3   OH225305   2.466   1.961   5.850  0.4525 -0.8273 -0.4017
 1297TIP3    H125306   2.482   1.949   5.944 -3.1474 -0.4151  0.3601
 1297TIP3    H225307   2.489   1.877   5.811  2.4698 -0.8470  0.7622
 1298TIP3   OH225308   6.698   3.624   0.656  0.6221  0.2729 -0.5266
 1298TIP3    H125309   6.677   3.633   0.562 -0.3979 -1.3192 -0.4730
 1298TIP3    H225310   6.627   3.672   0.700 -0.8130 -1.8511 -0.4740
 1299TIP3   OH225311   5.775   3.552  12.148 -0.0452  0.4071 -0.3792
 1299TIP3    H125312   5.719   3.479  12.122  0.7797 -0.0380 -0.9626
 1299TIP3    H225313   5.718   3.628  12.144 -0.6469 -0.0532 -0.8304
 1300TIP3   OH225314   3.140   4.603  15.998  0.5226  0.1931  0.4066
 1300TIP3    H125315   3.090   4.577  15.921  1.8230 -0.1676 -0.3339
 1300TIP3    H225316   3.215   4.650  15.962  1.0720  0.1314  1.4652
 1301TIP3   OH225317   0.968   1.686   5.462  0.7781 -0.0721 -0.0300
 1301TIP3    H125318   1.028   1.661   5.392  0.0766 -0.7762 -0.3897
 1301TIP3    H225319   0.890   1.633   5.447  0.2323  0.5113  0.6937
 1302TIP3   OH225320   4.850   1.794  13.389 -0.0553 -0.1668 -0.3142
 1302TIP3    H125321   4.916   1.810  13.456  0.2289  0.7392 -0.8006
 1302TIP3    H225322   4.869   1.859  13.321 -1.5243  0.1816 -0.4049
 1303TIP3   OH225323   2.975   2.819   3.225 -0.1370  0.2134 -0.2875
 1303TIP3    H125324   2.900   2.800   3.282  1.6560 -0.4068  1.9307
 1303TIP3    H225325   2.981   2.914   3.225 -0.1986  0.2240  0.5135
 1304TIP3   OH225326   0.877   4.140   1.288  0.1272  0.1915  0.2971
 1304TIP3    H125327   0.925   4.139   1.370  1.4897  0.1783 -0.4897
 1304TIP3    H225328   0.907   4.218   1.242 -0.8239  0.3494 -0.0866
 1305TIP3   OH225329   5.759   5.551   0.458 -1.3397  0.5335 -0.0745
 1305TIP3    H125330   5.753   5.606   0.379 -0.1537  1.0678  0.2022
 1305TIP3    H225331   5.774   5.613   0.529  0.2992 -0.1667  0.2054
 1306TIP3   OH225332   3.039   5.676  15.228 -0.1641  0.2419 -0.4338
 1306TIP3    H125333   3.085   5.714  15.153  1.2926 -0.8485 -0.1078
 1306TIP3    H225334   2.954   5.719  15.228 -0.1535  0.3154 -2.6767
 1307TIP3   OH225335   0.183   1.937  13.226 -0.3347 -0.1367 -0.9319
 1307TIP3    H125336   0.107   1.879  13.236  0.5439 -0.8530  1.9673
 1307TIP3    H225337   0.251   1.882  13.187 -0.2570 -0.4210 -0.4018
 1308TIP3   OH225338   2.893   0.727  16.026  0.2126 -0.1092  0.2498
 1308TIP3    H125339   2.882   0.651  15.967  2.2986 -0.1182 -0.1615
 1308TIP3    H225340   2.806   0.741  16.063 -1.3238  0.2485 -3.2711
 1309TIP3   OH225341   4.147   1.367  11.554  0.3088 -0.1344  0.1688
 1309TIP3    H125342   4.222   1.325  11.512  0.0866 -0.0654 -0.3036
 1309TIP3    H225343   4.097   1.405  11.481 -0.8044 -1.1878  0.3758
 1310TIP3   OH225344   6.433   4.393  11.893  0.3439  0.4101  0.1682
 1310TIP3    H125345   6.436   4.464  11.828  0.4947  0.2861  0.0395
 1310TIP3    H225346   6.513   4.405  11.945  1.3626 -0.8182 -1.0697
 1311TIP3   OH225347   0.584   1.089  13.698 -0.1656  1.0089  0.8052
 1311TIP3    H125348   0.621   1.089  13.610  0.0030  2.2042  0.8587
 1311TIP3    H225349   0.639   1.029  13.748 -0.1838  0.4248  0.1235
 1312TIP3   OH225350   2.382   6.454   3.143 -0.5024  0.3734  0.6935
 1312TIP3    H125351   2.362   6.477   3.233  0.8386 -0.5118  1.2228
 1312TIP3    H225352   2.393   6.359   3.144 -0.0480  0.4078 -0.3137
 1313TIP3   OH225353   4.098   2.898   2.469  0.2406  0.0185 -0.0494
 1313TIP3    H125354   4.015   2.915   2.426 -0.6476 -1.8047  0.8872
 1313TIP3    H225355   4.149   2.978   2.456 -2.0663  1.5939  0.3498
 1314TIP3   OH225356   0.377   0.573  16.746  0.6757  0.1022 -0.3264
 1314TIP3    H125357   0.460   0.597  16.785  0.0939  0.6536  0.5942
 1314TIP3    H225358   0.395   0.566  16.652  2.0247 -1.0108  0.0051
 1315TIP3   OH225359   5.298   1.065  14.906 -0.1354 -0.2617 -0.4250
 1315TIP3    H125360   5.260   0.979  14.927 -1.5778  0.5773  0.4484
 1315TIP3    H225361   5.255   1.126  14.966  1.1458  1.0231 -0.8006
 1316TIP3   OH225362   3.627   2.832  15.240  0.0563 -0.8483 -0.4049
 1316TIP3    H125363   3.533   2.841  15.226  0.1703 -0.2266 -0.7913
 1316TIP3    H225364   3.641   2.861  15.331 -0.2223 -1.6894 -0.0832
 1317TIP3   OH225365   3.719   4.794  16.625  0.1086 -0.4651  0.5895
 1317TIP3    H125366   3.735   4.885  16.602 -1.9750 -0.7874 -2.4015
 1317TIP3    H225367   3.718   4.793  16.721 -0.1804  2.7057  0.6683
 1318TIP3   OH225368   3.608   5.555  16.353 -0.1484  0.2093  0.5183
 1318TIP3    H125369   3.657   5.509  16.284  0.7473  1.3437  0.3679
 1318TIP3    H225370   3.594   5.643  16.317 -1.5090  0.1663  0.9440
 1319TIP3   OH225371   6.088   1.870  16.338 -0.7045 -0.2938 -1.2259
 1319TIP3    H125372   6.002   1.881  16.297 -0.2047  2.4229 -1.6582
 1319TIP3    H225373   6.149   1.860  16.265 -0.4293 -0.3462 -0.9912
 1320TIP3   OH225374   3.682   4.259  17.222 -0.8057 -0.5164 -0.1298
 1320TIP3    H125375   3.631   4.289  17.147  3.0494  2.3944 -1.7698
 1320TIP3    H225376   3.656   4.317  17.294  2.3258  3.1511 -1.7803
 1321TIP3   OH225377   1.074   2.317   3.836  0.0948  0.8005  0.3104
 1321TIP3    H125378   1.052   2.240   3.784  1.0717 -0.0697  1.1848
 1321TIP3    H225379   0.990   2.346   3.873 -0.2422  0.0375  0.1501
 1322TIP3   OH225380   0.523   2.904  14.286 -0.6177 -0.1982  0.1651
 1322TIP3    H125381   0.499   2.817  14.253 -0.2499 -0.3267  0.2331
 1322TIP3    H225382   0.594   2.887  14.348  0.3865  0.2927 -0.8498
 1323TIP3   OH225383   2.864   5.828   2.717 -0.1557 -0.4030 -0.7213
 1323TIP3    H125384   2.887   5.874   2.797  0.2739  0.1304 -1.1466
 1323TIP3    H225385   2.832   5.896   2.658  0.8336 -0.5703 -1.4861
 1324TIP3   OH225386   4.944   4.733  14.744  0.6590 -0.6559 -0.1211
 1324TIP3    H125387   4.902   4.807  14.700 -0.2710 -0.1604  1.5671
 1324TIP3    H225388   5.035   4.737  14.716  0.5431  0.9277 -0.3101
 1325TIP3   OH225389   0.680   2.255  14.478 -0.7713 -1.0501  0.3724
 1325TIP3    H125390   0.661   2.183  14.418 -0.9596 -1.4771  0.9452
 1325TIP3    H225391   0.620   2.243  14.551 -0.6837 -0.4122  0.5546
 1326TIP3   OH225392   0.722   3.651  11.124  0.6316 -0.2200 -0.0908
 1326TIP3    H125393   0.808   3.685  11.149  0.2645 -0.0250  0.9257
 1326TIP3    H225394   0.707   3.686  11.036  0.3668  2.0569  0.8162
 1327TIP3   OH225395   4.746   3.192  12.514 -0.1556 -0.1768  0.3201
 1327TIP3    H125396   4.813   3.124  12.528  1.3429  1.6061  2.0497
 1327TIP3    H225397   4.784   3.248  12.446 -0.0742  0.5609  0.9624
 1328TIP3   OH225398   4.168   5.168  12.032 -0.0584  0.5154 -0.5562
 1328TIP3    H125399   4.147   5.157  11.939  1.2465  2.9529 -1.1758
 1328TIP3    H225400   4.256   5.205  12.032  0.5939 -0.9522  1.7265
 1329TIP3   OH225401   1.500   5.942  14.715 -0.6192 -0.0019 -0.3575
 1329TIP3    H125402   1.454   5.887  14.652 -0.6466  1.0876 -1.3024
 1329TIP3    H225403   1.437   5.957  14.785 -1.5437  1.0735 -1.4088
 1330TIP3   OH225404   1.008   2.646   1.964 -0.4299 -0.0935 -0.1986
 1330TIP3    H125405   1.099   2.649   1.991 -0.3566 -1.2821 -0.2803
 1330TIP3    H225406   1.008   2.592   1.885 -1.1495  0.2280 -0.4253
 1331TIP3   OH225407   2.098   1.229   1.734 -0.6233 -0.1670 -0.3545
 1331TIP3    H125408   2.138   1.268   1.657 -0.7579  0.1596 -0.2604
 1331TIP3    H225409   2.055   1.150   1.701  0.4759 -0.7716 -0.3786
 1332TIP3   OH225410   3.083   5.417  15.103  0.3105 -0.1383  0.5997
 1332TIP3    H125411   3.111   5.333  15.140  0.0926 -0.5792 -0.2178
 1332TIP3    H225412   3.129   5.483  15.155  1.0598 -0.7871  0.7619
 1333TIP3   OH225413   1.733   0.210   5.125  0.2005  0.4306 -0.0527
 1333TIP3    H125414   1.790   0.133   5.132 -1.9861 -1.3153 -0.9679
 1333TIP3    H225415   1.711   0.231   5.216  0.6189 -0.1972  0.1999
 1334TIP3   OH225416   5.173   0.875  16.121 -0.5073 -0.0163 -0.6717
 1334TIP3    H125417   5.217   0.794  16.146  0.7042  1.3729  1.9189
 1334TIP3    H225418   5.245   0.936  16.101 -1.2733  1.3638  0.6174
 1335TIP3   OH225419   5.136   4.593  17.212 -0.0510  0.0070 -0.1892
 1335TIP3    H125420   5.230   4.573  17.207 -0.0988 -0.1868 -0.3219
 1335TIP3    H225421   5.129   4.684  17.183  0.0355 -0.1359 -0.6514
 1336TIP3   OH225422   5.547   6.675  11.239 -0.2630 -0.6049  0.4223
 1336TIP3    H125423   5.480   6.739  11.264  1.0433  0.7394  0.5846
 1336TIP3    H225424   5.570   6.632  11.322 -0.2935 -0.4529  0.5091
 1337TIP3   OH225425   3.853   4.917  15.438  0.2855 -0.4710  0.2370
 1337TIP3    H125426   3.941   4.950  15.423  0.9621 -1.3099  2.1324
 1337TIP3    H225427   3.810   4.921  15.353  2.1926 -0.1437 -0.7214
 1338TIP3   OH225428   5.115   4.866  13.692 -0.6130 -0.1818 -0.1010
 1338TIP3    H125429   5.129   4.942  13.748  0.4071 -0.1953 -0.3356
 1338TIP3    H225430   5.033   4.886  13.646  0.1893  1.2794 -0.9618
 1339TIP3   OH225431   2.646   0.263   0.789  0.2689  0.3441 -0.0052
 1339TIP3    H125432   2.670   0.174   0.764  1.0804  0.4171  0.4982
 1339TIP3    H225433   2.568   0.282   0.738 -0.1334 -0.7996  0.1687
 1340TIP3   OH225434   1.944   3.700   4.936  0.6857  0.1408 -0.1968
 1340TIP3    H125435   1.873   3.642   4.908 -0.0083  0.9020 -0.0666
 1340TIP3    H225436   1.901   3.785   4.949  1.7423  0.7908 -0.7878
 1341TIP3   OH225437   1.503   4.764   2.482 -0.1403 -0.4983 -0.4703
 1341TIP3    H125438   1.492   4.723   2.396 -0.4498 -0.2311 -0.5640
 1341TIP3    H225439   1.430   4.730   2.533 -0.4270 -0.0326 -0.5642
 1342TIP3   OH225440   5.546   6.120   4.625  0.3382  0.5215 -0.3885
 1342TIP3    H125441   5.466   6.135   4.675  0.2639 -0.0682 -0.3298
 1342TIP3    H225442   5.614   6.111   4.692  0.0183 -1.6402 -0.3199
 1343TIP3   OH225443   3.868   6.470  13.525  0.0289 -0.3240 -0.1195
 1343TIP3    H125444   3.941   6.439  13.579  0.2642  0.0366 -0.2312
 1343TIP3    H225445   3.872   6.417  13.446  0.8505  0.4677 -0.6083
 1344TIP3   OH225446   4.990   0.696   2.128 -0.0358 -0.0713 -1.3295
 1344TIP3    H125447   4.894   0.692   2.131 -0.0594  1.3355  3.2624
 1344TIP3    H225448   5.010   0.789   2.118  0.8189 -0.0415  0.4571
 1345TIP3   OH225449   4.883   2.589   3.643 -0.2904 -0.2585  0.1616
 1345TIP3    H125450   4.839   2.535   3.578 -0.8131  1.2206 -0.7265
 1345TIP3    H225451   4.947   2.639   3.594  0.2288 -0.0998  0.9891
 1346TIP3   OH225452   5.974   2.305  15.288 -0.7684  0.0323 -0.1033
 1346TIP3    H125453   5.910   2.312  15.360 -1.0547  0.3919 -0.3891
 1346TIP3    H225454   6.035   2.238  15.317 -1.1719 -0.1849  0.2604
 1347TIP3   OH225455   2.176   5.708   3.886  0.0141 -0.3074  0.3527
 1347TIP3    H125456   2.198   5.776   3.823 -1.2913 -0.5194 -0.3578
 1347TIP3    H225457   2.255   5.697   3.938  0.5433  1.0861 -0.1322
 1348TIP3   OH225458   6.463   5.960  15.040 -0.3125 -0.4766 -0.3497
 1348TIP3    H125459   6.488   6.040  14.994  1.0393 -0.5081  0.3282
 1348TIP3    H225460   6.518   5.892  15.001 -1.8487 -1.2039 -1.3184
 1349TIP3   OH225461   2.622   0.394   3.490  0.0722 -0.9538 -0.1367
 1349TIP3    H125462   2.626   0.378   3.584  0.4161  1.2589  0.2603
 1349TIP3    H225463   2.705   0.361   3.456 -0.4001 -2.5163  0.2001
 1350TIP3   OH225464   2.627   5.471   4.648 -0.0719  0.2312  0.2212
 1350TIP3    H125465   2.656   5.403   4.587  3.2680  0.2790  1.6564
 1350TIP3    H225466   2.575   5.530   4.594  0.8578 -0.9613 -2.0900
 1351TIP3   OH225467   3.372   6.363  16.712 -0.1592  0.3596 -0.5343
 1351TIP3    H125468   3.398   6.420  16.639  1.3423  0.0682 -0.2513
 1351TIP3    H225469   3.382   6.274  16.678  1.1222  0.2068  0.1886
 1352TIP3   OH225470   0.717   4.659   1.696 -0.3978  0.0431 -0.1230
 1352TIP3    H125471   0.653   4.719   1.656 -0.6176 -0.2160 -0.1667
 1352TIP3    H225472   0.728   4.589   1.630 -0.4028 -0.1388  0.0681
 1353TIP3   OH225473   5.930   2.595   2.561  0.2157  0.0241  0.6306
 1353TIP3    H125474   5.985   2.635   2.629  1.3824 -0.2053 -0.1464
 1353TIP3    H225475   5.978   2.516   2.536 -0.4336 -0.1380 -0.1271
 1354TIP3   OH225476   3.406   1.956  16.876 -0.1209  0.9188 -0.0141
 1354TIP3    H125477   3.492   1.922  16.852  0.0913  2.0816 -0.9614
 1354TIP3    H225478   3.351   1.878  16.886  1.3585  0.0930  1.9798
 1355TIP3   OH225479   3.199   3.056  17.052 -0.5932  0.3366  0.3180
 1355TIP3    H125480   3.160   3.111  17.121  2.9845  2.7873  0.5383
 1355TIP3    H225481   3.193   3.110  16.973  0.1751 -0.2287 -0.1280
 1356TIP3   OH225482   3.284   6.299   1.442 -0.3331  0.1068  0.2758
 1356TIP3    H125483   3.236   6.356   1.382  0.2697 -1.0594 -1.3249
 1356TIP3    H225484   3.352   6.356   1.479 -0.0540  0.5613 -0.9169
 1357TIP3   OH225485   0.501   5.115   5.927 -0.4005 -0.3580  0.0463
 1357TIP3    H125486   0.550   5.195   5.944  0.1390 -0.3370 -1.5542
 1357TIP3    H225487   0.513   5.099   5.833  1.6950 -3.7605  0.8125
 1358TIP3   OH225488   3.428   1.930   4.735  0.5709  0.4195  0.1034
 1358TIP3    H125489   3.461   2.020   4.726  0.5636  0.7652  3.0106
 1358TIP3    H225490   3.482   1.891   4.803 -0.8991 -1.0566  0.4736
 1359TIP3   OH225491   3.798   6.064   2.380 -0.6515 -1.0471 -0.1874
 1359TIP3    H125492   3.820   6.012   2.302  0.1747  0.5859 -1.0707
 1359TIP3    H225493   3.882   6.102   2.408 -1.0784 -0.9834  1.0452
 1360TIP3   OH225494   2.763   1.010  16.065  0.0576  0.0261 -0.0115
 1360TIP3    H125495   2.676   1.001  16.025 -0.6519 -0.5781  1.6015
 1360TIP3    H225496   2.824   0.995  15.993 -1.1663 -1.8377 -0.7010
 1361TIP3   OH225497   6.458   1.786  12.778 -0.1593 -0.2813 -0.1262
 1361TIP3    H125498   6.435   1.696  12.754 -1.8621  0.3051 -0.7760
 1361TIP3    H225499   6.374   1.832  12.781  0.5911  1.0411  1.2807
 1362TIP3   OH225500   6.538   0.355  16.334  0.0069  1.1384 -0.3079
 1362TIP3    H125501   6.561   0.422  16.270  4.4737 -0.0950 -0.1824
 1362TIP3    H225502   6.621   0.330  16.374 -2.1697 -0.9003  3.2485
 1363TIP3   OH225503   5.333   6.186  13.323 -0.3142  0.1804  0.5006
 1363TIP3    H125504   5.411   6.220  13.280 -0.1979 -0.5694  0.1239
 1363TIP3    H225505   5.350   6.093  13.334 -1.6065 -0.1879 -0.5689
 1364TIP3   OH225506   3.618   5.915  15.456  0.6697 -0.0161  0.0002
 1364TIP3    H125507   3.572   5.988  15.498 -1.5397 -1.6815  0.5424
 1364TIP3    H225508   3.686   5.890  15.518  1.5302  1.6316 -0.2397
 1365TIP3   OH225509   3.346   0.056  11.801  0.5902 -0.2329 -0.4396
 1365TIP3    H125510   3.334   0.064  11.896 -0.3489 -0.6752 -0.5116
 1365TIP3    H225511   3.440   0.067  11.787  0.6304  0.6105  0.4631
 1366TIP3   OH225512   3.675   6.086  13.649 -0.0064  0.1290  0.4030
 1366TIP3    H125513   3.704   6.138  13.724  0.1039  1.2570 -0.3975
 1366TIP3    H225514   3.754   6.042  13.619  1.0334  3.3645 -1.9035
 1367TIP3   OH225515   3.188   0.718   0.039  0.3350  0.0729 -0.9098
 1367TIP3    H125516   3.217   0.705   0.129  1.0088 -1.6339 -1.3636
 1367TIP3    H225517   3.095   0.698   0.040  0.2025  0.6753 -0.4821
 1368TIP3   OH225518   6.435   2.342   3.151 -0.2224 -0.0516  0.1687
 1368TIP3    H125519   6.492   2.380   3.084 -0.6193 -2.3082 -1.4815
 1368TIP3    H225520   6.474   2.371   3.234  1.3957  1.1661 -0.9742
 1369TIP3   OH225521   1.267   0.812   3.848  0.2951  0.1060 -0.6159
 1369TIP3    H125522   1.248   0.750   3.777  2.5213  1.1403 -2.1685
 1369TIP3    H225523   1.326   0.765   3.907  1.0061  0.3046 -1.1566
 1370TIP3   OH225524   5.983   5.885  11.176  0.6184 -0.2553 -0.1506
 1370TIP3    H125525   5.950   5.963  11.221 -0.1214 -0.6478 -0.0088
 1370TIP3    H225526   5.998   5.914  11.086 -0.5072 -0.1842 -0.3124
 1371TIP3   OH225527   3.367   3.235  16.473  0.0155 -0.1901 -0.1193
 1371TIP3    H125528   3.408   3.150  16.493 -2.6264 -0.9579  2.2559
 1371TIP3    H225529   3.308   3.216  16.400  1.0375  0.0964 -1.0285
 1372TIP3   OH225530   0.086   3.392   5.182  0.3554  0.2155  0.0785
 1372TIP3    H125531   0.002   3.346   5.184  0.9694 -0.9901 -0.5699
 1372TIP3    H225532   0.091   3.429   5.094  0.3147  0.6608  0.2607
 1373TIP3   OH225533   2.943   0.965   0.162 -0.1445  0.3333  0.0233
 1373TIP3    H125534   2.882   0.968   0.088  0.1270 -1.0204 -0.2586
 1373TIP3    H225535   2.902   0.905   0.224  0.3666  0.2921  0.3203
 1374TIP3   OH225536   5.627   1.797  11.644  0.5409 -0.4802 -0.3557
 1374TIP3    H125537   5.631   1.827  11.735  1.9351 -1.5641 -0.0365
 1374TIP3    H225538   5.715   1.764  11.626 -0.8239 -4.1131 -0.7567
 1375TIP3   OH225539   0.078   0.453   5.203  0.3158  0.5036 -0.3090
 1375TIP3    H125540   0.109   0.377   5.251 -0.5880  0.6884  0.5887
 1375TIP3    H225541   0.028   0.417   5.130  0.9217  0.2321 -0.5930
 1376TIP3   OH225542   6.383   0.903   2.810 -0.3833 -0.0776 -0.8683
 1376TIP3    H125543   6.311   0.912   2.747 -1.9087  3.0901  1.1983
 1376TIP3    H225544   6.346   0.850   2.881 -0.9196  2.0793  0.4876
 1377TIP3   OH225545   2.200   4.531   1.275 -0.2586  0.5035  0.2763
 1377TIP3    H125546   2.159   4.527   1.189 -1.7471 -1.1406  1.0257
 1377TIP3    H225547   2.132   4.502   1.336  1.8052 -1.7348  1.6266
 1378TIP3   OH225548   1.392   0.179  13.433  0.3740  0.1234  0.3334
 1378TIP3    H125549   1.400   0.136  13.518  0.4737  0.8131  0.6776
 1378TIP3    H225550   1.403   0.272  13.452 -1.9948  0.5288 -0.0746
 1379TIP3   OH225551   0.695   4.517  16.188  0.4505 -0.3005  0.7022
 1379TIP3    H125552   0.703   4.494  16.095  1.7871 -3.6213  1.5747
 1379TIP3    H225553   0.753   4.591  16.200  1.0206 -0.4727 -0.9085
 1380TIP3   OH225554   1.060   4.864   5.714  0.1736  0.5934  0.4535
 1380TIP3    H125555   1.018   4.878   5.799 -1.4260 -0.4762 -0.1215
 1380TIP3    H225556   1.014   4.923   5.654 -1.1109 -1.1621 -0.3455
 1381TIP3   OH225557   2.864   6.628   1.272  0.0913 -0.7513  0.0278
 1381TIP3    H125558   2.836   6.537   1.286 -0.1034 -0.8564 -1.0107
 1381TIP3    H225559   2.959   6.625   1.278  0.2317 -1.3967 -1.9326
 1382TIP3   OH225560   4.369   4.380  11.695 -0.5878  0.2419  0.2740
 1382TIP3    H125561   4.438   4.446  11.692 -0.6013  0.4114  2.6302
 1382TIP3    H225562   4.381   4.336  11.779 -1.7181 -1.5165 -0.4527
 1383TIP3   OH225563   6.200   6.691   0.774 -0.1638  0.1393 -0.2191
 1383TIP3    H125564   6.209   6.775   0.729  2.1740 -0.6387 -1.2326
 1383TIP3    H225565   6.275   6.687   0.834  0.4109 -1.7327 -1.0239
 1384TIP3   OH225566   5.940   5.830  16.257 -0.0693  0.3000  0.4253
 1384TIP3    H125567   6.001   5.851  16.187 -1.4850 -1.0600 -1.2637
 1384TIP3    H225568   5.993   5.782  16.321  0.8290 -0.1200 -0.6141
 1385TIP3   OH225569   1.400   3.479  16.133 -0.3166  0.0557  0.1443
 1385TIP3    H125570   1.379   3.572  16.144  1.1773  0.3275  0.6700
 1385TIP3    H225571   1.413   3.469  16.039 -1.9110  0.0605 -0.0943
 1386TIP3   OH225572   1.603   5.039   4.307  0.4274  0.0619 -0.0876
 1386TIP3    H125573   1.633   5.031   4.216 -0.3934  0.8149 -0.4351
 1386TIP3    H225574   1.660   5.105   4.346 -1.2503  2.1063 -0.9847
 1387TIP3   OH225575   4.202   2.157   2.241 -0.2553  0.7458  0.4563
 1387TIP3    H125576   4.297   2.167   2.240 -0.3538  1.8640 -1.3400
 1387TIP3    H225577   4.169   2.247   2.237 -1.4054  0.3883  1.4623
 1388TIP3   OH225578   2.719   1.587   3.364 -0.1722 -0.1574 -0.0336
 1388TIP3    H125579   2.792   1.554   3.416  2.1672  3.0034 -1.1304
 1388TIP3    H225580   2.684   1.659   3.416 -1.0066 -0.1843 -0.5564
 1389TIP3   OH225581   3.510   5.989   1.191  0.2040 -0.3227 -0.3629
 1389TIP3    H125582   3.487   6.077   1.162  1.6918 -0.1135 -0.9594
 1389TIP3    H225583   3.600   5.997   1.224  0.0622 -1.4496  0.3483
 1390TIP3   OH225584   0.302   5.440   2.390 -0.1907 -0.3601 -0.1995
 1390TIP3    H125585   0.334   5.514   2.337  0.3497  0.2714  0.9898
 1390TIP3    H225586   0.283   5.371   2.326 -2.4036  1.3902 -1.5192
 1391TIP3   OH225587   2.409   1.608  12.609 -0.2238 -1.2203  0.1281
 1391TIP3    H125588   2.426   1.545  12.679  1.6313 -2.0394 -1.0130
 1391TIP3    H225589   2.450   1.689  12.638 -1.0931 -1.0109  0.8061
 1392TIP3   OH225590   4.945   0.313  17.166  0.2401 -0.4902 -0.1464
 1392TIP3    H125591   5.019   0.294  17.224 -0.0599 -0.3344  0.2950
 1392TIP3    H225592   4.933   0.233  17.115  1.0945 -0.3104 -0.6449
 1393TIP3   OH225593   6.752   1.413  14.943  0.2968 -0.0163 -0.2396
 1393TIP3    H125594   6.709   1.409  15.029  1.1119 -1.1319  0.1162
 1393TIP3    H225595   6.845   1.406  14.962  0.3483 -2.7694 -1.4040
 1394TIP3   OH225596   0.843   1.970  12.030 -0.1949 -0.1761 -0.4472
 1394TIP3    H125597   0.803   1.883  12.036  1.8614 -1.0384  0.8380
 1394TIP3    H225598   0.933   1.958  12.058 -0.8181  3.0700  3.4208
 1395TIP3   OH225599   6.356   4.603   1.858 -0.7107  0.3506 -0.1582
 1395TIP3    H125600   6.283   4.665   1.860 -1.2569 -0.3207  1.0243
 1395TIP3    H225601   6.435   4.658   1.855 -1.2231  1.0892 -0.1230
 1396TIP3   OH225602   3.023   3.652   0.731  0.2585 -0.5093  0.3968
 1396TIP3    H125603   3.001   3.743   0.713 -0.9739 -1.1138 -1.1783
 1396TIP3    H225604   3.115   3.644   0.705  0.1713  0.1020 -0.0958
 1397TIP3   OH225605   3.795   4.945   4.806 -0.1896 -0.1336  0.4753
 1397TIP3    H125606   3.702   4.958   4.786  0.3992  2.5592 -0.8146
 1397TIP3    H225607   3.829   4.895   4.732 -0.6577 -1.4614  1.1356
 1398TIP3   OH225608   0.604   3.206  11.321  0.9595  0.0632  0.3982
 1398TIP3    H125609   0.698   3.212  11.302  1.1647 -1.8029  0.7314
 1398TIP3    H225610   0.596   3.129  11.377 -0.7149  0.5256  0.8171
 1399TIP3   OH225611   2.136   5.965   0.216  0.5586 -0.2362  0.3268
 1399TIP3    H125612   2.187   6.002   0.288  2.3821 -0.9951 -0.5404
 1399TIP3    H225613   2.174   6.005   0.137 -0.2551 -0.7407 -0.3200
 1400TIP3   OH225614   3.560   4.630   0.681 -0.2130  0.3468  0.1707
 1400TIP3    H125615   3.564   4.654   0.773 -0.3478 -1.0344  0.5415
 1400TIP3    H225616   3.564   4.535   0.680  2.2468  0.3883 -1.3529
 1401TIP3   OH225617   6.680   3.099  12.675  0.4503 -0.1511  0.6341
 1401TIP3    H125618   6.773   3.104  12.698  0.1402  0.0641  1.8716
 1401TIP3    H225619   6.634   3.113  12.757 -0.6709 -1.9508  0.3543
 1402TIP3   OH225620   1.343   0.345  14.658  0.8739  0.2593  0.0408
 1402TIP3    H125621   1.308   0.433  14.642 -0.0848 -0.3930 -1.5561
 1402TIP3    H225622   1.349   0.338  14.754  0.7654  1.9728  0.1807
 1403TIP3   OH225623   3.396   6.782  13.568 -0.2210 -0.4849  0.1755
 1403TIP3    H125624   3.330   6.826  13.622  0.7950  0.6853  0.4836
 1403TIP3    H225625   3.467   6.762  13.629  0.9494  0.8612 -0.7156
 1404TIP3   OH225626   4.389   1.773  11.960  0.5370  0.1357  0.1881
 1404TIP3    H125627   4.444   1.697  11.943 -1.5852 -1.2501 -0.5183
 1404TIP3    H225628   4.435   1.845  11.916  1.7102 -1.0098 -0.5220
 1405TIP3   OH225629   0.819   2.459   2.496  0.1520 -0.9232 -0.8835
 1405TIP3    H125630   0.843   2.524   2.429  1.1839  0.3640  0.6791
 1405TIP3    H225631   0.742   2.497   2.539  0.2261 -1.1530 -0.5462
 1406TIP3   OH225632   4.216   1.232   3.683 -0.3353 -0.7373  0.1055
 1406TIP3    H125633   4.281   1.214   3.750 -0.5864  2.3248  1.2809
 1406TIP3    H225634   4.135   1.248   3.732 -1.0148 -0.5767 -1.0510
 1407TIP3   OH225635   0.107   1.099   1.496 -0.1288 -0.4452 -0.1811
 1407TIP3    H125636   0.110   1.154   1.575  1.8392 -1.6842  0.6515
 1407TIP3    H225637   0.035   1.135   1.444 -1.6247  0.2676  2.2903
 1408TIP3   OH225638   5.505   1.347  12.066  0.1657 -0.2454 -0.0499
 1408TIP3    H125639   5.502   1.323  11.974 -0.1729  1.1599 -0.4100
 1408TIP3    H225640   5.582   1.403  12.074 -0.7417  0.9867  0.1901
 1409TIP3   OH225641   5.587   0.702   6.362 -0.1800  0.1424 -0.2774
 1409TIP3    H125642   5.651   0.633   6.348  0.2098  0.5166 -0.3372
 1409TIP3    H225643   5.602   0.764   6.291 -0.8254  0.0679 -0.4837
 1410TIP3   OH225644   4.914   0.337   0.917  0.4232  0.4892  0.0745
 1410TIP3    H125645   4.986   0.322   0.978 -0.0343  4.5267  1.7550
 1410TIP3    H225646   4.956   0.365   0.836  0.8284  0.0991  0.1494
 1411TIP3   OH225647   0.805   3.662  14.257  0.2107 -0.2828 -0.7100
 1411TIP3    H125648   0.786   3.568  14.262  2.9081 -0.7750  1.6795
 1411TIP3    H225649   0.723   3.702  14.229 -1.7854 -3.0832  0.9157
 1412TIP3   OH225650   3.057   5.647   2.931 -0.2638 -0.5203 -0.1700
 1412TIP3    H125651   3.052   5.728   2.880  0.4394 -0.0006  0.5527
 1412TIP3    H225652   3.090   5.581   2.870  1.4162  0.2942 -0.1830
 1413TIP3   OH225653   2.408   3.441   2.419  0.6124 -0.3619  0.0540
 1413TIP3    H125654   2.467   3.512   2.448  1.6611 -0.4499 -1.8165
 1413TIP3    H225655   2.425   3.370   2.481  0.6891  0.4730  1.0105
 1414TIP3   OH225656   4.580   6.339  16.431  0.0067 -0.3403  0.3691
 1414TIP3    H125657   4.553   6.248  16.426 -0.3541 -0.2326  0.3090
 1414TIP3    H225658   4.608   6.362  16.342  2.3677 -1.0687  0.8830
 1415TIP3   OH225659   2.688   5.656  12.305  0.8785  0.4161  0.1038
 1415TIP3    H125660   2.779   5.665  12.275  0.0231 -0.5898 -2.9436
 1415TIP3    H225661   2.637   5.703  12.240 -0.8596  0.4631  1.4826
 1416TIP3   OH225662   5.736   2.951   1.730  0.6126  0.0674 -0.1048
 1416TIP3    H125663   5.711   2.871   1.684  1.1587 -0.2087  0.0808
 1416TIP3    H225664   5.770   2.921   1.814  0.6198  0.5089  0.0501
 1417TIP3   OH225665   3.141   2.121  16.103 -0.4893  0.0561  0.3288
 1417TIP3    H125666   3.107   2.032  16.106 -1.7791  0.5152 -0.0471
 1417TIP3    H225667   3.063   2.176  16.108  0.1951  1.1398 -0.6024
 1418TIP3   OH225668   3.812   6.073   0.281 -0.0465 -0.2712 -0.0175
 1418TIP3    H125669   3.813   6.169   0.284 -0.9334 -0.2932  1.4080
 1418TIP3    H225670   3.754   6.052   0.209  2.1762  0.2570 -2.0295
 1419TIP3   OH225671   4.374   6.628   2.459  0.1039 -0.1213  0.1792
 1419TIP3    H125672   4.414   6.674   2.533 -2.7913  1.5878  0.7834
 1419TIP3    H225673   4.405   6.675   2.382  1.0301 -0.2524  0.4635
 1420TIP3   OH225674   5.654   1.637  16.924  0.2998  0.3459  0.0883
 1420TIP3    H125675   5.654   1.718  16.874  3.2553  1.0853  1.1941
 1420TIP3    H225676   5.570   1.637  16.970 -0.1708  2.2453 -0.7320
 1421TIP3   OH225677   5.362   0.126   0.213 -0.3390  0.2111  0.2047
 1421TIP3    H125678   5.413   0.195   0.256 -0.8866  1.2100 -0.7056
 1421TIP3    H225679   5.380   0.047   0.264  2.2038  0.4999 -0.1475
 1422TIP3   OH225680   3.158   4.448  12.630 -0.2541 -0.0277 -0.3709
 1422TIP3    H125681   3.093   4.394  12.584 -2.6322  0.7613  1.9266
 1422TIP3    H225682   3.182   4.515  12.566 -0.1740 -1.4918 -1.9293
 1423TIP3   OH225683   0.587   1.723  14.651  0.2606  0.0964  0.4966
 1423TIP3    H125684   0.656   1.669  14.690 -0.7901 -2.2916 -0.9036
 1423TIP3    H225685   0.592   1.806  14.699  2.6768 -0.7967  1.8715
 1424TIP3   OH225686   1.515   3.877   4.105  0.0929  0.0555 -0.2873
 1424TIP3    H125687   1.471   3.943   4.158 -1.7669  0.3477 -2.1257
 1424TIP3    H225688   1.608   3.897   4.113 -0.3295  1.6347  0.8170
 1425TIP3   OH225689   4.977   3.688  13.259 -0.3521  0.8581 -0.4344
 1425TIP3    H125690   4.964   3.779  13.286 -2.3035  0.7435 -0.9608
 1425TIP3    H225691   4.938   3.636  13.329 -1.1519  0.4644 -1.1766
 1426TIP3   OH225692   0.616   3.760  16.484  0.9312  0.0386  0.0847
 1426TIP3    H125693   0.645   3.672  16.507  1.8110  0.0849 -0.8022
 1426TIP3    H225694   0.692   3.799  16.441  0.1728  0.8354 -0.5402
 1427TIP3   OH225695   6.298   1.496  16.301 -0.7235  0.0656  0.2029
 1427TIP3    H125696   6.328   1.415  16.260  0.9206  0.5780  0.3800
 1427TIP3    H225697   6.218   1.519  16.253 -1.2896 -1.7395  0.2616
 1428TIP3   OH225698   4.322   1.426  14.078  0.0582  0.2176  0.3888
 1428TIP3    H125699   4.303   1.513  14.043 -4.0243 -0.6396  0.1876
 1428TIP3    H225700   4.345   1.374  14.001 -0.0245  0.4984  0.1726
 1429TIP3   OH225701   4.336   1.497   6.488  0.5366 -0.7583 -0.0785
 1429TIP3    H125702   4.414   1.465   6.532  0.2683 -1.7050 -0.2774
 1429TIP3    H225703   4.310   1.574   6.538  2.4426  0.4489 -0.8986
 1430TIP3   OH225704   1.513   1.887   6.165 -0.0171 -0.7299 -0.8326
 1430TIP3    H125705   1.481   1.974   6.185  1.4297  0.0972 -1.9662
 1430TIP3    H225706   1.454   1.828   6.212  0.3762  0.9125  1.8534
 1431TIP3   OH225707   3.221   6.061   4.865  0.4977 -0.1345  0.4021
 1431TIP3    H125708   3.314   6.069   4.846  0.8205 -0.1580  1.9004
 1431TIP3    H225709   3.215   5.987   4.925 -0.7088 -1.3155 -1.1035
 1432TIP3   OH225710   0.214   6.277  15.877  0.0398 -0.1787  0.1963
 1432TIP3    H125711   0.190   6.196  15.833 -2.9537  1.3449 -1.1349
 1432TIP3    H225712   0.238   6.337  15.806 -1.7819  1.3405  0.8278
 1433TIP3   OH225713   3.026   4.777  14.090  0.3683 -0.3017 -0.2413
 1433TIP3    H125714   2.939   4.737  14.084 -0.5225  1.7886 -1.6937
 1433TIP3    H225715   3.047   4.772  14.184 -0.5594 -2.3054 -0.0947
 1434TIP3   OH225716   4.644   1.402  15.465  0.0678  0.4896 -0.3039
 1434TIP3    H125717   4.599   1.437  15.388 -2.8981 -0.3100  1.0177
 1434TIP3    H225718   4.645   1.475  15.527 -0.6594  0.1110  0.1679
 1435TIP3   OH225719   0.267   5.054  12.981 -0.2756  0.1797  0.5910
 1435TIP3    H125720   0.286   5.093  13.066 -0.6549  1.0458  0.2825
 1435TIP3    H225721   0.309   5.113  12.918 -0.0582 -0.4181  0.1679
 1436TIP3   OH225722   0.679   3.498   6.546 -0.1018  0.4899  0.2007
 1436TIP3    H125723   0.730   3.473   6.623  0.2472 -0.6252 -0.3837
 1436TIP3    H225724   0.589   3.503   6.578 -0.3799 -2.7471  0.1006
 1437TIP3   OH225725   1.136   4.137  16.552  0.0964 -1.2134 -0.1945
 1437TIP3    H125726   1.044   4.116  16.535 -0.5578  1.3934 -0.0414
 1437TIP3    H225727   1.151   4.220  16.506  1.3362  0.2728  2.7392
 1438TIP3   OH225728   2.280   3.635   5.791 -0.5604  0.3678  0.0875
 1438TIP3    H125729   2.327   3.715   5.768  0.0737 -0.2424 -0.7924
 1438TIP3    H225730   2.347   3.566   5.788 -1.5903 -0.5943 -1.6555
 1439TIP3   OH225731   0.841   2.738  15.781 -0.5286 -0.3058  0.3879
 1439TIP3    H125732   0.931   2.744  15.813 -0.4547  0.2127  0.1014
 1439TIP3    H225733   0.794   2.804  15.832  0.0167  2.0115 -1.9496
 1440TIP3   OH225734   1.450   5.497  15.530  0.1879 -0.3005  0.1573
 1440TIP3    H125735   1.460   5.415  15.482 -0.8090 -1.1383  1.3454
 1440TIP3    H225736   1.408   5.472  15.613 -0.4908  1.4441  0.3742
 1441TIP3   OH225737   2.887   2.712   0.630  0.5769 -0.3354  0.1669
 1441TIP3    H125738   2.794   2.731   0.619  1.0796  0.3158 -3.5532
 1441TIP3    H225739   2.891   2.618   0.648 -0.6835 -0.7907 -1.7951
 1442TIP3   OH225740   4.124   5.724   0.816  0.3447 -0.5140 -0.0466
 1442TIP3    H125741   4.215   5.751   0.799  0.9454 -3.2188 -1.2747
 1442TIP3    H225742   4.123   5.630   0.800 -2.5118 -0.6690  0.7858
 1443TIP3   OH225743   4.232   2.407   3.982  0.6742  0.4812  0.2507
 1443TIP3    H125744   4.207   2.494   3.950  0.8822 -0.0191 -1.3593
 1443TIP3    H225745   4.191   2.400   4.068 -0.2750  1.7354 -0.0759
 1444TIP3   OH225746   4.152   4.360   2.567 -0.0061 -0.3656  0.2424
 1444TIP3    H125747   4.194   4.334   2.650  2.8601  0.8984 -0.7444
 1444TIP3    H225748   4.222   4.354   2.502 -0.7018  4.0321 -1.0893
 1445TIP3   OH225749   5.613   2.617   3.243  0.0540 -0.1086 -0.2451
 1445TIP3    H125750   5.709   2.616   3.235  0.1312 -0.9063  0.6920
 1445TIP3    H225751   5.587   2.703   3.210  1.0629 -0.0240 -0.8490
 1446TIP3   OH225752   4.027   5.418  13.851 -0.2455  0.3714 -0.0709
 1446TIP3    H125753   4.029   5.506  13.889 -0.9469  0.6956 -0.7736
 1446TIP3    H225754   4.059   5.429  13.762 -0.6116 -0.0360 -0.2571
 1447TIP3   OH225755   2.414   6.412  13.927  0.0274 -0.5248  0.2799
 1447TIP3    H125756   2.507   6.418  13.903  0.0199  2.2945  0.7561
 1447TIP3    H225757   2.405   6.325  13.964  2.3800 -1.0475 -0.2596
 1448TIP3   OH225758   5.188   3.631   2.910 -0.1736 -0.3318  0.1661
 1448TIP3    H125759   5.230   3.716   2.919 -0.7272 -0.1211  0.7892
 1448TIP3    H225760   5.098   3.645   2.941 -0.4333 -1.0021 -0.2679
 1449TIP3   OH225761   5.703   6.365   1.118  0.5130  0.0142 -0.4965
 1449TIP3    H125762   5.774   6.402   1.171  2.5348 -0.9689 -2.4133
 1449TIP3    H225763   5.705   6.271   1.138  1.0611 -0.3111 -1.9983
 1450TIP3   OH225764   2.489   4.410   3.852  0.1825 -0.5138  0.0082
 1450TIP3    H125765   2.485   4.350   3.927 -1.6159 -0.2276  0.1737
 1450TIP3    H225766   2.462   4.495   3.887 -2.4568 -0.7560 -1.2994
 1451TIP3   OH225767   5.453   3.298  14.743 -0.2653  0.2724  0.5442
 1451TIP3    H125768   5.367   3.334  14.765 -1.0839 -0.8976 -0.6257
 1451TIP3    H225769   5.454   3.211  14.783  0.6445  0.5378  1.1154
 1452TIP3   OH225770   6.395   5.763  12.499  0.0926  0.3173 -0.2267
 1452TIP3    H125771   6.360   5.740  12.413 -2.4786 -0.4113  0.9726
 1452TIP3    H225772   6.405   5.858  12.496 -1.2055  0.4490 -0.9144
 1453TIP3   OH225773   5.351   0.078   1.538 -0.2423  0.3891  0.8183
 1453TIP3    H125774   5.302  -0.001   1.514 -1.7422  1.7064 -0.5777
 1453TIP3    H225775   5.351   0.131   1.458  3.1714  0.5951  0.9106
 1454TIP3   OH225776   4.879   1.813  13.906  0.0917  0.0513 -0.6247
 1454TIP3    H125777   4.788   1.834  13.886  0.3430 -0.5087 -2.4973
 1454TIP3    H225778   4.930   1.860  13.839  1.0583 -0.9325 -0.6012
 1455TIP3   OH225779   2.791   3.142  14.344 -0.7034  0.4584  0.6860
 1455TIP3    H125780   2.752   3.227  14.362 -2.7938 -0.4546  0.7216
 1455TIP3    H225781   2.775   3.127  14.251  0.5820  0.5391  0.4408
 1456TIP3   OH225782   2.137   6.207  13.895 -0.5202 -0.1330 -0.6233
 1456TIP3    H125783   2.191   6.262  13.952 -0.4397  0.7723 -1.5516
 1456TIP3    H225784   2.052   6.205  13.937  0.0252 -0.9402  0.4590
 1457TIP3   OH225785   0.843   3.112  15.996  0.1104 -0.0471  0.6035
 1457TIP3    H125786   0.801   3.052  15.934 -0.3973  0.0324  0.8643
 1457TIP3    H225787   0.936   3.090  15.992  0.4681  1.6641 -2.1146
 1458TIP3   OH225788   1.603   5.520   2.022  0.1889  0.2748  0.0011
 1458TIP3    H125789   1.607   5.600   1.971  1.2502 -1.5264 -2.8501
 1458TIP3    H225790   1.637   5.452   1.964 -2.7058 -2.6602  1.5265
 1459TIP3   OH225791   1.165   1.719   3.257  0.1715 -0.1033  0.3087
 1459TIP3    H125792   1.149   1.770   3.178  0.7141  1.1193  0.9713
 1459TIP3    H225793   1.086   1.667   3.268 -0.0320 -0.0498 -0.8656
 1460TIP3   OH225794   2.417   3.403   4.559  0.1122  0.1927  0.0003
 1460TIP3    H125795   2.375   3.485   4.582 -0.0010  0.0651  0.2495
 1460TIP3    H225796   2.405   3.395   4.464  0.1924  0.5011 -0.0348
 1461TIP3   OH225797   3.046   1.886  10.873  0.3894 -0.3538  0.7053
 1461TIP3    H125798   3.117   1.919  10.817  0.5818 -1.9399 -0.0083
 1461TIP3    H225799   3.014   1.808  10.828 -1.0306 -0.3348  1.6328
 1462TIP3   OH225800   3.781   2.566   2.439 -0.0258 -0.0427 -0.2883
 1462TIP3    H125801   3.741   2.509   2.373 -2.0098  0.6857  0.2547
 1462TIP3    H225802   3.736   2.650   2.429  1.2969  0.7604  0.4310
 1463TIP3   OH225803   2.223   3.904   2.753 -0.5780  0.3717 -0.0952
 1463TIP3    H125804   2.161   3.839   2.787  0.2493  0.1104  0.9241
 1463TIP3    H225805   2.309   3.863   2.762 -0.0383  1.6017  0.5978
 1464TIP3   OH225806   1.986   0.625  15.361 -0.8157  0.0533  0.3368
 1464TIP3    H125807   1.914   0.629  15.424 -2.1072 -0.3238 -1.0674
 1464TIP3    H225808   1.949   0.579  15.285  1.3855 -1.5276  0.1732
 1465TIP3   OH225809   6.333   5.616  15.021 -0.0314 -0.6775 -0.3416
 1465TIP3    H125810   6.299   5.559  14.952 -0.3928 -0.1909 -0.5697
 1465TIP3    H225811   6.256   5.660  15.055  0.5063  1.4624 -1.7785
 1466TIP3   OH225812   2.566   2.378  12.461 -0.6365 -0.3383 -0.3719
 1466TIP3    H125813   2.478   2.390  12.426 -0.6838  1.9787  0.4166
 1466TIP3    H225814   2.618   2.350  12.385 -1.5749  0.5820 -1.3752
 1467TIP3   OH225815   5.627   5.624  13.732  0.3863  0.0497 -0.6447
 1467TIP3    H125816   5.614   5.560  13.802  0.1330  1.1940  0.3767
 1467TIP3    H225817   5.680   5.579  13.667 -1.2988 -1.7959 -0.7715
 1468TIP3   OH225818   6.453   1.674  16.495 -0.3784  1.2737 -0.0397
 1468TIP3    H125819   6.519   1.681  16.426 -2.6960  1.7427 -2.2900
 1468TIP3    H225820   6.404   1.594  16.474 -0.1992  0.6405  1.8972
 1469TIP3   OH225821   6.587   3.792   3.348  0.6259 -0.0964  0.0265
 1469TIP3    H125822   6.536   3.722   3.309  0.2098 -0.1188  0.6167
 1469TIP3    H225823   6.645   3.821   3.277  1.2077 -1.4189 -0.0541
 1470TIP3   OH225824   2.020   0.145   0.581 -0.7303  0.2061 -0.1855
 1470TIP3    H125825   1.980   0.228   0.555 -1.0053  0.0673 -0.2008
 1470TIP3    H225826   2.038   0.157   0.675  0.6806  0.8771 -0.5232
 1471TIP3   OH225827   3.579   5.567   3.722  0.4102  0.7850 -0.2753
 1471TIP3    H125828   3.558   5.473   3.721  2.0268  0.4144 -1.0826
 1471TIP3    H225829   3.540   5.601   3.641 -0.2619  0.8446  0.0659
 1472TIP3   OH225830   4.719   3.598   1.675  0.2781  0.4925 -0.3838
 1472TIP3    H125831   4.677   3.646   1.747 -1.7766 -0.7182 -0.7407
 1472TIP3    H225832   4.674   3.513   1.673  2.2962 -0.6126 -1.2382
 1473TIP3   OH225833   0.134   5.208   4.737 -0.0457  0.2028  0.1313
 1473TIP3    H125834   0.132   5.226   4.643 -2.5602 -0.7627 -0.0442
 1473TIP3    H225835   0.138   5.113   4.744  0.7995  0.2944  1.0067
 1474TIP3   OH225836   3.514   0.985   1.007 -0.5051 -0.3180  0.0019
 1474TIP3    H125837   3.492   0.914   1.067  1.4414  0.1726  1.3584
 1474TIP3    H225838   3.544   0.940   0.928 -0.7291 -0.9936  0.2923
 1475TIP3   OH225839   6.352   0.184   4.439  0.0833 -0.2764 -0.0777
 1475TIP3    H125840   6.430   0.135   4.414 -0.2933 -0.7721 -0.2676
 1475TIP3    H225841   6.313   0.134   4.510 -0.7282 -0.6664 -0.7938
 1476TIP3   OH225842   3.009   4.319  13.806  0.1965  0.5658  0.1383
 1476TIP3    H125843   2.921   4.322  13.769  0.4123 -0.2206 -0.4586
 1476TIP3    H225844   3.035   4.411  13.814  0.0279  0.7663 -1.4172
 1477TIP3   OH225845   0.801   4.120  13.052 -0.2522  0.3921 -0.0684
 1477TIP3    H125846   0.763   4.068  13.123  0.2305 -0.9807 -0.7835
 1477TIP3    H225847   0.732   4.182  13.029 -0.4403  0.8069  1.5445
 1478TIP3   OH225848   4.562   4.005   3.059 -0.7502 -0.0810  0.2526
 1478TIP3    H125849   4.561   3.998   2.963 -3.0749 -2.3676  0.3818
 1478TIP3    H225850   4.576   4.098   3.076  1.7682  0.0752 -2.2671
 1479TIP3   OH225851   6.673   3.421  13.917  0.0655  0.3319 -0.1374
 1479TIP3    H125852   6.612   3.489  13.889  0.3366  0.2988 -0.8167
 1479TIP3    H225853   6.648   3.402  14.007 -0.2335  1.0887 -0.0569
 1480TIP3   OH225854   6.245   1.539  12.993  0.0110 -0.1484 -0.6034
 1480TIP3    H125855   6.196   1.467  12.953 -1.4488  0.3382  0.2861
 1480TIP3    H225856   6.336   1.518  12.975 -0.4780 -1.4095 -1.7271
 1481TIP3   OH225857   1.600   0.915  12.000  0.5539  0.6703  0.3702
 1481TIP3    H125858   1.637   0.995  12.038  0.1893  1.0122  0.0021
 1481TIP3    H225859   1.516   0.941  11.964 -0.1714 -0.1664  1.4307
 1482TIP3   OH225860   3.813   2.502  11.630 -0.4602  0.0133  0.3527
 1482TIP3    H125861   3.725   2.473  11.606 -0.3201  0.4965 -0.7210
 1482TIP3    H225862   3.863   2.500  11.549  0.7332 -0.9813  1.0860
 1483TIP3   OH225863   1.564   3.818   2.026  0.2660  0.0361 -0.3728
 1483TIP3    H125864   1.617   3.810   2.105  0.4892  0.2596 -0.4999
 1483TIP3    H225865   1.561   3.729   1.990 -1.4077 -0.4451  0.8977
 1484TIP3   OH225866   1.533   6.678  17.054 -0.5799  0.8796 -0.1623
 1484TIP3    H125867   1.514   6.768  17.080 -0.0054  0.3832  2.0041
 1484TIP3    H225868   1.496   6.624  17.124  0.0556 -0.5368 -0.8955
 1485TIP3   OH225869   0.051   4.625  16.008 -0.3000 -0.2373 -0.1346
 1485TIP3    H125870   0.054   4.544  15.956 -1.1574  0.5857 -1.4948
 1485TIP3    H225871   0.123   4.617  16.070 -0.1463 -1.8807 -0.5108
 1486TIP3   OH225872   3.503   6.775  16.079  0.1894 -0.1645 -0.2400
 1486TIP3    H125873   3.586   6.734  16.056 -0.1850 -1.4545  0.6133
 1486TIP3    H225874   3.480   6.828  16.002  2.0258  0.6091 -0.2701
 1487TIP3   OH225875   0.126   3.413  13.480 -0.0309 -0.2529 -0.1546
 1487TIP3    H125876   0.066   3.353  13.524 -1.3170  0.1820 -1.3022
 1487TIP3    H225877   0.164   3.361  13.409  0.5784 -0.3642  0.2401
 1488TIP3   OH225878   0.650   0.035   4.491  0.2114  0.0802 -0.8019
 1488TIP3    H125879   0.714   0.050   4.422  1.2336  0.2500  0.1606
 1488TIP3    H225880   0.583  -0.021   4.451  0.3619  0.8510 -2.1550
 1489TIP3   OH225881   0.960   3.497   2.082 -0.7032  0.8743  0.5302
 1489TIP3    H125882   0.901   3.440   2.131 -0.1993 -0.0235  0.1074
 1489TIP3    H225883   0.928   3.491   1.991  0.7316 -0.5314  0.1008
 1490TIP3   OH225884   5.505   2.829  16.472 -0.2194 -0.1769 -0.0010
 1490TIP3    H125885   5.533   2.919  16.456 -0.5854 -0.1624 -0.5928
 1490TIP3    H225886   5.410   2.835  16.482  0.0509 -0.0952  2.8916
 1491TIP3   OH225887   6.427   2.159  12.555  0.3835 -0.3077 -0.0591
 1491TIP3    H125888   6.404   2.181  12.465 -0.0327 -0.5419 -0.0158
 1491TIP3    H225889   6.350   2.112  12.588  1.6696 -2.8411 -0.5198
 1492TIP3   OH225890   6.521   1.081  11.862 -0.2339 -0.0758  0.3949
 1492TIP3    H125891   6.578   1.005  11.851 -2.2484 -1.2159 -2.6422
 1492TIP3    H225892   6.460   1.056  11.931  1.7732  0.4831  2.4303
 1493TIP3   OH225893   0.719   3.486   4.241  0.3162  0.4309  0.3856
 1493TIP3    H125894   0.799   3.456   4.197 -0.4836  0.1447 -0.9044
 1493TIP3    H225895   0.655   3.498   4.170 -0.2939  2.2791  1.2080
 1494TIP3   OH225896   3.663   1.222  14.686 -0.0487 -0.0220  0.3018
 1494TIP3    H125897   3.596   1.256  14.744  0.9060  0.5173  1.1039
 1494TIP3    H225898   3.714   1.298  14.661  0.3365 -0.4431 -0.2049
 1495TIP3   OH225899   6.259   1.168   1.144  0.2046  0.5948  0.4529
 1495TIP3    H125900   6.166   1.153   1.123  0.4997  0.0365 -0.4886
 1495TIP3    H225901   6.292   1.082   1.170  1.3276 -0.0060 -2.6920
 1496TIP3   OH225902   0.949   5.660  16.376 -0.4204 -0.1758  0.0237
 1496TIP3    H125903   1.042   5.670  16.396 -0.5528 -1.2479  1.2193
 1496TIP3    H225904   0.904   5.694  16.453 -0.9933 -1.1820  0.1332
 1497TIP3   OH225905   2.740   2.543   6.738 -0.0059 -0.1283 -0.6172
 1497TIP3    H125906   2.786   2.462   6.761 -0.7471 -0.3675  0.0301
 1497TIP3    H225907   2.648   2.518   6.734 -0.2164  0.6383 -0.6266
 1498TIP3   OH225908   2.899   6.006   5.901 -0.0041  1.0158  0.2162
 1498TIP3    H125909   2.830   5.968   5.956  0.0497 -1.3471 -1.2535
 1498TIP3    H225910   2.978   6.000   5.955 -0.1544 -0.2721  0.3045
 1499TIP3   OH225911   3.150   4.854  16.163 -0.1786  0.1082  1.1749
 1499TIP3    H125912   3.223   4.875  16.221  0.4774  1.6139 -0.1648
 1499TIP3    H225913   3.161   4.761  16.143  2.0547  0.5770  0.0789
 1500TIP3   OH225914   1.333   4.565   0.362 -0.3328 -0.2351 -0.0479
 1500TIP3    H125915   1.269   4.559   0.433  0.4831  0.7642  0.7775
 1500TIP3    H225916   1.280   4.584   0.284 -0.8301  3.2881  1.0841
 1501TIP3   OH225917   1.748   6.342   1.127 -0.3389  0.1775 -0.2914
 1501TIP3    H125918   1.747   6.255   1.087 -2.3344  0.3617 -0.6842
 1501TIP3    H225919   1.698   6.397   1.067  0.5909  1.5355  0.1407
 1502TIP3   OH225920   5.618   6.779  12.352  0.2515  0.6725  0.1667
 1502TIP3    H125921   5.588   6.731  12.275  1.6847 -1.0544  0.6658
 1502TIP3    H225922   5.688   6.836  12.320  1.0126 -0.2231  0.2244
 1503TIP3   OH225923   5.863   1.836  16.535 -0.2945 -0.5589  0.0849
 1503TIP3    H125924   5.899   1.805  16.452 -1.1398 -1.0179 -0.1271
 1503TIP3    H225925   5.903   1.921  16.550 -0.2511 -0.4148 -0.8695
 1504TIP3   OH225926   1.538   1.636   4.696 -0.0390 -0.0011 -0.3979
 1504TIP3    H125927   1.517   1.705   4.759  0.8402 -1.4468  1.5307
 1504TIP3    H225928   1.600   1.677   4.636 -0.1895  1.1341  0.2010
 1505TIP3   OH225929   0.875   4.602   5.854 -0.0213  0.2673 -0.0097
 1505TIP3    H125930   0.970   4.601   5.847 -0.0728 -1.1202 -0.7603
 1505TIP3    H225931   0.858   4.603   5.948  0.7515 -0.6136  0.1529
 1506TIP3   OH225932   4.317   6.013  11.905 -0.0853 -0.4613 -0.1061
 1506TIP3    H125933   4.291   6.105  11.915  0.0813 -0.3263 -0.8540
 1506TIP3    H225934   4.395   6.004  11.959  1.1919  0.4167 -1.7756
 1507TIP3   OH225935   4.753   5.634  12.183 -0.0835  0.1094  0.5667
 1507TIP3    H125936   4.818   5.596  12.123 -0.0317  1.4310 -0.2188
 1507TIP3    H225937   4.715   5.707  12.134 -2.1179 -0.6001  1.0558
 1508TIP3   OH225938   3.008   3.469   3.828 -0.4459  0.5398  0.0215
 1508TIP3    H125939   3.068   3.473   3.902 -0.0320 -0.3845 -0.2632
 1508TIP3    H225940   2.924   3.444   3.867 -0.0556 -0.6845  0.0797
 1509TIP3   OH225941   0.004   0.516   3.271  0.5184 -0.2255 -0.0300
 1509TIP3    H125942   0.034   0.453   3.206 -0.1427 -1.7205  1.0972
 1509TIP3    H225943  -0.063   0.567   3.226  0.9847 -0.3870 -0.9171
 1510TIP3   OH225944   3.276   6.508  10.722  0.2586  0.2076  0.7365
 1510TIP3    H125945   3.340   6.487  10.789  1.2159 -3.0109 -1.0687
 1510TIP3    H225946   3.192   6.479  10.758  0.4769  0.3677  1.3628
 1511TIP3   OH225947   4.641   0.502   5.340 -0.0113 -0.3230 -0.1780
 1511TIP3    H125948   4.637   0.425   5.283 -2.2068  1.5483 -2.6908
 1511TIP3    H225949   4.727   0.540   5.322  0.5640 -1.4429  0.1179
 1512TIP3   OH225950   5.278   3.047  15.283 -0.1570 -0.5308 -0.2178
 1512TIP3    H125951   5.282   3.142  15.299  0.3606 -0.4001 -1.0805
 1512TIP3    H225952   5.264   3.009  15.369  2.7430  0.1413  0.6183
 1513TIP3   OH225953   3.428   1.537   0.795 -0.7798  0.2831  0.5072
 1513TIP3    H125954   3.333   1.536   0.801 -0.8693 -0.0486 -0.7961
 1513TIP3    H225955   3.455   1.451   0.825 -0.8664  0.5262  1.2786
 1514TIP3   OH225956   5.743   4.744   2.675 -0.0894  0.0864 -0.0333
 1514TIP3    H125957   5.695   4.786   2.747 -0.4837 -0.1941 -0.1353
 1514TIP3    H225958   5.807   4.688   2.719 -1.4788 -1.4076  0.1032
 1515TIP3   OH225959   5.986   1.610  13.782  0.0366 -0.0488  0.0873
 1515TIP3    H125960   6.072   1.571  13.765 -0.0380 -0.6483  1.0293
 1515TIP3    H225961   6.005   1.693  13.826  0.1710  0.5419 -1.0711
 1516TIP3   OH225962   2.956   2.969   1.250  0.0412  0.3577  0.1838
 1516TIP3    H125963   2.918   2.896   1.300  1.9205 -1.8244 -1.4514
 1516TIP3    H225964   2.881   3.014   1.212 -1.1110 -1.5002  0.1877
 1517TIP3   OH225965   1.228   1.811   1.358 -0.1728  0.0509 -0.1652
 1517TIP3    H125966   1.256   1.900   1.382  0.0764  0.1174 -0.6996
 1517TIP3    H225967   1.259   1.799   1.269 -1.1231 -0.1958 -0.4664
 1518TIP3   OH225968   4.658   6.169  11.126 -0.0612  0.3549 -0.1752
 1518TIP3    H125969   4.713   6.134  11.196  0.0893  0.0887 -0.4231
 1518TIP3    H225970   4.611   6.243  11.166 -1.3572 -0.9238  0.7260
 1519TIP3   OH225971   2.119   5.146  14.716  0.4636 -0.2657 -0.2414
 1519TIP3    H125972   2.063   5.185  14.650 -0.5169 -1.9002 -0.3833
 1519TIP3    H225973   2.081   5.060  14.734  1.1428 -0.1743  1.8839
 1520TIP3   OH225974   5.849   6.034  13.544  0.4715 -0.4502  0.2111
 1520TIP3    H125975   5.757   6.037  13.570  0.2237 -0.7558 -0.6164
 1520TIP3    H225976   5.847   6.012  13.451  1.4395 -2.0681  0.5670
 1521TIP3   OH225977   4.133   3.331   3.090  0.7421 -0.3093  0.1416
 1521TIP3    H125978   4.196   3.259   3.079  1.1887 -0.1269  1.4457
 1521TIP3    H225979   4.107   3.326   3.182  0.2856  0.8116  0.0744
 1522TIP3   OH225980   3.294   2.445   0.687 -0.4867  0.7175 -0.4318
 1522TIP3    H125981   3.279   2.351   0.692 -0.0832  0.5748 -1.9410
 1522TIP3    H225982   3.240   2.475   0.615  1.2813  1.2482 -1.5586
 1523TIP3   OH225983   0.762   6.330  12.035 -0.2528  0.2792 -0.3941
 1523TIP3    H125984   0.844   6.348  11.989 -0.3204  2.2877  0.2332
 1523TIP3    H225985   0.779   6.356  12.126 -1.5091  0.5520 -0.2296
 1524TIP3   OH225986   6.189   6.429  11.615  0.4895  0.5212  0.0270
 1524TIP3    H125987   6.237   6.506  11.644 -1.8684  2.6155 -1.4273
 1524TIP3    H225988   6.155   6.452  11.528  1.2842 -2.8643 -1.2681
 1525TIP3   OH225989   3.209   1.693   4.940 -0.0084 -0.5509  0.0712
 1525TIP3    H125990   3.243   1.767   4.991 -2.3285  0.5662  0.0468
 1525TIP3    H225991   3.185   1.731   4.856  0.9057 -1.7973 -0.7604
 1526TIP3   OH225992   4.107   4.559   5.004 -0.1196 -0.0311  0.3913
 1526TIP3    H125993   4.023   4.556   4.958 -0.9101 -0.3233  1.8003
 1526TIP3    H225994   4.162   4.616   4.951 -1.4864  0.8319 -0.1301
 1527TIP3   OH225995   4.407   3.035   2.763 -0.2870 -0.3778  0.0622
 1527TIP3    H125996   4.430   3.127   2.776 -1.2396  0.4520 -3.5835
 1527TIP3    H225997   4.491   2.990   2.752  0.1215  0.1939  0.7540
 1528TIP3   OH225998   3.157   4.105  16.713  0.2031  0.0786 -0.2349
 1528TIP3    H125999   3.217   4.126  16.641  1.7493  1.3662  1.3800
 1528TIP3    H226000   3.085   4.168  16.703  1.2823  1.4384  0.3446
 1529TIP3   OH226001   0.965   3.267  12.145  0.2044  0.5440  0.0411
 1529TIP3    H126002   1.031   3.260  12.215 -0.3715 -1.6918  0.4034
 1529TIP3    H226003   0.976   3.356  12.111  3.2409  0.3186  0.2538
 1530TIP3   OH226004   1.180   0.192   5.526  0.9404 -0.0886  0.4107
 1530TIP3    H126005   1.257   0.190   5.469  0.7551  0.1498  0.1525
 1530TIP3    H226006   1.194   0.267   5.583 -0.3317  1.5311 -1.3588
 1531TIP3   OH226007   3.705   0.767  11.038 -0.3033  0.3438 -0.1449
 1531TIP3    H126008   3.612   0.749  11.027 -0.5958  1.5654  0.2372
 1531TIP3    H226009   3.728   0.825  10.966  0.3633 -0.6026 -0.7126
 1532TIP3   OH226010   6.020   4.937  12.447  0.0567 -0.1242 -0.5169
 1532TIP3    H126011   6.114   4.921  12.440  0.0868 -0.8158  1.1681
 1532TIP3    H226012   5.984   4.853  12.476 -1.0407  0.2291 -0.8490
 1533TIP3   OH226013   6.462   0.325   3.417 -0.3438 -0.2784 -0.0759
 1533TIP3    H126014   6.450   0.420   3.418  0.1044 -0.2240  1.2038
 1533TIP3    H226015   6.427   0.296   3.501  2.1466 -0.9021  0.7851
 1534TIP3   OH226016   1.385   5.877   4.249  0.2312  0.1481 -0.5449
 1534TIP3    H126017   1.408   5.796   4.203 -0.9217 -0.8332  0.5927
 1534TIP3    H226018   1.299   5.860   4.286  1.1524  0.8896  2.0503
 1535TIP3   OH226019   3.138   3.832  13.253 -0.0288 -0.0125 -0.1573
 1535TIP3    H126020   3.091   3.748  13.250 -1.8729  0.9487  0.7200
 1535TIP3    H226021   3.068   3.898  13.247  1.4209  1.4633 -1.1031
 1536TIP3   OH226022   4.670   1.809  15.908 -0.1602  0.2029  0.8347
 1536TIP3    H126023   4.609   1.747  15.947 -1.4055  0.3860 -0.7406
 1536TIP3    H226024   4.755   1.787  15.947  0.0522 -4.5034 -1.7791
 1537TIP3   OH226025   0.767   0.174   3.173  0.4908  0.5971  0.2580
 1537TIP3    H126026   0.719   0.117   3.233  0.8815  0.1230  0.1235
 1537TIP3    H226027   0.850   0.129   3.158  0.1574  0.4201 -1.1076
 1538TIP3   OH226028   5.573   4.130  14.266  0.1061 -0.4391 -0.7414
 1538TIP3    H126029   5.523   4.058  14.304  1.5769  0.5715  3.3591
 1538TIP3    H226030   5.664   4.098  14.267  0.6219  1.0394  0.0792
 1539TIP3   OH226031   6.018   5.464   1.956 -0.0751 -0.7242  0.8652
 1539TIP3    H126032   6.014   5.424   1.869  0.7435  0.0591  0.4542
 1539TIP3    H226033   6.108   5.496   1.963 -0.2939 -0.2962  1.7909
 1540TIP3   OH226034   1.315   2.712   0.839  0.1352  0.2894  0.3145
 1540TIP3    H126035   1.376   2.782   0.863  0.6575 -0.3494  0.8914
 1540TIP3    H226036   1.325   2.647   0.909 -1.5181  0.3548  0.6374
 1541TIP3   OH226037   1.759   5.218  14.938  0.0993  0.1011  0.0597
 1541TIP3    H126038   1.841   5.206  14.889  0.8392  1.3532  0.9769
 1541TIP3    H226039   1.767   5.304  14.978 -1.4667  0.0219  0.5656
 1542TIP3   OH226040   1.576   4.057  10.034 -0.0287 -0.2604  0.3667
 1542TIP3    H126041   1.525   4.025   9.960  1.2651 -2.0407  0.2186
 1542TIP3    H226042   1.552   4.000  10.107 -1.8333  1.9311  1.5496
 1543TIP3   OH226043   2.934   3.912  16.739  0.2756 -0.2481 -0.3099
 1543TIP3    H126044   2.977   3.842  16.689  0.3068 -1.2323  1.0729
 1543TIP3    H226045   3.003   3.975  16.757  0.4883 -0.3935 -0.6188
 1544TIP3   OH226046   5.885   4.628   3.391  0.0254 -0.0940 -0.0645
 1544TIP3    H126047   5.844   4.579   3.462  1.1486 -1.1310 -0.1077
 1544TIP3    H226048   5.936   4.696   3.436  1.0272 -0.9747  0.1579
 1545TIP3   OH226049   1.805   3.535   3.336  0.1740  0.2037  0.2572
 1545TIP3    H126050   1.890   3.549   3.294  0.1991 -1.7314 -0.3567
 1545TIP3    H226051   1.798   3.607   3.400  1.9048  0.8394 -0.2483
 1546TIP3   OH226052   6.556   4.983  11.759 -0.0342  0.4333 -0.0649
 1546TIP3    H126053   6.561   5.002  11.665  0.1241  1.6649  0.1810
 1546TIP3    H226054   6.485   5.038  11.791 -0.0197  0.0942  0.5528
 1547TIP3   OH226055   3.269   5.832   1.540  0.1722 -0.0543  0.5083
 1547TIP3    H126056   3.238   5.742   1.529 -1.2707  0.5662 -0.8319
 1547TIP3    H226057   3.242   5.856   1.628 -1.1492 -0.3252  0.1994
 1548TIP3   OH226058   3.002   1.969  15.049 -0.2249  0.0835  0.1311
 1548TIP3    H126059   3.029   1.899  14.989 -0.8776 -0.0055 -0.0630
 1548TIP3    H226060   2.918   1.939  15.084  0.4791 -0.1949  1.6381
 1549TIP3   OH226061   4.850   4.720  15.209  0.3655  0.2070  0.1779
 1549TIP3    H126062   4.845   4.766  15.125  1.3006  0.1410  0.0747
 1549TIP3    H226063   4.876   4.787  15.272 -2.7270  0.7870  0.8945
 1550TIP3   OH226064   4.965   5.623  11.923 -0.1415 -0.6493  0.2208
 1550TIP3    H126065   5.029   5.634  11.852 -1.2529  0.8060 -0.5786
 1550TIP3    H226066   4.906   5.555  11.892 -1.1508  0.6059 -0.6619
 1551TIP3   OH226067   5.828   6.023  16.503  0.3071 -0.0102  0.8029
 1551TIP3    H126068   5.890   6.021  16.430  0.1643  1.9434  0.5993
 1551TIP3    H226069   5.745   6.048  16.463 -0.2375 -0.9683  1.3301
 1552TIP3   OH226070   1.818   1.832  14.290 -0.1249 -0.2669  0.2064
 1552TIP3    H126071   1.743   1.889  14.305  0.8478  1.1508 -0.2050
 1552TIP3    H226072   1.780   1.750  14.259 -1.5162  0.3502  0.2418
 1553TIP3   OH226073   2.511   1.847  16.204  0.0884 -0.2603 -0.4230
 1553TIP3    H126074   2.498   1.774  16.143 -0.2945 -1.0916  0.6371
 1553TIP3    H226075   2.509   1.925  16.149  0.8603 -1.0778 -1.6223
 1554TIP3   OH226076   3.059   0.567   5.311 -0.3384 -0.1364  0.1661
 1554TIP3    H126077   3.037   0.588   5.402  0.4300 -2.0083  0.8132
 1554TIP3    H226078   3.155   0.557   5.311 -0.3913 -0.7416 -0.7079
 1555TIP3   OH226079   1.944   3.710   2.184  0.6489  1.0769  0.0744
 1555TIP3    H126080   1.880   3.755   2.239  0.7959  0.8295  0.4499
 1555TIP3    H226081   1.987   3.648   2.243  1.3207  1.3293 -0.1462
 1556TIP3   OH226082   1.634   5.327   0.730  0.2852 -0.2950  0.2748
 1556TIP3    H126083   1.674   5.314   0.644  0.2742 -4.2260  0.7581
 1556TIP3    H226084   1.540   5.316   0.714 -0.3024  4.1337 -0.0165
 1557TIP3   OH226085   5.432   1.042   4.723 -0.3502  0.8465  0.1747
 1557TIP3    H126086   5.428   1.041   4.627  2.2458  2.3795  0.0212
 1557TIP3    H226087   5.448   0.951   4.747 -1.7536  0.3186 -0.7718
 1558TIP3   OH226088   3.674   6.633  16.833 -0.0222 -0.1046 -0.1537
 1558TIP3    H126089   3.599   6.628  16.891  0.5448 -1.1839  0.5220
 1558TIP3    H226090   3.677   6.547  16.790  1.1619 -0.3079  0.2876
 1559TIP3   OH226091   4.210   6.116   4.230  0.4330  0.3918 -0.1822
 1559TIP3    H126092   4.151   6.053   4.187  0.0957 -0.4117  1.4200
 1559TIP3    H226093   4.214   6.190   4.169 -1.8438  0.2522 -0.5696
 1560TIP3   OH226094   4.670   6.348  16.153 -0.5079  0.2841 -0.0137
 1560TIP3    H126095   4.640   6.277  16.096 -1.4614  0.0198  0.8091
 1560TIP3    H226096   4.722   6.404  16.096 -2.2254  0.5297 -1.3722
 1561TIP3   OH226097   2.082   2.812  15.396 -0.0879 -0.2475 -0.6064
 1561TIP3    H126098   2.003   2.855  15.428  0.3422 -0.6947  1.0974
 1561TIP3    H226099   2.154   2.861  15.437  0.4520 -1.4006 -0.1754
 1562TIP3   OH226100   6.094   0.084  12.263 -0.0263  0.0529  0.1647
 1562TIP3    H126101   6.160   0.018  12.284  0.6698  0.7973  0.3475
 1562TIP3    H226102   6.125   0.163  12.307 -0.7657  0.5400 -0.1916
 1563TIP3   OH226103   1.083   5.226  13.259  0.3607 -0.0887  0.0791
 1563TIP3    H126104   1.002   5.179  13.237  0.4843 -1.3098  2.0616
 1563TIP3    H226105   1.145   5.200  13.191 -0.7242  0.3718 -1.1046
 1564TIP3   OH226106   3.714   5.236   5.018 -0.0612  0.0140  0.2534
 1564TIP3    H126107   3.633   5.255   4.970  0.6172  0.9129 -0.5691
 1564TIP3    H226108   3.714   5.297   5.092  1.0219  1.7692 -1.1248
 1565TIP3   OH226109   0.669   6.064  14.919  0.0861 -0.4242 -0.0649
 1565TIP3    H126110   0.675   6.125  14.845 -2.4153  0.3424  0.3227
 1565TIP3    H226111   0.646   5.980  14.878  0.2380 -0.3573 -0.2917
 1566TIP3   OH226112   4.880   2.053  16.896  0.0018  0.2285 -0.2548
 1566TIP3    H126113   4.845   1.989  16.958 -0.7862 -0.5419 -1.4637
 1566TIP3    H226114   4.820   2.128  16.902 -0.1458  0.1047 -0.1877
 1567TIP3   OH226115   4.668   3.669  11.168 -0.2814 -0.3578 -0.7587
 1567TIP3    H126116   4.632   3.581  11.162 -0.6642 -0.4103  1.6992
 1567TIP3    H226117   4.755   3.657  11.206 -0.2579  0.2949 -0.5980
 1568TIP3   OH226118   1.107   6.267  16.291  0.2615  0.3804  0.2283
 1568TIP3    H126119   1.083   6.294  16.380 -2.0879 -0.5666 -0.0823
 1568TIP3    H226120   1.164   6.191  16.303 -1.2344 -0.6568  0.9245
 1569TIP3   OH226121   0.265   4.177  16.654  0.1117  0.1796 -0.2404
 1569TIP3    H126122   0.307   4.157  16.738 -1.7662 -0.0933  0.6547
 1569TIP3    H226123   0.264   4.273  16.650 -0.6357  0.2100  0.4951
 1570TIP3   OH226124   2.090   6.350   2.057 -0.1090 -0.5514 -0.1776
 1570TIP3    H126125   2.026   6.312   1.997  1.3597  0.7374 -2.6030
 1570TIP3    H226126   2.049   6.431   2.087  0.3333  0.2503 -1.6964
 1571TIP3   OH226127   5.465   1.597   3.099  0.2028  0.1654  0.3237
 1571TIP3    H126128   5.403   1.665   3.073 -1.2600 -1.5959 -0.8474
 1571TIP3    H226129   5.478   1.612   3.193 -0.5556  1.6820  0.2075
 1572TIP3   OH226130   3.380   4.823  13.926  0.2297 -0.2806 -0.4005
 1572TIP3    H126131   3.438   4.899  13.932 -0.3418  0.2816 -1.7895
 1572TIP3    H226132   3.383   4.797  13.834 -1.0644 -0.7602 -0.3218
 1573TIP3   OH226133   3.207   2.711   5.622  0.0174  0.1014  0.7027
 1573TIP3    H126134   3.167   2.625   5.611 -0.4268  0.5626 -1.5553
 1573TIP3    H226135   3.138   2.773   5.596  1.1095  1.0298 -0.0137
 1574TIP3   OH226136   0.060   6.162   6.307  0.4167  0.2119  0.3708
 1574TIP3    H126137   0.117   6.237   6.326 -0.5801  0.3868  2.7759
 1574TIP3    H226138   0.075   6.101   6.379 -3.0924  0.6743  1.5903
 1575TIP3   OH226139   5.664   6.221  16.352 -0.1289  0.6054 -0.6063
 1575TIP3    H126140   5.571   6.218  16.332 -0.3656  1.2183  0.3462
 1575TIP3    H226141   5.706   6.170  16.283 -1.3633 -1.3817  0.0673
 1576TIP3   OH226142   3.154   2.233   0.022 -0.1976 -0.3682 -0.4476
 1576TIP3    H126143   3.183   2.254  -0.066  0.4929 -0.0586 -0.1595
 1576TIP3    H226144   3.075   2.284   0.035  1.3468  1.9523  0.1805
 1577TIP3   OH226145   0.948   4.443  12.760 -0.2239  0.0812 -0.1736
 1577TIP3    H126146   1.005   4.499  12.707  0.5852 -0.8457 -0.3014
 1577TIP3    H226147   0.946   4.486  12.845  0.1526  0.4686 -0.3524
 1578TIP3   OH226148   2.728   3.045  15.612 -0.0133 -0.1303 -0.8787
 1578TIP3    H126149   2.684   3.013  15.533 -0.7422  0.4987 -0.7380
 1578TIP3    H226150   2.661   3.039  15.681  0.8115 -1.2781 -0.1567
 1579TIP3   OH226151   0.362   6.702  14.983  0.1220  0.1723 -0.0105
 1579TIP3    H126152   0.332   6.729  15.069  1.3309  0.6111  0.2853
 1579TIP3    H226153   0.422   6.629  15.000 -0.7839 -0.7313 -0.5921
 1580TIP3   OH226154   5.097   3.929   5.643 -0.0179 -0.1208  0.4850
 1580TIP3    H126155   5.060   3.877   5.572 -1.8293  1.4347  0.2361
 1580TIP3    H226156   5.189   3.942   5.618 -0.9807  1.6256 -2.3427
 1581TIP3   OH226157   5.259   5.955  16.091 -0.9430  0.4346 -0.2810
 1581TIP3    H126158   5.170   5.953  16.056 -0.4982 -2.7500 -1.4141
 1581TIP3    H226159   5.263   5.882  16.153  0.6954  0.9009  0.2058
 1582TIP3   OH226160   2.201   1.896  14.260  0.4807 -0.0195 -0.0452
 1582TIP3    H126161   2.223   1.802  14.262  0.4733 -0.0245 -0.2569
 1582TIP3    H226162   2.273   1.937  14.308  0.3327 -0.1632  0.3047
 1583TIP3   OH226163   3.552   4.925  12.050 -0.2040  0.6801 -0.6421
 1583TIP3    H126164   3.566   4.841  12.007  0.4399 -0.1130  1.0741
 1583TIP3    H226165   3.638   4.968  12.046 -0.0414  0.4437  0.1580
 1584TIP3   OH226166   3.812   0.344   2.961 -0.4293 -0.1418  0.0719
 1584TIP3    H126167   3.806   0.336   3.056  1.5632  0.0370  0.2243
 1584TIP3    H226168   3.721   0.343   2.931 -1.0417 -0.9560  1.9090
 1585TIP3   OH226169   6.356   2.309   2.427 -0.4097  0.0589 -0.3126
 1585TIP3    H126170   6.441   2.276   2.455 -0.7378  0.0624  0.7134
 1585TIP3    H226171   6.374   2.353   2.344  0.2459 -1.5459 -1.0280
 1586TIP3   OH226172   5.172   5.017  13.234 -0.3471 -0.7181  0.0634
 1586TIP3    H126173   5.147   5.056  13.318 -2.4303 -4.0765  1.0937
 1586TIP3    H226174   5.118   5.062  13.170  0.9338  1.5625  0.5311
 1587TIP3   OH226175   3.458   2.808   4.337 -0.3253  0.7077  0.1126
 1587TIP3    H126176   3.488   2.813   4.427  0.0541  1.3725 -0.0553
 1587TIP3    H226177   3.385   2.746   4.340 -0.0839  0.4563  0.8112
 1588TIP3   OH226178   0.527   5.702  16.104 -0.2346  0.6235 -0.0557
 1588TIP3    H126179   0.608   5.753  16.094 -0.0895  0.4095  0.0374
 1588TIP3    H226180   0.530   5.640  16.031 -0.4072  0.7394 -0.1642
 1589TIP3   OH226181   1.277   6.704  12.618 -0.0695 -0.2897  0.3442
 1589TIP3    H126182   1.326   6.628  12.584  1.9489  0.6685  1.0104
 1589TIP3    H226183   1.251   6.678  12.706  2.7042  0.6164  1.5004
 1590TIP3   OH226184   6.645   6.245   4.893  0.1996 -0.4421 -0.1133
 1590TIP3    H126185   6.617   6.201   4.973 -0.4285  0.1756  0.0059
 1590TIP3    H226186   6.590   6.209   4.824  1.7196 -2.0461 -0.5276
 1591TIP3   OH226187   0.626   2.681   4.657 -0.1639  0.3998 -0.5255
 1591TIP3    H126188   0.566   2.643   4.722 -0.3077  2.9220  0.8747
 1591TIP3    H226189   0.572   2.743   4.608  0.7167  0.8061 -0.9875
 1592TIP3   OH226190   5.925   3.013  16.624 -0.2801 -0.0991 -0.2513
 1592TIP3    H126191   5.926   2.957  16.546  1.4042  0.6294 -0.7818
 1592TIP3    H226192   5.999   2.981  16.676 -1.6517 -0.8576  1.2758
 1593TIP3   OH226193   0.368   5.438   0.793 -0.0593  0.0057 -0.5547
 1593TIP3    H126194   0.333   5.349   0.797  0.7174 -0.2763  0.2262
 1593TIP3    H226195   0.359   5.464   0.702 -1.7228 -0.2885 -0.4785
 1594TIP3   OH226196   4.540   1.550  13.152 -0.3376  0.1976  0.0635
 1594TIP3    H126197   4.594   1.623  13.122 -0.8895  0.5286 -0.1313
 1594TIP3    H226198   4.452   1.586  13.157 -1.1636 -1.2334 -2.9752
 1595TIP3   OH226199   4.491   3.529   0.500  0.2086 -0.2372  0.3553
 1595TIP3    H126200   4.485   3.436   0.479  0.1092 -0.1092 -0.1957
 1595TIP3    H226201   4.403   3.552   0.530 -0.5933  0.3370 -2.2976
 1596TIP3   OH226202   4.022   6.046  11.312 -0.1375  0.0178  0.2884
 1596TIP3    H126203   3.950   6.020  11.254  0.3211 -0.2899 -0.1540
 1596TIP3    H226204   3.979   6.087  11.387 -0.7903 -0.4271  0.1645
 1597TIP3   OH226205   1.833   5.736   0.419 -0.0089  0.2683  0.3908
 1597TIP3    H126206   1.887   5.806   0.457 -0.3135 -0.0437  1.3937
 1597TIP3    H226207   1.750   5.741   0.466 -1.0494  1.0314 -1.4519
 1598TIP3   OH226208   5.118   0.855  11.484 -0.0395 -0.1757  0.3275
 1598TIP3    H126209   5.176   0.779  11.490 -0.4883 -0.3956  2.0054
 1598TIP3    H226210   5.038   0.820  11.445 -0.1744 -0.5231  0.9127
 1599TIP3   OH226211   5.173   3.891   1.896  0.2420  0.1291  0.3581
 1599TIP3    H126212   5.246   3.834   1.872 -0.3683 -0.1340 -0.8663
 1599TIP3    H226213   5.098   3.856   1.849 -0.5415  0.8029  1.0943
 1600TIP3   OH226214   4.054   0.728  13.847 -0.7797 -0.0841 -0.2042
 1600TIP3    H126215   4.024   0.750  13.759 -1.8149  3.8698  0.9936
 1600TIP3    H226216   4.149   0.725  13.841 -0.8409  0.2525 -1.4431
 1601TIP3   OH226217   2.297   1.855   2.174 -0.2389 -0.0310  0.3613
 1601TIP3    H126218   2.362   1.786   2.186  0.8642  0.5899 -1.7522
 1601TIP3    H226219   2.240   1.822   2.105 -0.4321  0.6473  0.1919
 1602TIP3   OH226220   5.432   5.868  10.673 -0.4731  0.3200  0.4839
 1602TIP3    H126221   5.491   5.819  10.730 -0.9798 -0.9369 -0.0516
 1602TIP3    H226222   5.487   5.935  10.632  0.5551 -0.7642  0.0802
 1603TIP3   OH226223   6.255   4.140   2.157  0.2218 -0.0332 -0.2073
 1603TIP3    H126224   6.284   4.099   2.076  0.4099 -1.7752  0.7228
 1603TIP3    H226225   6.211   4.220   2.129  1.9647  0.3507 -1.8974
 1604TIP3   OH226226   0.243   6.518  11.252  0.0011  0.4556  0.0475
 1604TIP3    H126227   0.270   6.511  11.160  0.9874 -1.3095  0.4443
 1604TIP3    H226228   0.201   6.603  11.258  0.4429  0.8436 -1.9191
 1605TIP3   OH226229   4.218   4.989   1.107 -0.1509  0.6996  0.5746
 1605TIP3    H126230   4.285   5.055   1.129 -1.0929  2.6151 -1.9361
 1605TIP3    H226231   4.264   4.927   1.050  0.0411  0.7555  0.6675
 1606TIP3   OH226232   5.884   3.112   1.553  0.4115 -0.0310 -0.1108
 1606TIP3    H126233   5.802   3.126   1.505  0.4981  0.2481 -0.1822
 1606TIP3    H226234   5.861   3.052   1.624  0.2479 -0.3133 -0.4062
 1607TIP3   OH226235   3.521   3.000   6.260 -0.1068 -0.1915 -0.0769
 1607TIP3    H126236   3.571   2.921   6.282 -0.2164  0.3844  2.4099
 1607TIP3    H226237   3.434   2.967   6.236 -0.3619 -0.8226  1.6132
 1608TIP3   OH226238   0.237   1.722  15.256  0.7409  0.1940 -0.0855
 1608TIP3    H126239   0.211   1.631  15.267  1.5613  0.0147  0.4040
 1608TIP3    H226240   0.176   1.757  15.191 -0.0164 -0.5141  0.2395
 1609TIP3   OH226241   1.940   3.461   5.145  0.0616 -0.0220 -0.3209
 1609TIP3    H126242   1.901   3.508   5.071  1.7784 -0.6683 -1.6946
 1609TIP3    H226243   2.028   3.498   5.153  1.0025 -2.1088 -0.6353
 1610TIP3   OH226244   0.965   4.986   1.341 -0.2312 -0.9003 -0.2884
 1610TIP3    H126245   1.026   5.052   1.309  0.6845 -1.5931 -0.0092
 1610TIP3    H226246   0.923   4.952   1.262 -2.8798  2.0436 -0.2240
 1611TIP3   OH226247   3.610   4.473  13.966  0.3053  0.5343 -0.3396
 1611TIP3    H126248   3.573   4.392  13.931  0.9475  1.2910 -2.8097
 1611TIP3    H226249   3.682   4.443  14.023 -0.7758 -0.6957  0.3939
 1612TIP3   OH226250   4.328   6.552  14.588  0.1559 -0.3195 -0.0437
 1612TIP3    H126251   4.257   6.612  14.612 -0.4321 -1.6214  1.5147
 1612TIP3    H226252   4.285   6.481  14.541  0.4670 -1.0183  0.7319
 1613TIP3   OH226253   1.046   1.181  16.815  0.0730  0.2880 -0.0055
 1613TIP3    H126254   0.986   1.157  16.744 -1.5513  0.4231  1.2936
 1613TIP3    H226255   1.074   1.270  16.793  0.1401  0.0505 -0.8720
 1614TIP3   OH226256   1.341   0.552   5.170 -0.7098 -0.1164  0.3494
 1614TIP3    H126257   1.377   0.476   5.123 -1.8529  0.1616 -1.0300
 1614TIP3    H226258   1.395   0.560   5.248  1.7143 -0.1578 -1.2896
 1615TIP3   OH226259   1.409   4.987  10.605 -0.3292 -0.2147  0.4214
 1615TIP3    H126260   1.492   4.985  10.559  0.4585  0.1366  1.7986
 1615TIP3    H226261   1.426   5.038  10.684 -2.7711  2.9580 -0.9766
 1616TIP3   OH226262   2.098   4.699  13.387 -0.1921 -0.0750 -0.4665
 1616TIP3    H126263   2.168   4.765  13.392 -0.2571 -0.0491  0.0823
 1616TIP3    H226264   2.138   4.627  13.338 -0.2774  0.5639 -1.5038
 1617TIP3   OH226265   0.897   0.922  13.247  0.1719 -0.3856  0.4467
 1617TIP3    H126266   0.922   0.974  13.172  1.3043 -1.6163 -0.0499
 1617TIP3    H226267   0.821   0.872  13.217  0.0821 -0.2279  0.4094
 1618TIP3   OH226268   5.048   2.210   2.168 -0.7639 -0.2118  0.0167
 1618TIP3    H126269   5.082   2.131   2.125 -0.1778 -0.0248  0.1384
 1618TIP3    H226270   5.097   2.282   2.129 -0.6370  0.0126  0.5919
 1619TIP3   OH226271   1.001   6.179  14.506 -0.2232 -0.7424  0.0741
 1619TIP3    H126272   1.006   6.194  14.412  0.0065 -2.5059 -0.2185
 1619TIP3    H226273   0.909   6.163  14.524 -0.2481 -0.5368  0.1344
 1620TIP3   OH226274   1.180   5.308  14.098  0.0360 -0.1612 -0.2376
 1620TIP3    H126275   1.175   5.321  14.003  0.9604 -0.6429 -0.3614
 1620TIP3    H226276   1.159   5.393  14.135 -1.4787 -0.2527 -0.8420
 1621TIP3   OH226277   2.257   3.312  12.008 -0.6974 -0.1390  0.2973
 1621TIP3    H126278   2.246   3.385  11.948  0.1748 -0.9919 -0.9367
 1621TIP3    H226279   2.179   3.258  11.996  0.8517 -1.9144 -2.4013
 1622TIP3   OH226280   5.366   2.383  10.495 -0.1210  0.1744 -0.5892
 1622TIP3    H126281   5.428   2.451  10.472 -0.5118  0.4788 -0.7463
 1622TIP3    H226282   5.420   2.309  10.523  0.2953  1.0057  0.8958
 1623TIP3   OH226283   2.044   4.218   4.830  0.1335  0.0412 -0.1217
 1623TIP3    H126284   2.016   4.222   4.921  0.4068  0.7666 -0.0623
 1623TIP3    H226285   1.978   4.165   4.786  0.2642 -0.7129  0.5927
 1624TIP3   OH226286   2.395   0.859  12.752 -0.7232  0.3338  0.6493
 1624TIP3    H126287   2.481   0.898  12.772 -0.2884 -1.0794  1.5919
 1624TIP3    H226288   2.349   0.927  12.703  0.7675  1.2884  0.5389
 1625TIP3   OH226289   4.928   3.897   2.356  0.0953 -0.4160  0.2336
 1625TIP3    H126290   4.931   3.929   2.446  0.5216 -1.4605  0.6034
 1625TIP3    H226291   4.961   3.807   2.362  2.1963  0.2119 -1.2826
 1626TIP3   OH226292   4.916   2.733   4.695  0.0511  0.3662 -1.1238
 1626TIP3    H126293   4.988   2.679   4.728 -0.0903  1.0373  0.3311
 1626TIP3    H226294   4.850   2.671   4.667 -0.9479 -0.2599  2.3762
 1627TIP3   OH226295   1.201   3.405  13.906 -0.6089  0.0381 -0.2087
 1627TIP3    H126296   1.181   3.329  13.961 -2.3079  1.3545  1.0590
 1627TIP3    H226297   1.151   3.390  13.825 -0.5521 -0.4342 -0.1562
 1628TIP3   OH226298   4.957   6.618  16.764 -0.3303  0.0540  0.3742
 1628TIP3    H126299   5.019   6.568  16.711  0.6631  0.8744  0.7622
 1628TIP3    H226300   4.954   6.572  16.847  0.8370  0.8085  0.8455
 1629TIP3   OH226301   0.521   3.722  12.056 -0.2375  0.3362  0.2700
 1629TIP3    H126302   0.505   3.764  11.972 -1.9092 -1.1458 -0.1673
 1629TIP3    H226303   0.612   3.692  12.050  0.0692  1.3826 -0.4920
 1630TIP3   OH226304   4.563   2.458   1.856 -0.5896  0.2421  0.3647
 1630TIP3    H126305   4.571   2.494   1.768  1.0629 -0.1912  0.3222
 1630TIP3    H226306   4.616   2.516   1.911 -1.9879  0.7831  1.1631
 1631TIP3   OH226307   3.044   2.694  13.236  0.2785  0.6184 -0.4550
 1631TIP3    H126308   3.070   2.675  13.146  1.3996  1.0831 -0.2446
 1631TIP3    H226309   2.962   2.743  13.228 -0.9262 -1.4492 -1.1173
 1632TIP3   OH226310   5.127   2.913   2.665 -0.0449  0.1716  0.2266
 1632TIP3    H126311   5.133   2.957   2.750 -0.0081  1.4156 -0.4101
 1632TIP3    H226312   5.194   2.844   2.670  0.2915  0.5424  1.0195
 1633TIP3   OH226313   1.748   4.268  13.844  0.4459 -0.2718 -0.0692
 1633TIP3    H126314   1.793   4.275  13.759 -0.0170 -3.1548 -0.6099
 1633TIP3    H226315   1.655   4.273  13.822  0.3044 -1.6506  0.1569
 1634TIP3   OH226316   0.409   5.713  16.884 -0.0381  0.0128 -0.4327
 1634TIP3    H126317   0.404   5.641  16.948  0.8933  0.2888 -0.0393
 1634TIP3    H226318   0.320   5.720  16.849 -0.6603  0.0957  1.1156
 1635TIP3   OH226319   3.295   1.341  16.449  0.9341 -0.4737 -0.3955
 1635TIP3    H126320   3.251   1.355  16.365  1.0322 -0.2088 -0.4013
 1635TIP3    H226321   3.325   1.250  16.445  0.6020 -0.5811 -0.4897
 1636TIP3   OH226322   4.808   1.381  11.916 -0.1558 -0.3653  0.5283
 1636TIP3    H126323   4.766   1.295  11.913  2.1955 -1.5066 -0.6333
 1636TIP3    H226324   4.901   1.362  11.929  0.4834  1.9817 -0.4239
 1637TIP3   OH226325   3.235   6.212  14.066 -0.3971 -0.3429  0.5641
 1637TIP3    H126326   3.156   6.241  14.020 -0.1676  0.6452  0.7999
 1637TIP3    H226327   3.218   6.233  14.158  0.5683  0.8240  0.4873
 1638TIP3   OH226328   3.195   2.679  15.049 -0.7288 -0.0189 -0.0698
 1638TIP3    H126329   3.173   2.655  15.139 -3.1503  0.1232 -0.5875
 1638TIP3    H226330   3.261   2.748  15.057 -1.1722  0.2132  1.5995
 1639TIP3   OH226331   2.800   3.594   4.312 -0.2362 -0.0193  0.2010
 1639TIP3    H126332   2.705   3.597   4.323 -0.5542 -1.4003 -1.9642
 1639TIP3    H226333   2.816   3.516   4.260  2.0230  0.7105 -0.2704
 1640TIP3   OH226334   2.324   1.911   4.153 -0.4957 -0.2257 -0.0489
 1640TIP3    H126335   2.279   1.900   4.237 -0.1899  0.5352  0.2153
 1640TIP3    H226336   2.417   1.911   4.176 -0.4323  0.8802 -0.2799
 1641TIP3   OH226337   1.159   1.337   0.320  0.0948  0.0332  0.3054
 1641TIP3    H126338   1.222   1.324   0.391 -0.1353 -1.2813  0.2822
 1641TIP3    H226339   1.089   1.275   0.338  0.3604 -0.8021 -1.4488
 1642TIP3   OH226340   0.991   3.614  13.501  0.2606  0.5950  0.1412
 1642TIP3    H126341   0.954   3.698  13.527  0.8412  0.7391  0.5201
 1642TIP3    H226342   0.939   3.587  13.426 -0.6564  0.7539  0.7161
 1643TIP3   OH226343   4.521   6.584   1.072 -0.7623  0.0132 -0.3557
 1643TIP3    H126344   4.535   6.574   1.166 -0.3602 -0.2306 -0.4382
 1643TIP3    H226345   4.599   6.545   1.032 -0.5499  0.8465 -0.7656
 1644TIP3   OH226346   3.794   5.255  11.285  0.5350  0.0812  1.0350
 1644TIP3    H126347   3.719   5.242  11.227  0.3230  1.7300  0.9355
 1644TIP3    H226348   3.829   5.167  11.298 -0.0415 -0.4278 -0.7531
 1645TIP3   OH226349   3.904   2.309  13.814  0.5065  0.3075 -0.1426
 1645TIP3    H126350   3.986   2.260  13.805  0.3785  0.1513 -0.4603
 1645TIP3    H226351   3.865   2.306  13.727  0.3018  0.6310 -0.0621
 1646TIP3   OH226352   5.532   4.954  14.949 -0.0711 -0.3100  0.0164
 1646TIP3    H126353   5.559   5.016  15.017 -3.4786  2.9213 -1.4057
 1646TIP3    H226354   5.437   4.949  14.957 -0.1502 -3.0285 -1.9479
 1647TIP3   OH226355   5.915   5.985   1.036 -0.0781  0.6900 -0.8496
 1647TIP3    H126356   5.853   6.032   1.092  0.0856  0.9954 -0.9219
 1647TIP3    H226357   5.905   5.893   1.061  1.4806  1.0208  1.1965
 1648TIP3   OH226358   5.598   4.011   6.718  0.2957 -0.3265 -0.3323
 1648TIP3    H126359   5.675   3.954   6.727  0.7554  0.4182  0.5232
 1648TIP3    H226360   5.524   3.950   6.714  0.8643 -1.0232 -0.4117
 1649TIP3   OH226361   5.892   6.360  16.391  0.8983  0.0234 -0.1951
 1649TIP3    H126362   5.883   6.440  16.339 -0.2774  0.7696  1.1145
 1649TIP3    H226363   5.804   6.324  16.396  0.8556  0.3199  1.8032
 1650TIP3   OH226364   2.086   0.569  15.992 -0.6308  0.0435 -0.2192
 1650TIP3    H126365   2.139   0.564  15.913  1.5722 -0.4104  1.2333
 1650TIP3    H226366   2.013   0.509  15.977  1.2910 -2.2223 -0.8099
 1651TIP3   OH226367   3.860   1.859  10.391 -0.3761 -0.5450  0.4542
 1651TIP3    H126368   3.842   1.913  10.468 -0.0654  0.0475  0.1209
 1651TIP3    H226369   3.908   1.917  10.332  0.9112 -1.5192  0.5244
 1652TIP3   OH226370   5.477   2.236   1.359 -0.3003  0.2502 -0.0856
 1652TIP3    H126371   5.512   2.325   1.369  1.0665 -0.3916  0.9399
 1652TIP3    H226372   5.517   2.186   1.430 -0.0071 -1.5081 -1.4460
 1653TIP3   OH226373   2.869   4.083   4.067  0.0218  0.0295 -0.3381
 1653TIP3    H126374   2.916   4.120   3.993  0.6707 -0.2825 -0.0789
 1653TIP3    H226375   2.776   4.091   4.043  0.1986  0.7938 -0.7701
 1654TIP3   OH226376   3.288   4.457   7.084 -0.1727 -0.1316  1.5201
 1654TIP3    H126377   3.242   4.467   7.001 -1.4165 -0.1174  2.1911
 1654TIP3    H226378   3.379   4.476   7.064 -0.9066  2.9578  0.7607
 1655TIP3   OH226379   4.431   3.767   1.069 -0.3524  0.7167 -0.1383
 1655TIP3    H126380   4.409   3.677   1.046  2.0785  0.0512  0.0522
 1655TIP3    H226381   4.516   3.761   1.113 -0.4783  3.0251  0.4852
 1656TIP3   OH226382   6.264   0.972   0.464  0.0646 -0.0905  0.0706
 1656TIP3    H126383   6.256   1.048   0.522 -2.0869  0.3778 -0.7862
 1656TIP3    H226384   6.175   0.956   0.433  0.7916 -1.8230 -1.2257
 1657TIP3   OH226385   2.039   6.419   5.693 -0.2549 -0.6532 -0.1237
 1657TIP3    H126386   1.965   6.392   5.747 -1.1681  1.2660 -0.3673
 1657TIP3    H226387   2.105   6.350   5.706 -1.9322 -2.1959  0.3685
 1658TIP3   OH226388   2.885   3.780   3.443 -0.0715 -0.8286  0.5051
 1658TIP3    H126389   2.876   3.875   3.449 -0.1897 -0.8197  0.1716
 1658TIP3    H226390   2.865   3.760   3.352  0.3726 -1.1272  0.4746
 1659TIP3   OH226391   1.263   1.818  14.212 -0.1349  0.3137  0.2894
 1659TIP3    H126392   1.318   1.865  14.275  1.3831 -0.0248 -0.7338
 1659TIP3    H226393   1.190   1.785  14.263  1.8408 -1.2867  2.2106
 1660TIP3   OH226394   5.588   1.075   3.321  0.2035 -0.1489  0.0096
 1660TIP3    H126395   5.551   1.023   3.250 -0.1359 -2.5139  1.8207
 1660TIP3    H226396   5.514   1.127   3.353  0.2151  0.4802 -0.9698
 1661TIP3   OH226397   5.398   5.880  11.567 -0.0789 -0.0867  0.0264
 1661TIP3    H126398   5.442   5.881  11.482 -1.1504 -0.3891 -0.5466
 1661TIP3    H226399   5.308   5.907  11.547 -0.2056  0.3351  1.1432
 1662TIP3   OH226400   5.337   4.157   4.983 -0.4271  0.2352 -0.0515
 1662TIP3    H126401   5.275   4.112   5.041  0.0916  1.5543  1.5826
 1662TIP3    H226402   5.292   4.239   4.960 -0.9475 -0.6293 -2.1763
 1663TIP3   OH226403   3.228   2.599   5.284  0.1227 -0.6049  0.0636
 1663TIP3    H126404   3.191   2.685   5.301 -0.7649 -1.0392  0.4068
 1663TIP3    H226405   3.293   2.586   5.353 -1.3296 -1.1204  1.3650
 1664TIP3   OH226406   4.161   4.949  16.483  0.1983 -0.4271 -0.0561
 1664TIP3    H126407   4.076   4.968  16.443 -0.4163 -0.4042  1.2378
 1664TIP3    H226408   4.158   4.854  16.500  0.3661 -0.4014  0.1168
 1665TIP3   OH226409   2.765   3.869   6.813  0.6859  0.0751 -0.0891
 1665TIP3    H126410   2.703   3.838   6.748 -1.8749  1.7547  1.4922
 1665TIP3    H226411   2.811   3.941   6.770  1.7889 -1.3556 -1.3620
 1666TIP3   OH226412   5.560   0.589  16.082  0.4233 -0.0914  0.1622
 1666TIP3    H126413   5.603   0.600  16.166 -0.8180 -0.1538  0.8219
 1666TIP3    H226414   5.531   0.497  16.082  1.4892 -0.4355 -0.8532
 1667TIP3   OH226415   5.200   5.353  14.317 -0.5265  0.3984 -0.6110
 1667TIP3    H126416   5.152   5.378  14.396 -2.7272 -0.3436 -1.6657
 1667TIP3    H226417   5.163   5.268  14.292  2.8434 -1.2438 -0.3001
 1668TIP3   OH226418   5.855   6.407   1.704  0.0055  0.3049 -0.6903
 1668TIP3    H126419   5.916   6.339   1.676  1.5385  0.9757  0.9162
 1668TIP3    H226420   5.911   6.481   1.727 -1.3822  0.8462  1.0688
 1669TIP3   OH226421   6.141   1.864   2.353  0.9544 -0.3576  0.2978
 1669TIP3    H126422   6.073   1.807   2.389 -0.5107  0.8768 -0.4199
 1669TIP3    H226423   6.138   1.849   2.258  1.4658 -0.0657  0.2313
 1670TIP3   OH226424   6.396   6.198  16.327 -0.2140 -0.6112 -0.3550
 1670TIP3    H126425   6.484   6.169  16.350 -1.3135 -1.0869  3.4651
 1670TIP3    H226426   6.392   6.289  16.358 -1.0064 -0.5036 -0.7494
 1671TIP3   OH226427   2.636   2.999  15.352 -0.6159  0.3407  0.4549
 1671TIP3    H126428   2.665   2.929  15.294  1.0995  0.3108  1.3129
 1671TIP3    H226429   2.546   3.018  15.324 -0.7453 -1.4917 -0.4462
 1672TIP3   OH226430   2.111   6.266  13.628  0.1544  0.2879  0.0053
 1672TIP3    H126431   2.133   6.259  13.721 -0.0148  1.0574  0.1059
 1672TIP3    H226432   2.108   6.175  13.597 -0.5688 -0.0112  0.9371
 1673TIP3   OH226433   3.911   1.521   4.016 -0.2025  0.1582  0.1048
 1673TIP3    H126434   3.868   1.441   4.047  0.1570 -0.3670 -0.7645
 1673TIP3    H226435   3.877   1.534   3.928  0.2184  0.6223  0.0102
 1674TIP3   OH226436   3.212   5.153  16.981 -0.2247  0.8605  0.4338
 1674TIP3    H126437   3.174   5.189  17.061 -0.7969  1.0872  0.0619
 1674TIP3    H226438   3.232   5.229  16.927 -0.9083  0.6648 -0.1160
 1675TIP3   OH226439   6.676   1.711   3.969  0.1117 -0.1256  0.1303
 1675TIP3    H126440   6.614   1.778   3.998  1.6051  1.1271  0.4664
 1675TIP3    H226441   6.726   1.752   3.899  0.8646 -0.9811  0.1486
 1676TIP3   OH226442   4.463   3.579  15.312  0.2870 -0.8247  0.1181
 1676TIP3    H126443   4.519   3.641  15.359 -0.1647 -0.2920 -0.0395
 1676TIP3    H226444   4.380   3.580  15.361 -0.7952  1.0647 -1.6792
 1677TIP3   OH226445   5.275   6.380  11.331  0.1875 -0.2772 -0.0119
 1677TIP3    H126446   5.251   6.464  11.371 -0.2280 -0.6880  0.6214
 1677TIP3    H226447   5.261   6.393  11.237  0.3226  0.4282  0.0647
 1678TIP3   OH226448   3.058   1.626   4.211  0.4506 -0.2080 -0.4036
 1678TIP3    H126449   3.076   1.652   4.302 -0.0033  3.0471 -1.1621
 1678TIP3    H226450   3.140   1.644   4.165  0.6960 -1.9117 -0.6607
 1679TIP3   OH226451   4.194   5.850  11.517 -0.1519  0.5160 -0.7356
 1679TIP3    H126452   4.111   5.865  11.562  0.2317 -0.0092  0.1612
 1679TIP3    H226453   4.261   5.860  11.585  0.5917  1.7532 -1.6180
 1680TIP3   OH226454   6.167   2.501   4.674 -0.1250 -0.4811  0.0194
 1680TIP3    H126455   6.165   2.595   4.693  0.7161 -0.6823  1.1637
 1680TIP3    H226456   6.129   2.493   4.586 -1.6644  0.7599  0.5512
 1681TIP3   OH226457   0.800   4.296   4.205 -0.9204 -0.3799  0.3725
 1681TIP3    H126458   0.737   4.337   4.265 -1.5402 -0.5395 -0.1746
 1681TIP3    H226459   0.790   4.202   4.220 -0.4913 -0.3918  0.6067
 1682TIP3   OH226460   5.971   1.353  13.320  0.2364 -0.2016 -0.3835
 1682TIP3    H126461   6.011   1.361  13.407 -0.5524 -1.9864  0.1738
 1682TIP3    H226462   5.877   1.352  13.337  0.0310  1.2178 -1.4316
 1683TIP3   OH226463   0.821   6.386  16.426  0.4518 -0.0522 -0.2580
 1683TIP3    H126464   0.836   6.378  16.332  0.0799 -1.9422 -0.1750
 1683TIP3    H226465   0.906   6.409  16.462  0.8600 -0.4790 -0.9390
 1684TIP3   OH226466   0.278   0.274   3.350 -0.1496  0.5378  0.2506
 1684TIP3    H126467   0.237   0.239   3.430 -0.1639 -1.4334 -0.5864
 1684TIP3    H226468   0.208   0.270   3.284  0.5247 -0.0393 -0.4344
 1685TIP3   OH226469   6.649   0.565  14.434 -0.0244  0.3787  0.4472
 1685TIP3    H126470   6.599   0.493  14.394 -1.1288  0.8828  0.9066
 1685TIP3    H226471   6.715   0.521  14.487 -1.4223 -0.3196  1.6412
 1686TIP3   OH226472   2.651   2.896  13.512  0.5361  0.1101  0.3452
 1686TIP3    H126473   2.653   2.891  13.416  0.2242  1.2307  0.2810
 1686TIP3    H226474   2.584   2.832  13.537  1.3202 -0.9242 -0.1172
 1687TIP3   OH226475   1.618   3.473   0.911 -0.5875  0.0372  0.1265
 1687TIP3    H126476   1.645   3.557   0.873 -1.6159  0.1215 -0.4322
 1687TIP3    H226477   1.598   3.418   0.836  1.0020 -1.0402  0.4660
 1688TIP3   OH226478   4.693   6.264   2.440  0.2406 -1.0472 -0.4588
 1688TIP3    H126479   4.736   6.343   2.408 -0.1051 -0.4214  0.5784
 1688TIP3    H226480   4.605   6.293   2.465  0.1603 -1.7212  0.0690
 1689TIP3   OH226481   5.215   1.459   6.273 -0.2206 -0.3939 -0.0541
 1689TIP3    H126482   5.287   1.415   6.228  0.5737  2.4805 -1.7852
 1689TIP3    H226483   5.136   1.428   6.229  0.3374  0.0237 -1.3825
 1690TIP3   OH226484   5.540   3.112  17.123  0.0802 -0.1420  0.1408
 1690TIP3    H126485   5.607   3.125  17.190 -0.8478  0.3097  1.0034
 1690TIP3    H226486   5.488   3.193  17.125  0.1146 -0.0864 -1.2030
 1691TIP3   OH226487   1.580   0.171   1.425 -0.3014 -0.5340  0.7257
 1691TIP3    H126488   1.511   0.110   1.450 -2.0633  1.3992  0.7460
 1691TIP3    H226489   1.599   0.150   1.334  0.0977 -2.0060  1.1410
 1692TIP3   OH226490   6.606   1.576  15.641 -0.1863 -0.1743  0.0810
 1692TIP3    H126491   6.550   1.555  15.566  0.3876 -0.9984 -0.1192
 1692TIP3    H226492   6.550   1.629  15.698 -0.6249  0.4547 -0.9191
 1693TIP3   OH226493   3.353   0.234  16.071 -0.7651  1.3142 -0.7103
 1693TIP3    H126494   3.407   0.312  16.086  3.3197 -0.9160 -3.0952
 1693TIP3    H226495   3.366   0.181  16.150  0.1079  1.0810 -0.9965
 1694TIP3   OH226496   5.264   3.894  12.107  0.0076 -0.4740 -0.1083
 1694TIP3    H126497   5.215   3.939  12.175  1.2663 -0.2848  0.6744
 1694TIP3    H226498   5.301   3.817  12.150 -0.1754 -1.0064 -0.8707
 1695TIP3   OH226499   3.408   1.099  12.196  0.0985 -0.0294  0.2447
 1695TIP3    H126500   3.425   1.020  12.247 -0.3341 -1.6222 -1.9914
 1695TIP3    H226501   3.444   1.081  12.110 -1.4432  1.5774 -0.7867
 1696TIP3   OH226502   4.478   4.345  12.499 -0.1232 -0.3274  0.2557
 1696TIP3    H126503   4.468   4.422  12.554  0.7545 -1.0299  1.4141
 1696TIP3    H226504   4.406   4.288  12.524 -1.2044  0.4084 -1.1165
 1697TIP3   OH226505   3.682   4.648  12.259  0.8690 -0.4270 -0.0304
 1697TIP3    H126506   3.608   4.593  12.235  2.0856 -1.4647 -1.5307
 1697TIP3    H226507   3.654   4.693  12.338 -2.3884  1.2133 -2.0026
 1698TIP3   OH226508   0.666   4.794  12.803 -0.0572  0.1604  0.4983
 1698TIP3    H126509   0.632   4.869  12.755  1.0225  0.2921 -0.0759
 1698TIP3    H226510   0.729   4.832  12.864 -1.7685  0.0490  2.3799
 1699TIP3   OH226511   5.575   1.432  14.285 -0.0889  0.4754  0.5920
 1699TIP3    H126512   5.503   1.471  14.236 -0.0663  0.2077  0.3458
 1699TIP3    H226513   5.545   1.436  14.377 -0.0509  1.1323  0.5777
 1700TIP3   OH226514   0.760   2.044   3.108  0.2436  0.6232  0.3243
 1700TIP3    H126515   0.695   1.987   3.148 -0.1386  0.9997  0.2394
 1700TIP3    H226516   0.737   2.045   3.015  0.2619  0.9000  0.3221
 1701TIP3   OH226517   2.680   6.515  15.921 -0.3263  0.3320 -0.7022
 1701TIP3    H126518   2.656   6.459  15.848  1.5996 -0.6364 -0.6100
 1701TIP3    H226519   2.660   6.463  15.999  1.2672 -0.1883 -0.6151
 1702TIP3   OH226520   1.241   5.823  11.343 -0.0838 -0.0873 -0.5025
 1702TIP3    H126521   1.173   5.865  11.291  0.7532  1.7713 -0.1204
 1702TIP3    H226522   1.304   5.789  11.280 -0.5404 -0.3973 -0.7925
 1703TIP3   OH226523   3.109   5.947  11.629  0.1687  1.0628  0.2620
 1703TIP3    H126524   3.189   5.998  11.641 -0.2079  1.2134  2.1635
 1703TIP3    H226525   3.041   5.996  11.675 -0.8848  0.5761 -0.7486
 1704TIP3   OH226526   0.302   1.011  16.416 -0.1110  0.0176  0.8398
 1704TIP3    H126527   0.332   0.986  16.503 -1.3901  1.4755  1.7049
 1704TIP3    H226528   0.380   1.049  16.374 -0.2732  2.2752  2.4951
 1705TIP3   OH226529   2.097   1.912   4.639  0.3230 -0.0949  0.2709
 1705TIP3    H126530   2.046   1.838   4.672 -2.8951 -0.0674 -4.2360
 1705TIP3    H226531   2.042   1.989   4.658  1.8877  0.7539  1.4781
 1706TIP3   OH226532   0.626   4.988  16.883  0.3422  0.0921 -0.0951
 1706TIP3    H126533   0.630   5.048  16.809  0.1044 -0.2054 -0.3528
 1706TIP3    H226534   0.585   5.039  16.953  0.6343  0.3960 -0.1418
 1707TIP3   OH226535   2.365   1.012   3.211  0.1941  0.0583 -0.1047
 1707TIP3    H126536   2.348   0.933   3.261 -2.0575  0.9817  0.6230
 1707TIP3    H226537   2.395   1.076   3.275  3.4338 -0.5415 -0.8851
 1708TIP3   OH226538   2.483   3.726  15.549  0.2786 -0.0357  1.2921
 1708TIP3    H126539   2.451   3.816  15.542 -0.1591 -0.3008 -0.1675
 1708TIP3    H226540   2.559   3.733  15.607  0.8739  1.4444  0.3791
 1709TIP3   OH226541   4.193   0.630  15.812  0.9588 -0.6642  0.3914
 1709TIP3    H126542   4.179   0.722  15.790  3.0243 -0.4716 -0.1849
 1709TIP3    H226543   4.127   0.583  15.761 -0.1507  0.4873  0.7386
 1710TIP3   OH226544   1.655   5.106   1.914  0.3349  0.3101  0.4235
 1710TIP3    H126545   1.593   5.051   1.962 -1.2408  1.7876  0.1394
 1710TIP3    H226546   1.736   5.056   1.913 -0.8134 -1.6053  0.9380
 1711TIP3   OH226547   3.170   5.868  14.012  0.3843  0.3029 -0.2204
 1711TIP3    H126548   3.122   5.928  13.955 -0.4983 -2.0735 -2.0640
 1711TIP3    H226549   3.255   5.856  13.970 -0.4902 -1.9307 -1.4257
 1712TIP3   OH226550   6.019   0.176   0.529 -0.1575  0.6635  0.2973
 1712TIP3    H126551   6.103   0.182   0.576  0.2416  0.5132 -0.3857
 1712TIP3    H226552   5.984   0.090   0.554 -0.2579  0.8602  0.8327
 1713TIP3   OH226553   6.646   2.767   1.294  0.1633  0.0552  0.4444
 1713TIP3    H126554   6.685   2.848   1.327  0.6665 -0.0182  0.0326
 1713TIP3    H226555   6.681   2.698   1.350  0.7343 -0.0269 -0.0139
 1714TIP3   OH226556   3.632   3.280  12.872  0.1720 -0.1078  0.1005
 1714TIP3    H126557   3.568   3.276  12.944  0.7611  1.1254  0.7002
 1714TIP3    H226558   3.597   3.345  12.812  0.3807 -0.1396 -0.0555
 1715TIP3   OH226559   2.635   3.053   1.840  0.1357  0.3462  0.2311
 1715TIP3    H126560   2.674   2.980   1.888 -1.8645 -0.2127  1.0778
 1715TIP3    H226561   2.663   3.131   1.888  0.6376 -0.0020  0.5103
 1716TIP3   OH226562   5.436   3.058  15.579 -0.1239 -0.3123 -0.4983
 1716TIP3    H126563   5.439   3.150  15.604  1.6811 -0.4286 -0.2152
 1716TIP3    H226564   5.398   3.014  15.656  0.0023  0.0549 -0.2218
 1717TIP3   OH226565   5.807   1.541   4.913  0.0261  0.1756 -0.4450
 1717TIP3    H126566   5.741   1.609   4.926 -0.1647  0.1839 -1.4335
 1717TIP3    H226567   5.761   1.472   4.864  0.8584  0.3745 -1.5297
 1718TIP3   OH226568   3.949   5.119  14.459 -0.0196 -0.0699 -0.7473
 1718TIP3    H126569   3.880   5.062  14.424  0.2537 -0.7360 -0.2245
 1718TIP3    H226570   4.011   5.129  14.386 -0.3348 -0.0139 -1.0082
 1719TIP3   OH226571   4.710   3.125   5.755 -0.2031  0.4615  0.1774
 1719TIP3    H126572   4.765   3.186   5.806  0.2572  1.3371 -1.3398
 1719TIP3    H226573   4.715   3.043   5.803 -0.0480  1.3569  1.7394
 1720TIP3   OH226574   6.605   4.529  17.223 -0.0127  0.2760 -0.2958
 1720TIP3    H126575   6.623   4.442  17.187  0.0548  0.3353 -0.4048
 1720TIP3    H226576   6.690   4.571  17.228  0.0199  0.1406  0.2583
 1721TIP3   OH226577   2.333   1.334  13.483 -0.5110  0.4680  0.0922
 1721TIP3    H126578   2.278   1.298  13.553 -1.0239  0.9829 -0.0368
 1721TIP3    H226579   2.422   1.326  13.516 -0.5193 -1.8747 -0.3664
 1722TIP3   OH226580   3.927   1.783   0.957 -0.1507  0.0317  0.5540
 1722TIP3    H126581   3.939   1.723   1.031 -0.3804  1.0000  1.3964
 1722TIP3    H226582   3.836   1.769   0.931  0.2993 -1.2342 -0.3865
 1723TIP3   OH226583   6.343   2.496   1.906 -0.2925  0.5197 -0.1695
 1723TIP3    H126584   6.414   2.442   1.869 -1.6809 -0.9081 -0.7942
 1723TIP3    H226585   6.369   2.586   1.885  1.7501  0.0896  0.3300
 1724TIP3   OH226586   4.052   0.625   4.024  0.5794  0.1783 -0.3648
 1724TIP3    H126587   4.089   0.712   4.015 -0.2707  0.4997 -0.7848
 1724TIP3    H226588   4.003   0.627   4.106 -0.7644  0.5978 -1.1538
 1725TIP3   OH226589   5.073   4.160   0.160  0.2456  0.0343  0.2312
 1725TIP3    H126590   5.085   4.074   0.118 -0.0271 -0.0952  0.4201
 1725TIP3    H226591   5.150   4.210   0.133  1.0083 -0.6625  1.0840
 1726TIP3   OH226592   1.919   3.841  14.960 -0.0210 -0.4634  0.3926
 1726TIP3    H126593   1.888   3.931  14.973 -2.1146 -1.5243  3.2637
 1726TIP3    H226594   1.898   3.821  14.869 -0.0187  1.7619 -0.1222
 1727TIP3   OH226595   0.741   2.113  14.122 -0.0958  0.0780 -0.0599
 1727TIP3    H126596   0.806   2.071  14.179 -0.0359 -0.6852 -0.6783
 1727TIP3    H226597   0.660   2.064  14.138 -0.9171  1.9804  1.8338
 1728TIP3   OH226598   5.959   0.865   4.275  0.5345 -0.2206  0.3040
 1728TIP3    H126599   5.889   0.874   4.340 -1.2330 -2.3700 -1.2641
 1728TIP3    H226600   5.939   0.933   4.210 -0.0370 -0.7623 -0.0884
 1729TIP3   OH226601   2.425   2.961   2.065  0.2190  0.4158  0.1366
 1729TIP3    H126602   2.410   2.989   2.156 -0.2632  0.7593 -0.0432
 1729TIP3    H226603   2.371   2.882   2.056  3.8166 -2.3338  1.5140
 1730TIP3   OH226604   1.073   3.971  12.254  0.0935 -0.2127 -0.2881
 1730TIP3    H126605   1.043   3.933  12.172  1.0534 -0.6137 -0.4574
 1730TIP3    H226606   1.131   3.904  12.292  0.2252  0.2647  0.3633
 1731TIP3   OH226607   1.694   6.359   5.660  0.2459 -0.3253 -0.5865
 1731TIP3    H126608   1.756   6.345   5.732 -1.1704  0.3923  0.8016
 1731TIP3    H226609   1.620   6.301   5.681 -0.9042  1.1323 -0.5804
 1732TIP3   OH226610   6.017   5.041  12.761  0.1088  0.4447 -0.0653
 1732TIP3    H126611   5.988   4.971  12.702 -0.2974  0.4182  0.1654
 1732TIP3    H226612   5.988   5.013  12.848  1.0350  0.3031  0.2025
 1733TIP3   OH226613   4.738   4.914   3.858  0.3773 -0.7768  0.0116
 1733TIP3    H126614   4.676   4.893   3.927  1.4101 -2.2899  0.5060
 1733TIP3    H226615   4.689   4.969   3.797 -0.6987  0.1203  1.6595
 1734TIP3   OH226616   1.763   2.966   4.063 -0.4614 -0.3368  0.4722
 1734TIP3    H126617   1.708   3.040   4.089 -0.1775  0.5874 -1.4944
 1734TIP3    H226618   1.844   3.006   4.033 -0.5928 -1.3777 -1.3378
 1735TIP3   OH226619   6.340   3.647  15.034 -0.3496  0.2357  0.1869
 1735TIP3    H126620   6.268   3.647  15.098  1.1475 -0.9065  1.9315
 1735TIP3    H226621   6.376   3.558  15.039 -0.0761  0.1903 -2.1368
 1736TIP3   OH226622   2.224   2.616   3.468 -0.2325 -0.7548 -0.0337
 1736TIP3    H126623   2.297   2.677   3.463 -0.3826 -0.3196  2.5175
 1736TIP3    H226624   2.264   2.529   3.457  0.5363 -0.4671  0.4710
 1737TIP3   OH226625   2.064   1.170   0.464 -0.8524 -0.4082  0.6709
 1737TIP3    H126626   1.981   1.162   0.511 -0.4522  1.0910  1.6526
 1737TIP3    H226627   2.109   1.244   0.505  1.2064 -1.5132  0.5005
 1738TIP3   OH226628   0.669   4.453   4.387 -0.4825  0.3054  0.2024
 1738TIP3    H126629   0.597   4.407   4.430  0.1355 -0.4661  0.4249
 1738TIP3    H226630   0.732   4.470   4.457 -0.9249  1.9383  0.2175
 1739TIP3   OH226631   0.523   1.146  11.196 -0.0661  0.1121  0.2683
 1739TIP3    H126632   0.533   1.072  11.255 -0.5027 -0.5076 -0.4143
 1739TIP3    H226633   0.504   1.106  11.111  1.1874  0.9652 -0.4331
 1740TIP3   OH226634   1.377   5.388   4.428  0.3507  0.5236 -0.4727
 1740TIP3    H126635   1.335   5.471   4.405 -0.0405  0.8660  1.3633
 1740TIP3    H226636   1.350   5.327   4.359 -2.8077  0.8717  0.3483
 1741TIP3   OH226637   2.993   3.868   3.107  0.2993  0.5564 -0.3592
 1741TIP3    H126638   3.066   3.894   3.051  2.4978  0.9350  2.5695
 1741TIP3    H226639   2.957   3.951   3.138  0.6369  0.3043  0.7015
 1742TIP3   OH226640   2.044   4.921  17.085  0.1904 -0.0339 -0.5549
 1742TIP3    H126641   1.993   4.862  17.030 -1.0210  0.0569  0.4385
 1742TIP3    H226642   2.086   4.864  17.150 -0.8967  0.1574  0.3420
 1743TIP3   OH226643   1.037   3.441   0.283  0.1649  0.0900 -0.5592
 1743TIP3    H126644   1.097   3.381   0.238 -0.8661 -1.2701 -0.1558
 1743TIP3    H226645   0.957   3.390   0.296 -1.0098  1.7897 -0.8747
 1744TIP3   OH226646   0.216   4.603  14.650 -0.3684  0.3061  0.4294
 1744TIP3    H126647   0.145   4.634  14.593 -0.3372 -0.1426  0.1443
 1744TIP3    H226648   0.184   4.619  14.739 -0.9566 -0.1764  0.3096
 1745TIP3   OH226649   4.602   5.394  16.884 -0.0999  0.0771  0.1216
 1745TIP3    H126650   4.538   5.387  16.956  1.5773 -0.5353  1.5881
 1745TIP3    H226651   4.551   5.378  16.805 -1.5837 -1.3954  1.3339
 1746TIP3   OH226652   5.292   3.519  15.710  0.7637 -0.7481  0.2738
 1746TIP3    H126653   5.210   3.546  15.669 -0.2372 -2.1759  1.2636
 1746TIP3    H226654   5.264   3.463  15.783  2.6360 -1.5345  0.3992
 1747TIP3   OH226655   3.023   0.093  15.502 -0.4328  0.1564 -0.2298
 1747TIP3    H126656   2.988   0.180  15.483 -2.4433 -0.9529 -1.7987
 1747TIP3    H226657   2.961   0.056  15.564 -0.0199 -0.4616 -0.1901
 1748TIP3   OH226658   3.120   3.857  15.303  0.8842 -0.0866  0.6237
 1748TIP3    H126659   3.123   3.911  15.382 -1.4048  2.0034 -0.6673
 1748TIP3    H226660   3.066   3.781  15.327  0.7636  0.2006  1.2615
 1749TIP3   OH226661   5.930   5.162  17.198  0.2024  0.0640  0.6026
 1749TIP3    H126662   5.869   5.186  17.129  0.0894 -0.1186  0.6343
 1749TIP3    H226663   5.885   5.093  17.247  0.4334 -0.0701  0.6286
 1750TIP3   OH226664   4.327   1.415  12.997  0.2081 -0.0711 -0.3612
 1750TIP3    H126665   4.353   1.505  13.018  0.9043 -0.2605 -0.4033
 1750TIP3    H226666   4.394   1.385  12.935 -0.3252 -0.4307 -0.7662
 1751TIP3   OH226667   3.956   6.280  15.921 -0.5755  0.0389  0.0833
 1751TIP3    H126668   3.866   6.302  15.946 -1.1089 -2.4801  0.5219
 1751TIP3    H226669   4.005   6.283  16.003 -0.5380  0.1781  0.0559
 1752TIP3   OH226670   0.731   0.597   0.719  0.9187 -0.3112 -0.3895
 1752TIP3    H126671   0.706   0.597   0.812 -0.9260 -1.8525 -0.8475
 1752TIP3    H226672   0.756   0.688   0.701  1.3820 -0.0004  1.6168
 1753TIP3   OH226673   5.909   1.017   5.164 -1.0065  0.0774 -0.0515
 1753TIP3    H126674   5.889   0.925   5.181 -0.9123  0.2590  1.0896
 1753TIP3    H226675   5.993   1.016   5.118 -0.7828 -0.3801  0.3657
 1754TIP3   OH226676   1.265   3.520  12.177 -0.3851  0.5520  0.8488
 1754TIP3    H126677   1.265   3.494  12.085 -2.7535 -0.0466  1.0036
 1754TIP3    H226678   1.348   3.487  12.211 -0.0526 -0.3098 -0.7687
 1755TIP3   OH226679   3.372   3.974   3.609 -0.2265 -0.1193 -0.6147
 1755TIP3    H126680   3.302   4.033   3.583  0.3203  0.2483 -1.2890
 1755TIP3    H226681   3.328   3.903   3.656 -0.8333  1.1106  0.7334
 1756TIP3   OH226682   0.911   5.580  12.136 -0.4952  0.6276  0.3252
 1756TIP3    H126683   0.958   5.529  12.070 -2.7488 -0.4464 -0.5228
 1756TIP3    H226684   0.958   5.562  12.218 -0.2287 -1.4945 -0.2563
 1757TIP3   OH226685   2.014   6.071  16.133  0.8739  0.7029  0.2741
 1757TIP3    H126686   2.034   6.058  16.040  0.4370 -1.1731  0.4145
 1757TIP3    H226687   1.987   6.162  16.139 -0.9852  0.3292 -1.7981
 1758TIP3   OH226688   3.634   4.464   4.386  0.0035  0.2466  0.6069
 1758TIP3    H126689   3.666   4.460   4.296 -1.3357  1.9067  0.0303
 1758TIP3    H226690   3.712   4.479   4.439  1.0356 -2.3970 -0.0736
 1759TIP3   OH226691   2.423   0.917   0.151 -0.4410  0.4570  0.0581
 1759TIP3    H126692   2.479   0.896   0.226 -0.3437  0.2482 -0.0722
 1759TIP3    H226693   2.354   0.972   0.188  0.6563  1.9182 -0.0624
 1760TIP3   OH226694   4.929   6.430  15.716  0.0255  0.3917 -0.0378
 1760TIP3    H126695   4.875   6.507  15.733 -0.0684  0.1686  0.7052
 1760TIP3    H226696   4.875   6.374  15.661  0.1308  0.8993 -0.6591
 1761TIP3   OH226697   3.589   2.919   2.702 -0.6221  0.0605 -0.1836
 1761TIP3    H126698   3.654   2.879   2.760  0.8679 -0.4898 -2.2037
 1761TIP3    H226699   3.597   3.013   2.719  1.9716  0.1524 -1.6583
 1762TIP3   OH226700   2.052   6.290   4.646  0.3485  0.0251 -0.0950
 1762TIP3    H126701   1.957   6.297   4.636  0.4373  1.3191 -0.2016
 1762TIP3    H226702   2.087   6.339   4.572  1.1132 -1.1827 -0.5396
 1763TIP3   OH226703   0.124   1.173  11.948 -0.0245  0.0771  0.0914
 1763TIP3    H126704   0.214   1.148  11.969 -0.2059  0.2488  1.0758
 1763TIP3    H226705   0.091   1.213  12.028 -0.4046  1.6411 -0.8325
 1764TIP3   OH226706   5.543   5.299  14.827 -1.0700 -0.0009 -0.2366
 1764TIP3    H126707   5.474   5.269  14.886 -1.2205  1.1280  0.1707
 1764TIP3    H226708   5.555   5.227  14.766 -2.6301 -0.1836 -0.3431
 1765TIP3   OH226709   3.823   4.879  14.356  0.4443  0.4579  0.4104
 1765TIP3    H126710   3.898   4.872  14.298  0.0011  2.0099 -0.3915
 1765TIP3    H226711   3.792   4.790  14.368  2.0978 -0.1371  0.3382
 1766TIP3   OH226712   2.147   5.588  16.198  0.1867  0.4885  0.1389
 1766TIP3    H126713   2.235   5.599  16.233  0.2303  1.1348 -0.1664
 1766TIP3    H226714   2.114   5.509  16.241  0.2747  1.2122  1.5805
 1767TIP3   OH226715   3.934   2.330   0.472  0.0820  0.0596 -0.9615
 1767TIP3    H126716   4.001   2.387   0.511 -0.6319 -0.2896  0.8231
 1767TIP3    H226717   3.872   2.313   0.544 -0.9474 -1.0981 -2.0963
 1768TIP3   OH226718   3.478   5.209  16.571  0.2920 -0.0179 -0.2462
 1768TIP3    H126719   3.481   5.303  16.550  0.1541 -0.0891 -0.5919
 1768TIP3    H226720   3.476   5.206  16.667  0.6354  0.3236 -0.2235
 1769TIP3   OH226721   6.141   4.113   3.969 -0.4825  0.1012 -0.0078
 1769TIP3    H126722   6.123   4.086   4.059  1.1818 -1.6863 -0.1831
 1769TIP3    H226723   6.233   4.140   3.970 -0.5212  0.3204 -1.1268
 1770TIP3   OH226724   6.733   6.773  15.383  0.1059  0.2194  0.0690
 1770TIP3    H126725   6.650   6.805  15.349  0.2463  2.5468  1.8285
 1770TIP3    H226726   6.727   6.786  15.477  1.3947 -2.1627  0.5215
 1771TIP3   OH226727   5.683   2.478   3.796 -0.2307 -0.0900  0.5763
 1771TIP3    H126728   5.760   2.498   3.744 -0.7326  0.4417  0.0292
 1771TIP3    H226729   5.698   2.524   3.879 -0.5158  1.0683  0.0117
 1772TIP3   OH226730   6.125   3.761   5.487  0.2631  0.3169 -0.0402
 1772TIP3    H126731   6.154   3.836   5.539  0.1668  0.7219 -0.5727
 1772TIP3    H226732   6.142   3.786   5.397 -0.3527 -0.0555 -0.2631
 1773TIP3   OH226733   4.164   3.113  13.923  0.1508 -0.0287 -0.2468
 1773TIP3    H126734   4.202   3.101  14.010 -1.2726  1.1105  0.5456
 1773TIP3    H226735   4.124   3.029  13.902  0.0578 -0.1480  0.4143
 1774TIP3   OH226736   0.337   1.420   4.422 -0.1389  0.1116 -0.1751
 1774TIP3    H126737   0.404   1.359   4.391  1.0693  0.9180  0.7943
 1774TIP3    H226738   0.299   1.378   4.499  0.1301  0.2050  0.0107
 1775TIP3   OH226739   4.013   5.443  14.268  0.0122 -0.1017  0.5442
 1775TIP3    H126740   4.048   5.423  14.355 -1.5704 -1.0320  0.9944
 1775TIP3    H226741   4.089   5.471  14.217  0.9597  0.4917  2.2292
 1776TIP3   OH226742   6.242   3.409  14.534  0.5542  0.1658 -0.6731
 1776TIP3    H126743   6.335   3.390  14.545  0.6166  0.9346  0.1674
 1776TIP3    H226744   6.236   3.446  14.445  0.8956 -0.7483 -1.0852
 1777TIP3   OH226745   3.682   4.809   2.102  0.8175  0.7605  0.4472
 1777TIP3    H126746   3.664   4.902   2.118  1.8733  0.9324  0.6792
 1777TIP3    H226747   3.774   4.798   2.127  1.3197  0.1194 -1.5590
 1778TIP3   OH226748   3.358   0.596  15.304 -0.3126  0.1048  0.3717
 1778TIP3    H126749   3.341   0.600  15.398 -0.5707 -2.5693  0.4969
 1778TIP3    H226750   3.353   0.502  15.283 -0.4592  0.6659 -2.3385
 1779TIP3   OH226751   2.726   6.335   5.121 -0.1212  0.3104  0.3370
 1779TIP3    H126752   2.767   6.281   5.189  1.7862 -0.5185 -1.4262
 1779TIP3    H226753   2.660   6.278   5.082  0.6240 -0.1408 -0.2831
 1780TIP3   OH226754   3.156   3.466  11.496  0.0785 -0.1040  0.0612
 1780TIP3    H126755   3.133   3.416  11.418  0.6775 -1.1266  0.5297
 1780TIP3    H226756   3.190   3.549  11.462  1.6674 -1.0810 -0.8233
 1781TIP3   OH226757   1.571   6.450  11.384 -0.3610  0.5722  0.0457
 1781TIP3    H126758   1.499   6.403  11.427 -0.4947 -0.2132 -1.0121
 1781TIP3    H226759   1.650   6.408  11.417 -0.4595  0.0467 -0.3723
 1782TIP3   OH226760   5.736   4.637  13.429  0.0668  0.0123  0.1349
 1782TIP3    H126761   5.784   4.622  13.510 -0.4256  0.2179  0.4637
 1782TIP3    H226762   5.646   4.615  13.450 -0.3432  1.5872  0.1035
 1783TIP3   OH226763   5.757   0.870  10.940 -0.3679  0.3871 -0.4024
 1783TIP3    H126764   5.800   0.804  10.885  1.4344  1.3739 -0.1936
 1783TIP3    H226765   5.665   0.846  10.938  0.3843 -2.9334  0.6821
 1784TIP3   OH226766   3.575   3.716  17.190 -0.0656 -0.1945  0.3628
 1784TIP3    H126767   3.513   3.664  17.139  2.4474 -1.6482 -1.2965
 1784TIP3    H226768   3.571   3.804  17.151 -0.8132 -0.3577  0.0627
 1785TIP3   OH226769   1.056   0.241   1.668  0.4605  0.2302  0.5433
 1785TIP3    H126770   0.994   0.168   1.671  0.8909 -0.1142  1.0200
 1785TIP3    H226771   1.058   0.266   1.575 -0.1952  0.0748  0.4842
 1786TIP3   OH226772   2.233   1.941   5.402  0.4450 -0.4953  0.1613
 1786TIP3    H126773   2.291   2.012   5.431 -0.0594  0.3320 -0.8303
 1786TIP3    H226774   2.292   1.874   5.367  0.8572 -0.1168  0.1403
 1787TIP3   OH226775   0.097   4.554   0.418 -0.1631  0.5310  0.0763
 1787TIP3    H126776   0.150   4.491   0.369  1.0564  0.3289  1.6406
 1787TIP3    H226777   0.160   4.605   0.469 -1.3914  0.9557  1.1904
 1788TIP3   OH226778   2.133   0.240  13.611  0.1806 -0.0393  0.1944
 1788TIP3    H126779   2.064   0.267  13.550  0.5745 -0.1936 -0.3182
 1788TIP3    H226780   2.193   0.315  13.614 -0.2796  0.2961  1.0354
 1789TIP3   OH226781   1.477   0.805  11.649 -0.4462  0.0797 -0.6842
 1789TIP3    H126782   1.426   0.870  11.601 -0.8189 -0.1187 -0.5531
 1789TIP3    H226783   1.412   0.750  11.692 -0.1127  0.1428 -0.1017
 1790TIP3   OH226784   5.470   0.796  12.264  0.0456  0.6382  0.0167
 1790TIP3    H126785   5.507   0.861  12.205  1.0678 -1.1836 -1.4302
 1790TIP3    H226786   5.414   0.741  12.208  1.6761 -1.6128  0.5085
 1791TIP3   OH226787   2.760   3.037  11.875 -0.1465 -0.0866 -0.5218
 1791TIP3    H126788   2.855   3.034  11.882 -0.3239 -2.0982  1.7594
 1791TIP3    H226789   2.738   2.965  11.815 -0.3374 -0.7447  0.3380
 1792TIP3   OH226790   2.087   6.611  13.425 -0.3282 -0.0936 -0.4388
 1792TIP3    H126791   2.173   6.572  13.412  0.8854  2.5133 -0.5363
 1792TIP3    H226792   2.053   6.569  13.504 -0.5116 -3.6592 -2.2853
 1793TIP3   OH226793   0.397   6.203   5.500 -0.0622 -0.4437  0.0012
 1793TIP3    H126794   0.358   6.161   5.576  0.8926 -1.2245  0.0770
 1793TIP3    H226795   0.334   6.190   5.429 -0.0891 -1.3761  0.2012
 1794TIP3   OH226796   0.761   4.504  14.842 -0.2374 -0.3324 -0.0456
 1794TIP3    H126797   0.676   4.470  14.816 -1.0318  0.7400  1.0842
 1794TIP3    H226798   0.741   4.574  14.904  1.4846 -0.4545  0.6752
 1795TIP3   OH226799   5.421   2.584   5.215 -0.7642  0.3526 -0.1498
 1795TIP3    H126800   5.438   2.621   5.129  1.7474 -1.3563 -0.4318
 1795TIP3    H226801   5.371   2.504   5.197 -0.1533 -0.0580 -0.0530
 1796TIP3   OH226802   2.393   0.222   4.865  0.4430  0.0344  0.1270
 1796TIP3    H126803   2.385   0.303   4.916  0.9172 -0.7552  1.5031
 1796TIP3    H226804   2.305   0.204   4.833 -0.0419  0.1058  1.3878
 1797TIP3   OH226805   5.036   0.924   3.198  0.3964 -0.0336  0.0751
 1797TIP3    H126806   4.959   0.878   3.164  0.9375 -0.4472 -0.5941
 1797TIP3    H226807   5.008   1.015   3.208  0.0624 -0.0338 -0.8916
 1798TIP3   OH226808   3.720   0.497  12.394  0.1315 -0.1172 -0.0460
 1798TIP3    H126809   3.743   0.438  12.466 -1.0090 -0.4228  0.0739
 1798TIP3    H226810   3.728   0.443  12.315 -1.7120 -0.6687  0.1354
 1799TIP3   OH226811   1.226   5.933  13.481  0.4783 -0.1167 -0.1901
 1799TIP3    H126812   1.271   6.017  13.471  0.2935  0.0724  0.5362
 1799TIP3    H226813   1.254   5.881  13.405  1.4409  0.2187 -0.0739
 1800TIP3   OH226814   0.605   0.677  12.289 -0.1808  0.1539 -0.1613
 1800TIP3    H126815   0.673   0.695  12.354 -0.1139  1.4760 -0.5834
 1800TIP3    H226816   0.522   0.689  12.336 -0.1397  1.8705 -0.5043
 1801TIP3   OH226817   5.902   1.580   0.671 -0.1967  0.0228  0.2889
 1801TIP3    H126818   5.949   1.529   0.737 -1.0876 -1.4869 -0.2071
 1801TIP3    H226819   5.842   1.517   0.631  0.0852  0.9874 -1.7203
 1802TIP3   OH226820   0.076   1.365   2.449  0.2393  0.9456 -0.3230
 1802TIP3    H126821   0.096   1.369   2.542  0.8148 -0.1241 -0.3959
 1802TIP3    H226822  -0.020   1.362   2.445  0.2012  1.3912  0.2065
 1803TIP3   OH226823   2.781   5.571   2.652 -0.1483  0.0812  0.1369
 1803TIP3    H126824   2.707   5.624   2.621 -0.6107 -0.1736  0.7759
 1803TIP3    H226825   2.842   5.635   2.689 -0.1246  0.2783 -0.2406
 1804TIP3   OH226826   2.057   0.022  16.719 -0.4744  0.3545  0.5636
 1804TIP3    H126827   2.150   0.039  16.732 -0.3097  0.1330 -0.3158
 1804TIP3    H226828   2.048  -0.072  16.733 -0.7369  0.5357  1.6360
 1805TIP3   OH226829   0.412   4.527   3.433 -0.0030 -0.9351 -0.3348
 1805TIP3    H126830   0.392   4.592   3.499  1.2530  0.3437 -1.1787
 1805TIP3    H226831   0.487   4.479   3.468  0.6079 -0.3140 -0.7605
 1806TIP3   OH226832   2.525   6.234  10.587 -0.6327  0.4798  0.9003
 1806TIP3    H126833   2.468   6.310  10.595 -1.6149 -0.3219  1.6564
 1806TIP3    H226834   2.503   6.179  10.662  0.5356 -0.2425  0.7313
 1807TIP3   OH226835   4.779   4.423  12.512 -0.9616 -0.0782 -0.2335
 1807TIP3    H126836   4.821   4.337  12.522  0.8459  0.4852 -2.5013
 1807TIP3    H226837   4.737   4.420  12.427 -1.9394  0.8731  0.2008
 1808TIP3   OH226838   6.622   3.543  15.569  0.2881  0.4475  0.0271
 1808TIP3    H126839   6.604   3.564  15.660  1.9248  1.5487  0.1244
 1808TIP3    H226840   6.701   3.491  15.571 -0.1409 -0.2406 -0.7121
 1809TIP3   OH226841   1.767   2.133   2.297  0.4220  0.5757 -0.0630
 1809TIP3    H126842   1.809   2.055   2.334  0.4907  0.3175 -0.6820
 1809TIP3    H226843   1.791   2.203   2.357  0.0884  0.0583  0.6728
 1810TIP3   OH226844   0.505   4.624   4.814  0.0661 -0.3753  0.0777
 1810TIP3    H126845   0.568   4.626   4.886  1.1455 -0.1948 -0.8511
 1810TIP3    H226846   0.473   4.534   4.812 -0.7727 -0.1177  1.4536
 1811TIP3   OH226847   0.977   5.321   3.329  0.5572 -0.1257 -0.1924
 1811TIP3    H126848   0.944   5.359   3.411  1.3737  2.6820 -1.1046
 1811TIP3    H226849   1.071   5.340   3.330  1.0242 -2.2938 -0.6395
 1812TIP3   OH226850   4.155   5.330   5.785  0.0343 -0.2417  0.0095
 1812TIP3    H126851   4.081   5.338   5.725  1.1137  0.0791 -1.2832
 1812TIP3    H226852   4.114   5.328   5.872 -1.2543  3.7180 -0.4233
 1813TIP3   OH226853   1.051   6.724   1.452 -0.0216 -0.5321  0.3582
 1813TIP3    H126854   1.142   6.702   1.430  1.0865  2.7343  1.4042
 1813TIP3    H226855   1.026   6.790   1.387 -1.3076 -0.6515  0.7250
 1814TIP3   OH226856   3.956   6.171   5.716 -0.0000 -0.0169 -0.5590
 1814TIP3    H126857   3.906   6.133   5.788 -1.8467  0.8007 -1.3772
 1814TIP3    H226858   4.002   6.245   5.755 -2.0837  1.2721 -0.4655
 1815TIP3   OH226859   4.829   2.440   0.062  0.4204  0.0071 -0.5566
 1815TIP3    H126860   4.801   2.375   0.126 -0.0279  0.2009 -0.5502
 1815TIP3    H226861   4.901   2.399   0.014 -0.3318 -0.7651 -1.0341
 1816TIP3   OH226862   2.477   0.438  15.914 -0.2871 -0.7686 -0.0977
 1816TIP3    H126863   2.460   0.436  16.008  0.6552 -0.4284  0.0877
 1816TIP3    H226864   2.404   0.488  15.878  0.6798  1.3876  0.7891
 1817TIP3   OH226865   2.600   6.357   1.055 -0.1602  0.3492 -0.5548
 1817TIP3    H126866   2.586   6.425   1.120 -1.2945 -0.8134  0.4547
 1817TIP3    H226867   2.675   6.307   1.086  0.3732  0.8428 -1.0442
 1818TIP3   OH226868   3.212   2.863  10.715 -0.7564  0.0607  0.0609
 1818TIP3    H126869   3.134   2.834  10.761  0.4153 -1.0174  1.4195
 1818TIP3    H226870   3.244   2.938  10.766 -0.2952 -0.1895  0.1388
 1819TIP3   OH226871   4.690   3.548  11.532 -0.0126  0.3197 -0.1057
 1819TIP3    H126872   4.658   3.550  11.622  0.4687 -1.4322  0.1052
 1819TIP3    H226873   4.639   3.480  11.489  1.5209 -0.6093 -0.4876
 1820TIP3   OH226874   0.090   6.083   2.018 -0.2694 -0.1770 -0.1092
 1820TIP3    H126875   0.167   6.025   2.022 -0.0409  0.1387  0.1448
 1820TIP3    H226876   0.057   6.074   1.929 -0.4406 -0.9654  0.0278
 1821TIP3   OH226877   5.597   1.274   5.810 -0.8011  0.1365 -0.4524
 1821TIP3    H126878   5.518   1.222   5.820  0.2384 -1.2814  0.5904
 1821TIP3    H226879   5.583   1.350   5.867 -1.0853 -0.5041  0.3391
 1822TIP3   OH226880   4.511   3.846   4.855  0.2247  0.2627  0.3050
 1822TIP3    H126881   4.429   3.863   4.901  0.7422 -1.0543  1.7421
 1822TIP3    H226882   4.576   3.897   4.902  0.3799  0.7664 -0.4288
 1823TIP3   OH226883   5.350   0.730  16.999  0.4411 -0.1114  0.0236
 1823TIP3    H126884   5.342   0.753  16.907  0.1605 -2.0359 -0.4621
 1823TIP3    H226885   5.261   0.736  17.033 -0.2377 -3.6367 -0.9283
 1824TIP3   OH226886   1.910   2.553  16.754 -0.0301  0.0888 -0.8886
 1824TIP3    H126887   1.939   2.642  16.772 -2.1129  0.5986  0.1181
 1824TIP3    H226888   1.961   2.498  16.814  0.9690  0.6326 -1.2315
 1825TIP3   OH226889   1.858   6.551  15.973  0.3514 -0.4356  0.2681
 1825TIP3    H126890   1.802   6.473  15.976 -0.6544  0.1794 -1.4999
 1825TIP3    H226891   1.801   6.623  15.999  0.9840 -0.1395  0.8467
 1826TIP3   OH226892   4.159   3.409  15.948  0.8667 -0.2880 -0.1322
 1826TIP3    H126893   4.107   3.406  15.867  2.3478 -2.7193 -1.0787
 1826TIP3    H226894   4.172   3.502  15.965 -3.3258  0.3716 -0.1183
 1827TIP3   OH226895   0.479   1.747   1.721 -0.2914  0.1260 -0.4780
 1827TIP3    H126896   0.556   1.717   1.770 -1.0953 -2.3595 -0.7137
 1827TIP3    H226897   0.508   1.751   1.630 -0.3369 -0.4558 -0.5175
 1828TIP3   OH226898   1.588   3.380   0.280  0.2300 -0.0407 -0.1489
 1828TIP3    H126899   1.556   3.340   0.200 -0.3602 -1.9096  0.9817
 1828TIP3    H226900   1.526   3.450   0.300 -0.8728 -1.0076 -0.1510
 1829TIP3   OH226901   6.537   4.918  10.331 -0.5192  0.2129  0.3258
 1829TIP3    H126902   6.488   4.914  10.413 -1.5050  0.1502 -0.2564
 1829TIP3    H226903   6.629   4.922  10.358 -0.8313  0.1352  1.4262
 1830TIP3   OH226904   5.330   1.773  15.829  0.2383  0.5602 -0.3961
 1830TIP3    H126905   5.292   1.689  15.857 -0.3499  1.1284  0.5287
 1830TIP3    H226906   5.255   1.828  15.809  0.6320  0.5112 -2.1547
 1831TIP3   OH226907   5.572   1.753   5.778 -0.0903  0.7179 -0.3461
 1831TIP3    H126908   5.540   1.664   5.796 -1.5406  1.5366  1.3371
 1831TIP3    H226909   5.611   1.747   5.691  2.1323 -2.1616  0.7690
 1832TIP3   OH226910   3.336   5.694  16.655  0.5198  0.2754 -0.4544
 1832TIP3    H126911   3.265   5.746  16.617 -0.7637 -2.9529 -2.7832
 1832TIP3    H226912   3.292   5.631  16.712  1.8765  0.7030  1.0877
 1833TIP3   OH226913   0.553   2.698   4.192 -0.6047  0.0237  0.2746
 1833TIP3    H126914   0.604   2.668   4.117 -3.6710 -0.5448 -1.6654
 1833TIP3    H226915   0.591   2.653   4.267  0.5245 -1.8447 -1.3761
 1834TIP3   OH226916   5.356   4.362  14.953 -0.2390  0.0545 -0.5381
 1834TIP3    H126917   5.354   4.431  15.019 -0.3921  0.6767 -1.1913
 1834TIP3    H226918   5.381   4.406  14.872  0.5235 -0.8080 -0.7774
 1835TIP3   OH226919   2.270   2.508  16.181  0.0425 -0.1645  0.5675
 1835TIP3    H126920   2.325   2.573  16.138 -0.2679 -1.6427 -2.1784
 1835TIP3    H226921   2.326   2.432  16.192 -0.4586 -0.4800  0.9759
 1836TIP3   OH226922   0.295   2.025   4.179 -0.2276  0.2468 -0.1739
 1836TIP3    H126923   0.387   2.036   4.156 -0.3986  0.2727 -0.8467
 1836TIP3    H226924   0.249   2.094   4.132 -0.5214  0.6475  0.6771
 1837TIP3   OH226925   4.138   3.627   6.105 -0.3861  0.0122 -0.0359
 1837TIP3    H126926   4.115   3.620   6.197 -0.7749  0.9620 -0.0590
 1837TIP3    H226927   4.111   3.715   6.079  0.2343 -0.0402 -0.9138
 1838TIP3   OH226928   3.657   1.487  10.463 -0.6266 -0.7922  0.6434
 1838TIP3    H126929   3.567   1.456  10.456 -0.7478 -0.8555  2.3414
 1838TIP3    H226930   3.664   1.522  10.552  0.2496  1.6668 -0.3554
 1839TIP3   OH226931   0.486   0.489   5.886  0.2504 -0.8986 -0.5422
 1839TIP3    H126932   0.544   0.422   5.851 -0.2384 -2.1116  0.9141
 1839TIP3    H226933   0.409   0.441   5.916 -0.2057  0.3319  0.3134
 1840TIP3   OH226934   5.010   2.871  12.267 -0.2150 -0.3457 -0.4076
 1840TIP3    H126935   4.935   2.839  12.318 -0.0389  0.9456  0.6780
 1840TIP3    H226936   5.086   2.852  12.321 -0.0126  0.8996 -0.2440
 1841TIP3   OH226937   6.252   6.365  14.114  0.0309  0.2062  0.2509
 1841TIP3    H126938   6.218   6.380  14.202  0.7883  0.3564  0.5195
 1841TIP3    H226939   6.198   6.294  14.079  1.7326 -2.0029  1.9807
 1842TIP3   OH226940   4.212   3.444  12.549  0.4220 -0.8195  0.1444
 1842TIP3    H126941   4.298   3.405  12.538  1.3207  0.7521  1.3150
 1842TIP3    H226942   4.198   3.445  12.644 -0.1207  0.4998  0.0680
 1843TIP3   OH226943   4.071   6.570  16.434 -0.1262  0.9594 -0.0242
 1843TIP3    H126944   4.072   6.593  16.526 -1.8764  0.4808  0.1340
 1843TIP3    H226945   4.143   6.507  16.424  0.5567  1.5982  0.8451
 1844TIP3   OH226946   0.729   3.499   4.914  0.2316  0.0122  0.2522
 1844TIP3    H126947   0.669   3.427   4.894 -0.1145 -0.4263  2.7404
 1844TIP3    H226948   0.678   3.578   4.899  0.2205 -0.2692 -1.2717
 1845TIP3   OH226949   3.677   4.093  13.172 -0.6683  0.3298 -0.4295
 1845TIP3    H126950   3.632   4.170  13.207 -1.5644  0.2003 -1.2713
 1845TIP3    H226951   3.610   4.048  13.120 -0.0669 -0.8538 -0.1928
 1846TIP3   OH226952   3.117   6.392   0.947 -0.8300  0.0655 -0.6875
 1846TIP3    H126953   3.038   6.441   0.967 -1.6616 -1.1337 -0.9733
 1846TIP3    H226954   3.094   6.301   0.965  0.8555 -0.1855  0.3703
 1847TIP3   OH226955   5.904   4.131  15.591  0.2167 -0.1084  0.5278
 1847TIP3    H126956   5.903   4.061  15.656  0.0604  0.9216  1.6565
 1847TIP3    H226957   5.993   4.167  15.597  0.1518  0.0922  0.2841
 1848TIP3   OH226958   3.780   4.883  16.895  0.2087  0.1402 -0.8490
 1848TIP3    H126959   3.782   4.973  16.929  0.7578  0.3416 -1.3982
 1848TIP3    H226960   3.704   4.843  16.937  0.3569  0.6572 -0.0820
 1849TIP3   OH226961   4.920   2.879  13.727 -0.2521  0.0026 -0.1499
 1849TIP3    H126962   4.963   2.805  13.685  0.3923 -0.7942  1.8825
 1849TIP3    H226963   4.989   2.921  13.778 -1.3453  0.0542  1.3156
 1850TIP3   OH226964   6.145   5.322  16.583 -0.3458 -0.0273 -0.8039
 1850TIP3    H126965   6.208   5.326  16.655 -0.1924 -0.1947 -0.9301
 1850TIP3    H226966   6.070   5.275  16.620 -0.5582  0.5184 -0.5374
 1851TIP3   OH226967   4.979   1.119   1.375  0.6283  0.0495 -0.0320
 1851TIP3    H126968   4.974   1.112   1.471  0.5327  0.4738 -0.0044
 1851TIP3    H226969   4.991   1.029   1.345  0.3454 -0.1210  0.3606
 1852TIP3   OH226970   4.926   3.018   4.648  0.5336  0.0616 -0.0709
 1852TIP3    H126971   4.892   3.013   4.559 -0.0160 -1.0783  0.1832
 1852TIP3    H226972   4.902   2.933   4.687  0.8442  0.5148  1.1256
 1853TIP3   OH226973   0.726   6.663  12.091 -0.1739  0.1440 -0.1027
 1853TIP3    H126974   0.675   6.631  12.165 -0.3716  2.1263  0.6485
 1853TIP3    H226975   0.672   6.643  12.014  0.8512 -3.5593  0.0816
 1854TIP3   OH226976   5.163   6.249   2.656 -0.4901 -0.3157 -0.2393
 1854TIP3    H126977   5.102   6.261   2.729  0.9576  0.3002  0.8999
 1854TIP3    H226978   5.247   6.232   2.698  0.4969  0.6874 -1.7696
 1855TIP3   OH226979   0.628   5.030   3.244 -0.0240  0.1420  0.9047
 1855TIP3    H126980   0.564   5.075   3.190  0.4701 -1.8228 -1.3834
 1855TIP3    H226981   0.582   4.954   3.278  0.1896  0.4251  1.8411
 1856TIP3   OH226982   4.791   0.669  17.055 -0.5411  0.1543  0.2098
 1856TIP3    H126983   4.700   0.685  17.033 -0.3858  0.3985 -0.2704
 1856TIP3    H226984   4.817   0.597  16.998 -0.2245  0.5893 -0.2120
 1857TIP3   OH226985   1.132   2.663  13.997  0.1497  0.0794 -0.5273
 1857TIP3    H126986   1.163   2.721  14.066  0.3041 -0.2063 -0.3510
 1857TIP3    H226987   1.185   2.685  13.921 -0.1917  0.5674 -0.6264
 1858TIP3   OH226988   1.991   2.880  14.576  0.7639  0.3063  0.2703
 1858TIP3    H126989   2.021   2.959  14.531  1.5082 -0.9229 -1.4621
 1858TIP3    H226990   2.071   2.836  14.604  0.3872 -0.3083  0.3945
 1859TIP3   OH226991   4.637   3.411   1.846  0.1757 -0.2010  0.2850
 1859TIP3    H126992   4.584   3.448   1.917 -1.6505  1.4351 -1.8641
 1859TIP3    H226993   4.727   3.431   1.870 -0.3981  0.3254  2.1206
 1860TIP3   OH226994   2.073   3.086   3.708 -0.2116 -0.3107 -0.0505
 1860TIP3    H126995   1.984   3.107   3.737 -1.1170 -2.2909 -1.3026
 1860TIP3    H226996   2.110   3.035   3.780  0.2271  1.2185  0.8289
 1861TIP3   OH226997   5.743   5.534  13.342  0.1073  0.0884  0.5330
 1861TIP3    H126998   5.708   5.446  13.353 -0.5634  0.3140  0.2503
 1861TIP3    H226999   5.740   5.572  13.430 -0.0312 -0.0181  0.5743
 1862TIP3   OH227000   6.584   0.720   5.384  0.1973  0.0364  0.4775
 1862TIP3    H127001   6.667   0.727   5.338  1.0469  0.3024  2.0023
 1862TIP3    H227002   6.559   0.628   5.374  0.2323  0.1593 -0.7336
 1863TIP3   OH227003   0.922   5.821  11.405  0.2132  0.6720  0.6035
 1863TIP3    H127004   0.990   5.783  11.460  0.2646 -0.6065 -0.3217
 1863TIP3    H227005   0.969   5.877  11.343  0.4858 -0.6357 -0.3861
 1864TIP3   OH227006   2.524   3.600   2.956  0.1546  0.3130 -0.4932
 1864TIP3    H127007   2.614   3.605   2.989  0.1570 -0.5072 -0.3504
 1864TIP3    H227008   2.522   3.519   2.905 -0.1729  0.9634 -1.5163
 1865TIP3   OH227009   3.101   5.309   3.164  0.4944 -0.0322  0.6301
 1865TIP3    H127010   3.018   5.308   3.213  0.2998  2.2804  0.4289
 1865TIP3    H227011   3.139   5.394   3.184  0.6009  0.8580 -2.8942
 1866TIP3   OH227012   0.584   1.054   2.260 -0.4809  0.0175 -0.1766
 1866TIP3    H127013   0.631   1.062   2.343 -1.0975 -1.1959  0.2973
 1866TIP3    H227014   0.583   1.142   2.224  0.6571  0.3634  0.6384
 1867TIP3   OH227015   5.304   2.284  13.998  0.0871 -0.5372 -0.0346
 1867TIP3    H127016   5.395   2.271  13.972 -0.0331 -0.7593 -0.3524
 1867TIP3    H227017   5.306   2.359  14.057  0.2409  0.5133 -1.3628
 1868TIP3   OH227018   5.208   2.525  16.782  0.2840  0.6301 -0.2681
 1868TIP3    H127019   5.151   2.460  16.740  0.1857 -0.6854  1.8092
 1868TIP3    H227020   5.151   2.572  16.842  0.4052  2.5634 -1.5992
 1869TIP3   OH227021   0.328   0.932  11.400 -0.0796 -0.6709  1.0285
 1869TIP3    H127022   0.410   0.933  11.350  0.0766 -1.5255  1.2548
 1869TIP3    H227023   0.266   0.978  11.344  0.4323 -0.4435  0.6386
 1870TIP3   OH227024   1.364   1.890   6.450  1.0320  0.1484  0.7260
 1870TIP3    H127025   1.339   1.802   6.477 -1.0025  0.6104  0.3770
 1870TIP3    H227026   1.417   1.924   6.522  3.4815 -2.0350  0.0521
 1871TIP3   OH227027   0.142   2.005  14.862 -0.1881  0.5373  0.0463
 1871TIP3    H127028   0.208   2.059  14.819 -0.1912  0.1587 -0.4265
 1871TIP3    H227029   0.150   2.028  14.955 -0.4957  1.6859 -0.1954
 1872TIP3   OH227030   6.463   1.369   3.653  0.0508  0.2174 -0.5613
 1872TIP3    H127031   6.397   1.307   3.685  0.0320  0.1770 -0.6798
 1872TIP3    H227032   6.498   1.409   3.733  0.6764 -0.5779 -0.4354
 1873TIP3   OH227033   4.700   1.302   3.770 -0.1785 -0.5552  0.4070
 1873TIP3    H127034   4.679   1.263   3.685  0.9344 -1.2028  0.4325
 1873TIP3    H227035   4.742   1.385   3.748 -1.2257 -0.0276  0.3464
 1874TIP3   OH227036   4.058   3.513   4.088  0.1488  0.3389 -0.0462
 1874TIP3    H127037   4.090   3.528   4.177  0.3565 -2.3028  0.3650
 1874TIP3    H227038   4.134   3.479   4.041 -0.3960  0.1854 -0.8161
 1875TIP3   OH227039   4.650   4.380  11.769 -0.4082  0.1042 -0.5308
 1875TIP3    H127040   4.710   4.454  11.782 -0.2469 -0.2503  0.8093
 1875TIP3    H227041   4.604   4.373  11.853  0.0880 -1.7829 -0.4136
 1876TIP3   OH227042   2.430   2.615  15.589 -0.5035 -0.3167 -0.2281
 1876TIP3    H127043   2.415   2.665  15.509  2.1552 -1.3635 -1.4461
 1876TIP3    H227044   2.500   2.662  15.634 -0.7039 -0.7680  0.5628
 1877TIP3   OH227045   6.012   2.295   5.669  0.4107  0.1619  0.1136
 1877TIP3    H127046   6.029   2.211   5.628 -1.2694  0.0228 -0.3655
 1877TIP3    H227047   6.002   2.276   5.762  0.9748 -0.0180  0.1374
 1878TIP3   OH227048   3.907   3.906   6.483 -0.0366 -0.5317 -0.0252
 1878TIP3    H127049   3.863   3.955   6.413 -1.1585 -0.8165  0.4597
 1878TIP3    H227050   3.990   3.878   6.445 -0.7910 -0.9862 -1.3854
 1879TIP3   OH227051   0.408   4.308   6.198  0.1420  1.1200  0.2126
 1879TIP3    H127052   0.338   4.339   6.256  0.5352  2.1299  0.1695
 1879TIP3    H227053   0.487   4.315   6.251  0.1804 -0.3119  0.3635
 1880TIP3   OH227054   2.777   1.529  15.886 -0.3368  0.8607  0.3248
 1880TIP3    H127055   2.819   1.615  15.884 -1.9398  1.6456 -0.8015
 1880TIP3    H227056   2.812   1.483  15.809 -0.7681  1.1325 -0.0331
 1881TIP3   OH227057   1.506   4.208   1.139 -0.1033 -0.0533 -0.3043
 1881TIP3    H127058   1.567   4.137   1.124 -0.8811 -0.6659 -0.6030
 1881TIP3    H227059   1.530   4.243   1.225  1.3409  0.4183 -0.8885
 1882TIP3   OH227060   6.472   0.129   5.227 -0.3450  0.7643  0.3454
 1882TIP3    H127061   6.520   0.059   5.183  0.1744  0.8426  0.7830
 1882TIP3    H227062   6.523   0.147   5.307  0.2439  2.5204 -0.3915
 1883TIP3   OH227063   2.284   6.222   0.632 -0.0755 -0.4397 -1.0371
 1883TIP3    H127064   2.225   6.240   0.706 -0.9690  0.4735 -1.9658
 1883TIP3    H227065   2.343   6.298   0.630 -1.8461  0.9408 -2.9936
 1884TIP3   OH227066   1.701   6.425  13.269 -0.8761 -0.3431  0.4191
 1884TIP3    H127067   1.765   6.484  13.230  1.2124 -1.5032  2.0435
 1884TIP3    H227068   1.636   6.412  13.200  0.7068  0.7197 -1.3139
 1885TIP3   OH227069   2.084   0.841  16.944  0.0601 -0.3555  0.2201
 1885TIP3    H127070   2.041   0.910  16.892  0.2841 -1.3313 -1.2962
 1885TIP3    H227071   2.013   0.781  16.968  0.5644 -2.2275 -2.6960
 1886TIP3   OH227072   6.435   4.135  16.822 -0.1700 -0.2443  0.1753
 1886TIP3    H127073   6.469   4.187  16.749 -0.7721  0.9622  0.7430
 1886TIP3    H227074   6.360   4.088  16.786 -0.8347  0.8137  0.1587
 1887TIP3   OH227075   6.666   2.962   3.554  0.2083  0.3664 -0.0023
 1887TIP3    H127076   6.659   2.991   3.645  1.4091 -0.1650  0.2676
 1887TIP3    H227077   6.743   3.008   3.520  0.0920  0.1284 -0.5891
 1888TIP3   OH227078   0.222   2.484   3.076  0.4839 -0.1995 -0.0146
 1888TIP3    H127079   0.244   2.510   3.166 -1.9287 -1.6625  1.0519
 1888TIP3    H227080   0.306   2.480   3.031  1.5444  3.0745  1.4552
 1889TIP3   OH227081   4.122   3.586  13.598 -0.4737 -0.3451 -0.5468
 1889TIP3    H127082   4.184   3.641  13.549  0.6192  0.1230  1.3225
 1889TIP3    H227083   4.158   3.498  13.590  0.8738  0.0155  1.1099
 1890TIP3   OH227084   1.321   6.252  13.098 -0.3401  0.2181  0.3422
 1890TIP3    H127085   1.409   6.289  13.108 -1.0066  1.7770  0.5351
 1890TIP3    H227086   1.301   6.263  13.005 -0.4163  0.0798  0.3427
 1891TIP3   OH227087   2.931   4.960   2.042  0.6717  0.7685  0.0700
 1891TIP3    H127088   3.013   4.973   2.089  0.8370  0.1879 -0.0517
 1891TIP3    H227089   2.922   4.865   2.035 -1.2448  0.7342  2.2210
 1892TIP3   OH227090   4.176   0.438  14.253 -0.0716 -0.4896  0.1706
 1892TIP3    H127091   4.226   0.360  14.228  0.3101 -0.5545  1.1311
 1892TIP3    H227092   4.087   0.406  14.268  0.1156 -0.7583  0.6943
 1893TIP3   OH227093   6.280   3.615  12.964 -0.0540  0.8843  0.0159
 1893TIP3    H127094   6.204   3.596  13.019  0.8405 -1.1820  0.5811
 1893TIP3    H227095   6.355   3.588  13.016  0.9841  1.5188 -1.1299
 1894TIP3   OH227096   6.266   3.907   6.444 -0.6471  1.1325 -0.0551
 1894TIP3    H127097   6.300   3.903   6.533  0.1299  0.9849 -0.3554
 1894TIP3    H227098   6.187   3.853   6.446 -0.3467  0.7057  0.4196
 1895TIP3   OH227099   5.176   0.084  14.909 -0.1728 -0.8279 -0.4700
 1895TIP3    H127100   5.109   0.073  14.842 -0.6756  0.9599 -0.2745
 1895TIP3    H227101   5.226   0.160  14.882 -1.5757  1.0923  2.1206
 1896TIP3   OH227102   1.523   1.569  15.857  0.2790 -0.1086 -0.1905
 1896TIP3    H127103   1.451   1.554  15.795 -0.3907 -1.9494  1.0020
 1896TIP3    H227104   1.589   1.504  15.832  1.2779  1.1180 -0.8376
 1897TIP3   OH227105   3.856   1.093  13.830  0.4151 -0.3204  0.2360
 1897TIP3    H127106   3.785   1.035  13.803  1.4048 -0.8879 -1.2065
 1897TIP3    H227107   3.826   1.131  13.912 -1.6286 -0.4150 -0.4449
 1898TIP3   OH227108   0.619   2.111   2.890 -0.3404  0.0260  0.3140
 1898TIP3    H127109   0.526   2.124   2.908  0.3637  2.9724  2.1399
 1898TIP3    H227110   0.632   2.149   2.803 -0.8631 -0.5208 -0.0071
 1899TIP3   OH227111   2.438   3.587  12.063  0.4314 -0.1205  0.3726
 1899TIP3    H127112   2.453   3.574  11.970 -0.5668 -0.4059  0.2391
 1899TIP3    H227113   2.406   3.502  12.094  0.2037  0.1352  0.8543
 1900TIP3   OH227114   0.151   6.356  13.580 -0.4918  0.1328  0.1620
 1900TIP3    H127115   0.167   6.440  13.624 -0.2058 -0.2398  0.7863
 1900TIP3    H227116   0.206   6.294  13.628 -0.5596 -0.3743 -0.4171
 1901TIP3   OH227117   2.185   6.055   1.028 -0.0398 -0.2149  0.3040
 1901TIP3    H127118   2.152   6.058   1.117 -0.6448  0.0062  0.0756
 1901TIP3    H227119   2.143   5.978   0.989  0.9767 -0.8782  0.5029
 1902TIP3   OH227120   3.089   3.531   5.681 -0.2965  0.0364  0.0643
 1902TIP3    H127121   3.173   3.502   5.715  0.0411 -0.0877 -0.8517
 1902TIP3    H227122   3.111   3.597   5.615 -0.9518  0.5761  0.3816
 1903TIP3   OH227123   6.022   6.198   4.526  0.2253 -0.3105 -0.0216
 1903TIP3    H127124   5.956   6.266   4.540  0.5934 -0.5043  2.9926
 1903TIP3    H227125   6.094   6.243   4.481 -0.6695  0.6101 -0.5632
 1904TIP3   OH227126   3.538   1.571  11.263  0.3556 -0.4777 -0.2912
 1904TIP3    H127127   3.594   1.614  11.198  0.6129 -1.0180 -0.4251
 1904TIP3    H227128   3.449   1.595  11.236  0.3488 -2.2567 -1.9723
 1905TIP3   OH227129   6.645   3.233   5.222 -0.1912  0.3315  0.5159
 1905TIP3    H127130   6.707   3.167   5.253 -0.6075 -0.3180 -0.0327
 1905TIP3    H227131   6.561   3.205   5.257 -1.0177 -1.4997 -2.7707
 1906TIP3   OH227132   5.766   4.512   6.878  1.1365 -0.0923 -0.2087
 1906TIP3    H127133   5.823   4.552   6.813 -1.0046 -0.5213 -2.4309
 1906TIP3    H227134   5.739   4.429   6.839  0.5160 -0.7728  1.6158
 1907TIP3   OH227135   2.259   0.021   5.570  0.3344  0.0569 -0.2398
 1907TIP3    H127136   2.316   0.051   5.641  1.2102  0.0830 -0.9519
 1907TIP3    H227137   2.197  -0.038   5.613 -0.3932  1.5997  0.8965
 1908TIP3   OH227138   4.579   0.465  16.952  0.1863  0.2936  0.2349
 1908TIP3    H127139   4.529   0.539  16.987 -3.1584 -1.9856  0.4845
 1908TIP3    H227140   4.606   0.415  17.030 -0.2546 -0.4250 -0.0729
 1909TIP3   OH227141   6.259   2.107   5.384  0.2762  0.3267 -0.1695
 1909TIP3    H127142   6.344   2.098   5.427  0.3044 -1.9303 -0.6733
 1909TIP3    H227143   6.195   2.086   5.451  0.1415  0.9491 -0.0961
 1910TIP3   OH227144   3.867   3.066  16.590  0.2756  0.1024  0.1913
 1910TIP3    H127145   3.847   3.028  16.504  0.5199 -1.4604  0.8079
 1910TIP3    H227146   3.781   3.086  16.627  0.1944  1.4510 -0.7014
 1911TIP3   OH227147   4.677   4.824  13.005 -0.2448  0.7495  0.2382
 1911TIP3    H127148   4.605   4.836  13.067  1.1957 -0.7540  2.2345
 1911TIP3    H227149   4.677   4.731  12.985  0.0637  1.0272 -1.1030
 1912TIP3   OH227150   4.756   0.962  11.272  0.2191  0.6402  0.3340
 1912TIP3    H127151   4.844   0.949  11.236  0.7445  0.7968  1.5320
 1912TIP3    H227152   4.746   1.057  11.277 -0.2531  0.6342 -0.3277
 1913TIP3   OH227153   4.385   4.084   2.125  0.4441 -0.4108 -0.2564
 1913TIP3    H127154   4.441   4.103   2.050  0.9951  0.8047  0.4458
 1913TIP3    H227155   4.438   4.106   2.201 -0.8171  0.2981  0.4332
 1914TIP3   OH227156   2.637   3.398  10.716  0.3444  0.2744  0.2393
 1914TIP3    H127157   2.563   3.459  10.710 -0.8353 -1.0552  1.0014
 1914TIP3    H227158   2.650   3.367  10.627 -0.5915 -0.1442  0.2463
 1915TIP3   OH227159   1.326   5.261  16.298 -0.1453 -0.0678  0.4798
 1915TIP3    H127160   1.347   5.310  16.378  1.5970 -0.8511  0.5372
 1915TIP3    H227161   1.362   5.174  16.314  0.0979 -0.2668 -1.1187
 1916TIP3   OH227162   0.670   2.005  12.308 -0.1343 -0.4902  0.1939
 1916TIP3    H127163   0.748   2.043  12.267  0.4105 -0.3721  1.3268
 1916TIP3    H227164   0.659   2.055  12.389 -0.9515 -1.0023  0.3996
 1917TIP3   OH227165   2.825   4.809  15.714  0.7505 -0.1543 -0.0800
 1917TIP3    H127166   2.881   4.810  15.792 -0.9564  1.7209  1.1694
 1917TIP3    H227167   2.855   4.883  15.661  0.5285 -0.1413 -0.1900
 1918TIP3   OH227168   3.806   6.470   4.755  0.3080  0.7196  0.2963
 1918TIP3    H127169   3.756   6.426   4.825  2.2346 -0.7483  0.7930
 1918TIP3    H227170   3.885   6.416   4.745  0.9388  1.9840 -1.7274
 1919TIP3   OH227171   4.680   4.583   5.081  0.0663  0.3240  0.6168
 1919TIP3    H127172   4.591   4.572   5.115  0.3218 -0.9452  0.9021
 1919TIP3    H227173   4.671   4.650   5.013 -1.2923 -0.5377 -0.0825
 1920TIP3   OH227174   0.252   0.792  14.890  0.1655 -0.1337 -0.0052
 1920TIP3    H127175   0.272   0.711  14.938  0.0132  1.0903  2.1662
 1920TIP3    H227176   0.224   0.761  14.803 -2.4462 -2.6112  1.5983
 1921TIP3   OH227177   1.693   3.176  12.950  0.2165  0.0949  0.3355
 1921TIP3    H127178   1.713   3.103  12.892  0.6440  0.8755 -0.5121
 1921TIP3    H227179   1.630   3.140  13.012  0.0912 -0.8729 -0.3312
 1922TIP3   OH227180   0.923   1.950   2.427  0.0605  0.0399  0.2469
 1922TIP3    H127181   0.990   1.906   2.374  1.4719  1.1385  1.1036
 1922TIP3    H227182   0.962   2.035   2.449 -0.8552 -0.0805  2.3631
 1923TIP3   OH227183   3.023   0.227   1.491 -0.2000 -0.2818 -0.5156
 1923TIP3    H127184   3.108   0.219   1.448 -0.1396  1.5742 -0.7876
 1923TIP3    H227185   3.014   0.320   1.510 -1.6184 -0.6322  0.6628
 1924TIP3   OH227186   4.506   1.409  14.618  0.1360  0.3291  0.2103
 1924TIP3    H127187   4.481   1.414  14.526  0.1324 -0.1001  0.1865
 1924TIP3    H227188   4.585   1.355  14.619  0.2025  0.4304  0.4463
 1925TIP3   OH227189   1.706   0.673  11.274 -0.4750  0.2362  0.2460
 1925TIP3    H127190   1.776   0.683  11.209  1.0053 -1.1546  1.5773
 1925TIP3    H227191   1.708   0.580  11.296 -3.2966  0.0189 -0.2504
 1926TIP3   OH227192   1.191   4.914   4.158  0.1985 -0.7650 -0.1339
 1926TIP3    H127193   1.214   4.822   4.144 -0.0039 -0.9955  1.0278
 1926TIP3    H227194   1.109   4.926   4.111 -0.8048 -1.6924  1.3646
 1927TIP3   OH227195   4.298   6.355   1.053  0.6458  0.2221  0.1195
 1927TIP3    H127196   4.320   6.413   0.979  0.6396  1.4984  1.1039
 1927TIP3    H227197   4.374   6.359   1.110  0.8932 -1.2382 -0.0950
 1928TIP3   OH227198   4.775   2.781  11.875 -0.1892 -0.8216 -0.0223
 1928TIP3    H127199   4.871   2.788  11.878 -0.2433 -0.3861  0.5929
 1928TIP3    H227200   4.749   2.847  11.811 -0.1692 -0.1166  0.6948
 1929TIP3   OH227201   5.245   1.401  15.411  0.1023  0.5119 -0.5950
 1929TIP3    H127202   5.330   1.428  15.376 -1.0150  0.7072 -3.2619
 1929TIP3    H227203   5.203   1.483  15.437  0.7243  0.4114  0.7675
 1930TIP3   OH227204   4.435   5.844   3.269  0.3473 -0.2493  0.2763
 1930TIP3    H127205   4.415   5.937   3.262 -1.0904 -0.4747  1.2583
 1930TIP3    H227206   4.393   5.804   3.193 -2.8488 -0.6857  2.1910
 1931TIP3   OH227207   0.899   0.396   1.885  0.8861  0.2908 -0.4185
 1931TIP3    H127208   0.968   0.330   1.893  1.9864  1.6739  2.3316
 1931TIP3    H227209   0.830   0.353   1.835  2.2205 -2.3944 -0.0580
 1932TIP3   OH227210   2.426   4.146  14.742  0.3317  0.0992 -0.2031
 1932TIP3    H127211   2.446   4.234  14.712 -0.6374  0.1384 -0.7367
 1932TIP3    H227212   2.424   4.153  14.838 -2.4575  1.2646 -0.3118
 1933TIP3   OH227213   1.169   6.569   3.951 -0.0488 -0.4498 -0.1817
 1933TIP3    H127214   1.128   6.487   3.980 -0.0676  0.0172  1.1343
 1933TIP3    H227215   1.198   6.551   3.862  0.3085 -2.0376  0.2402
 1934TIP3   OH227216   0.545   4.286  15.581 -0.4155  0.0698 -0.9715
 1934TIP3    H127217   0.633   4.261  15.610 -0.7502 -2.0007 -1.6468
 1934TIP3    H227218   0.553   4.377  15.554  1.2589  0.2453  0.0378
 1935TIP3   OH227219   5.674   1.428   4.240  0.7574  0.1656 -0.0843
 1935TIP3    H127220   5.701   1.500   4.183  1.4305 -0.2730 -0.3270
 1935TIP3    H227221   5.592   1.458   4.278  0.0883  0.2844 -1.5877
 1936TIP3   OH227222   1.548   1.316   6.210  0.2822 -0.1014  0.3116
 1936TIP3    H127223   1.468   1.361   6.239  1.2043  1.4027  0.5319
 1936TIP3    H227224   1.570   1.259   6.284  0.6321  1.1051  1.1516
 1937TIP3   OH227225   0.919   2.746  14.203  0.0386  0.2160  0.1580
 1937TIP3    H127226   0.923   2.813  14.134 -0.4566  0.7993  0.6975
 1937TIP3    H227227   0.877   2.790  14.277 -1.9508 -1.2225 -0.1000
 1938TIP3   OH227228   0.834   1.378   6.420  0.2275 -0.3652  0.8667
 1938TIP3    H127229   0.787   1.340   6.495 -1.6703 -1.0766 -0.6502
 1938TIP3    H227230   0.779   1.451   6.392 -0.7153 -2.0078 -1.7537
 1939TIP3   OH227231   0.356   6.055   2.222 -0.0970 -0.1252 -0.2569
 1939TIP3    H127232   0.448   6.082   2.230 -0.3805  0.5518  0.7813
 1939TIP3    H227233   0.325   6.047   2.312 -1.8932  2.5422 -0.5932
 1940TIP3   OH227234   4.077   4.895  12.094  0.1318 -0.1237  0.1256
 1940TIP3    H127235   4.118   4.977  12.066 -2.3891  1.2606  0.3853
 1940TIP3    H227236   3.990   4.898  12.056 -0.5167 -1.9955  1.4178
 1941TIP3   OH227237   6.783   0.759   2.965 -0.1885 -0.1220 -0.4484
 1941TIP3    H127238   6.859   0.813   2.985 -0.8615  0.7143 -0.0931
 1941TIP3    H227239   6.752   0.791   2.880  0.4169 -1.1132 -1.0568
 1942TIP3   OH227240   2.282   3.442   3.060 -0.3515  0.4458 -0.0822
 1942TIP3    H127241   2.362   3.469   3.014 -0.2695 -1.2471 -0.9994
 1942TIP3    H227242   2.312   3.382   3.127 -0.5950  2.0284  1.4761
 1943TIP3   OH227243   3.644   1.281  15.740 -0.1452  0.6448 -0.1958
 1943TIP3    H127244   3.712   1.344  15.715 -0.5449  0.7644 -0.9959
 1943TIP3    H227245   3.593   1.267  15.659 -0.3975 -0.2786  0.1212
 1944TIP3   OH227246   6.073   6.489  10.726 -0.1247  0.4722  0.3191
 1944TIP3    H127247   6.031   6.409  10.695  0.6579  0.3554 -0.4555
 1944TIP3    H227248   6.046   6.557  10.665  1.1154  0.3168 -0.4184
 1945TIP3   OH227249   5.334   4.934  16.946  0.7246 -0.0818 -0.3350
 1945TIP3    H127250   5.395   4.864  16.968  0.7560  0.3077  0.8528
 1945TIP3    H227251   5.285   4.901  16.871  1.7781 -0.7615 -0.7231
 1946TIP3   OH227252   3.474   4.013   5.680  0.4247 -0.1456  0.2155
 1946TIP3    H127253   3.522   4.008   5.762 -0.2014  0.6225  0.6354
 1946TIP3    H227254   3.417   3.936   5.680 -0.6571  0.6359  1.2028
 1947TIP3   OH227255   1.855   0.297  12.817 -0.2439 -0.3652  0.0957
 1947TIP3    H127256   1.887   0.213  12.785  0.8344  0.0666  0.0383
 1947TIP3    H227257   1.761   0.282  12.832 -0.5183 -0.9533 -1.9898
 1948TIP3   OH227258   1.314   3.092  15.866 -0.0465 -0.2339  0.4896
 1948TIP3    H127259   1.344   3.023  15.805  0.3525  0.2934  0.0811
 1948TIP3    H227260   1.386   3.101  15.928  0.7311  1.1471 -0.5857
 1949TIP3   OH227261   4.148   6.174   1.969 -0.2223  0.3587  0.0296
 1949TIP3    H127262   4.153   6.258   1.924  1.7041  0.0283 -0.4031
 1949TIP3    H227263   4.062   6.139   1.945 -0.7638  1.8920 -0.3080
 1950TIP3   OH227264   6.773   0.189  13.290  0.5113 -0.3448 -0.4126
 1950TIP3    H127265   6.867   0.169  13.294  0.2978 -1.4629 -0.8463
 1950TIP3    H227266   6.737   0.150  13.370  0.3128 -0.5099 -0.5811
 1951TIP3   OH227267   5.328   3.282  17.115 -0.0468 -0.2139  0.0603
 1951TIP3    H127268   5.307   3.362  17.163 -0.1631 -1.1743  1.6781
 1951TIP3    H227269   5.246   3.234  17.111  0.2218 -0.6714 -0.0491
 1952TIP3   OH227270   2.251   6.091   5.230 -0.3576 -0.3147 -0.2305
 1952TIP3    H127271   2.210   6.160   5.282 -2.6543 -1.5741 -0.3286
 1952TIP3    H227272   2.183   6.025   5.219  1.3178 -1.8840 -1.4898
 1953TIP3   OH227273   0.385   4.993   4.167 -0.4408  0.8409  0.2389
 1953TIP3    H127274   0.396   4.920   4.227  1.5263  0.4461 -0.5826
 1953TIP3    H227275   0.317   4.963   4.105 -1.5016  0.7401  1.4336
 1954TIP3   OH227276   3.785   3.207   3.686 -0.4379  0.3151 -0.5911
 1954TIP3    H127277   3.736   3.265   3.628  1.9274  1.6757 -1.2717
 1954TIP3    H227278   3.876   3.236   3.678  0.7616 -3.3049 -0.7170
 1955TIP3   OH227279   4.910   6.086   2.522 -0.0962 -0.1931 -0.3996
 1955TIP3    H127280   4.838   6.148   2.526 -0.5956 -0.8098  0.1600
 1955TIP3    H227281   4.921   6.055   2.612 -0.3334 -1.4621 -0.7941
 1956TIP3   OH227282   4.464   3.292   4.076 -0.3054  0.2691 -0.5761
 1956TIP3    H127283   4.521   3.225   4.112  0.6621  0.8426 -1.0180
 1956TIP3    H227284   4.410   3.320   4.150 -0.3196 -0.5764 -0.2586
 1957TIP3   OH227285   0.482   2.681   6.430  0.1372 -0.1639 -0.1204
 1957TIP3    H127286   0.535   2.607   6.402  0.1105 -0.3653  0.3546
 1957TIP3    H227287   0.397   2.667   6.389  0.5112  0.2879 -1.0835
 1958TIP3   OH227288   5.645   2.076  14.442 -0.3309  0.1561  0.9839
 1958TIP3    H127289   5.711   2.105  14.379 -0.5337  0.1743  0.7787
 1958TIP3    H227290   5.632   1.983  14.423 -1.9102  0.6370 -0.3946
 1959TIP3   OH227291   6.088   4.379   2.147 -0.4553  0.7551 -0.5074
 1959TIP3    H127292   6.028   4.337   2.086 -0.2592  0.3950 -0.4564
 1959TIP3    H227293   6.038   4.450   2.186 -0.9502  0.2463 -0.2189
 1960TIP3   OH227294   0.080   3.590   5.360  0.5912 -0.5813 -0.6851
 1960TIP3    H127295   0.106   3.510   5.314  2.1848 -0.2453 -0.3878
 1960TIP3    H227296   0.058   3.652   5.290  0.1806 -1.0013 -0.9308
 1961TIP3   OH227297   6.149   1.577  16.782 -0.2130 -0.1647  0.1582
 1961TIP3    H127298   6.097   1.617  16.851 -0.6601  1.7329 -1.2491
 1961TIP3    H227299   6.217   1.641  16.763  1.1654 -1.5567  0.2360
 1962TIP3   OH227300   3.852   6.705   5.156 -0.7309 -0.4650  0.3145
 1962TIP3    H127301   3.898   6.673   5.078 -0.8591 -0.5574  0.2766
 1962TIP3    H227302   3.770   6.655   5.157  0.0960 -1.8319  1.5471
 1963TIP3   OH227303   6.450   4.415   0.382 -0.4251 -0.7220  0.3600
 1963TIP3    H127304   6.395   4.363   0.441  1.0636 -3.0512 -0.2177
 1963TIP3    H227305   6.532   4.428   0.430  0.2931 -1.4632 -0.6359
 1964TIP3   OH227306   1.513   1.477  15.053  0.0080  0.0072 -0.3094
 1964TIP3    H127307   1.475   1.390  15.065  0.9642 -0.6355 -1.7787
 1964TIP3    H227308   1.516   1.488  14.958 -1.6347  2.3363 -0.1357
 1965TIP3   OH227309   3.381   0.770   5.969 -0.3128 -0.3235  0.2406
 1965TIP3    H127310   3.436   0.844   5.994 -1.7623  0.7748  0.1848
 1965TIP3    H227311   3.427   0.694   6.005  1.0733  0.5980  0.4899
 1966TIP3   OH227312   1.018   3.523   2.916 -0.2760  0.4812  0.0169
 1966TIP3    H127313   1.028   3.535   2.822 -2.2794  0.3724 -0.2324
 1966TIP3    H227314   1.051   3.435   2.933 -0.7589  0.1535 -0.7291
 1967TIP3   OH227315   1.513   1.464   0.974  0.0674  0.1333 -0.7145
 1967TIP3    H127316   1.449   1.466   1.046 -0.5375  0.2806 -1.2507
 1967TIP3    H227317   1.556   1.379   0.982 -0.5583 -0.1775 -0.6678
 1968TIP3   OH227318   4.902   1.096  14.354 -0.2796  0.1456  0.0616
 1968TIP3    H127319   4.950   1.059  14.280  2.0865  1.6357  0.7825
 1968TIP3    H227320   4.887   1.021  14.412 -0.9071 -0.7739 -1.2591
 1969TIP3   OH227321   6.241   2.025  13.887 -0.1666 -0.6609  0.1033
 1969TIP3    H127322   6.238   2.104  13.832 -1.2307 -1.6151 -1.2475
 1969TIP3    H227323   6.334   2.012  13.906  0.0572  0.6678 -0.0100
 1970TIP3   OH227324   0.452   0.350  14.577  0.1411 -0.0353 -0.1620
 1970TIP3    H127325   0.504   0.390  14.647  0.5165 -0.7809 -0.0058
 1970TIP3    H227326   0.405   0.279  14.621  0.8647 -0.9076 -0.7872
 1971TIP3   OH227327   5.001   1.983   2.351 -0.6197 -0.3280  0.4596
 1971TIP3    H127328   5.009   2.064   2.301 -0.2315 -0.4448  0.3324
 1971TIP3    H227329   4.907   1.971   2.363 -0.7211 -0.3952 -0.3901
 1972TIP3   OH227330   2.341   4.153  16.087  0.1764  0.0750  0.2952
 1972TIP3    H127331   2.343   4.101  16.167  1.0349 -1.5570 -0.7508
 1972TIP3    H227332   2.433   4.166  16.065 -0.0414  1.5904  0.2431
 1973TIP3   OH227333   0.840   2.986  13.267  0.0220 -0.1887  0.4261
 1973TIP3    H127334   0.824   2.960  13.357  1.2367  0.3564  0.8047
 1973TIP3    H227335   0.930   2.959  13.249 -0.2618 -0.4453 -0.6834
 1974TIP3   OH227336   0.258   1.223   2.227  0.0102  0.0435  0.5823
 1974TIP3    H127337   0.277   1.133   2.252  0.9538 -0.0699 -0.5095
 1974TIP3    H227338   0.220   1.262   2.306 -0.5243 -1.3300  1.0352
 1975TIP3   OH227339   6.270   2.764   2.140 -0.2939 -0.3432  0.2762
 1975TIP3    H127340   6.227   2.710   2.073 -1.4188 -0.6485  1.2193
 1975TIP3    H227341   6.276   2.707   2.216  1.1134 -0.0458  0.4124
 1976TIP3   OH227342   5.771   1.922   2.475 -0.0655  0.2078  0.2742
 1976TIP3    H127343   5.853   1.962   2.504  1.0732 -1.1798 -0.9896
 1976TIP3    H227344   5.768   1.838   2.520 -0.3852 -0.1024 -0.3256
 1977TIP3   OH227345   3.338   3.926  15.135  0.3181  0.7291  0.2067
 1977TIP3    H127346   3.310   3.838  15.162 -0.0717  1.6564  3.0781
 1977TIP3    H227347   3.256   3.969  15.109  0.2061  0.8929  0.8208
 1978TIP3   OH227348   4.935   6.781   4.831  0.5072  0.4455  0.3323
 1978TIP3    H127349   4.944   6.855   4.891 -2.5766 -0.6080  2.1949
 1978TIP3    H227350   4.973   6.707   4.878 -1.7866 -0.3511  1.0317
 1979TIP3   OH227351   5.191   3.604  15.326  0.2326 -0.1619 -0.3265
 1979TIP3    H127352   5.115   3.622  15.382 -0.3975 -0.8809 -0.9356
 1979TIP3    H227353   5.266   3.604  15.386 -0.1507  1.2178  0.1811
 1980TIP3   OH227354   4.707   5.566  16.727  0.6730  0.8489 -0.3096
 1980TIP3    H127355   4.673   5.487  16.768  2.6049  1.2546  2.2098
 1980TIP3    H227356   4.668   5.637  16.778  0.8857  1.4753 -1.0079
 1981TIP3   OH227357   1.089   0.317   3.223  0.4998 -0.0975 -0.0358
 1981TIP3    H127358   1.126   0.315   3.311  0.2293 -0.7925  0.0682
 1981TIP3    H227359   1.124   0.396   3.183 -0.9665  1.3234  1.4088
 1982TIP3   OH227360   0.672   6.616  14.376  0.2564 -0.2683 -0.9153
 1982TIP3    H127361   0.669   6.605  14.471 -1.1515  0.2836 -0.8847
 1982TIP3    H227362   0.642   6.532  14.342 -0.4908 -0.0306 -0.8482
 1983TIP3   OH227363   2.460   5.662   4.062 -0.0031  0.0008  0.4621
 1983TIP3    H127364   2.521   5.715   4.114 -1.5277  2.1056  0.1305
 1983TIP3    H227365   2.408   5.614   4.127  0.8811 -0.5690  0.7680
 1984TIP3   OH227366   1.028   0.082  11.492  0.0931  0.2026 -0.8480
 1984TIP3    H127367   1.094   0.149  11.509  0.0987  0.0316 -0.1746
 1984TIP3    H227368   1.009   0.090  11.398  1.4737 -0.1084 -1.1673
 1985TIP3   OH227369   4.453   5.604   1.580 -0.0008 -0.1218 -0.2193
 1985TIP3    H127370   4.390   5.674   1.595  0.8361  0.6278 -0.1877
 1985TIP3    H227371   4.406   5.541   1.526 -0.5928  0.7115 -0.6826
 1986TIP3   OH227372   2.744   5.264   6.097  0.7885  0.5889 -0.1194
 1986TIP3    H127373   2.687   5.222   6.162 -0.8748  0.6160 -1.5357
 1986TIP3    H227374   2.833   5.245   6.128  0.0374 -1.3694  0.9195
 1987TIP3   OH227375   4.483   6.313  12.653  0.3219 -0.1398 -0.5298
 1987TIP3    H127376   4.524   6.234  12.687 -0.5567 -1.4504 -2.4717
 1987TIP3    H227377   4.425   6.283  12.583  0.3440  2.2582 -1.6358
 1988TIP3   OH227378   6.556   4.486  15.040 -0.5420  0.0743 -0.3105
 1988TIP3    H127379   6.627   4.528  15.089  0.3294 -0.1399 -1.3681
 1988TIP3    H227380   6.599   4.450  14.962 -1.6317 -0.9731 -0.4412
 1989TIP3   OH227381   6.256   6.656  15.640  0.2509  0.4087  0.2595
 1989TIP3    H127382   6.219   6.743  15.656 -0.2632  0.5826 -1.7518
 1989TIP3    H227383   6.350   6.668  15.653  0.1081  1.0704  0.7561
 1990TIP3   OH227384   3.902   0.785   2.713  0.0604  0.1518  0.1456
 1990TIP3    H127385   3.850   0.743   2.645  0.6981  0.2931 -0.4433
 1990TIP3    H227386   3.849   0.779   2.793 -1.0149  0.6382 -0.5225
 1991TIP3   OH227387   2.215   5.122  14.993 -0.1320 -0.4529 -0.3398
 1991TIP3    H127388   2.188   5.116  14.902 -0.8439 -1.0959 -0.0918
 1991TIP3    H227389   2.166   5.198  15.027  1.2736  0.7138 -0.8695
 1992TIP3   OH227390   1.443   0.643   3.987  0.1390  0.4781 -0.2459
 1992TIP3    H127391   1.527   0.666   4.026 -0.4277 -0.5187  1.5959
 1992TIP3    H227392   1.395   0.598   4.056 -2.0145  1.2165 -1.2118
 1993TIP3   OH227393   2.322   4.136   0.798 -0.3192 -0.1726  0.4695
 1993TIP3    H127394   2.337   4.043   0.812  0.5084 -0.0031  0.7179
 1993TIP3    H227395   2.408   4.176   0.809 -0.0365  0.2405 -2.9021
 1994TIP3   OH227396   4.683   5.800  13.516 -0.0794  0.0234  0.1475
 1994TIP3    H127397   4.588   5.800  13.533  0.1768  0.5000  1.6267
 1994TIP3    H227398   4.713   5.718  13.554  0.2618  0.3769  0.6450
 1995TIP3   OH227399   2.351   1.195  11.144  0.1887 -0.3243  0.4931
 1995TIP3    H127400   2.332   1.227  11.232  0.6074  0.7379  0.2029
 1995TIP3    H227401   2.284   1.235  11.089 -1.3513 -2.6177  0.6132
 1996TIP3   OH227402   3.886   1.574   0.712 -0.1155 -0.8405  0.1456
 1996TIP3    H127403   3.967   1.617   0.686 -0.8883  0.9593  0.5801
 1996TIP3    H227404   3.913   1.510   0.778  1.0137 -0.6677 -0.1332
 1997TIP3   OH227405   4.610   0.348   3.076 -0.4874 -0.0924 -0.0431
 1997TIP3    H127406   4.586   0.333   3.167  0.0509  0.3134  0.1651
 1997TIP3    H227407   4.562   0.281   3.027 -1.3320  0.1501  0.4627
 1998TIP3   OH227408   3.509   1.346   5.186 -0.0185 -0.5050 -0.5248
 1998TIP3    H127409   3.440   1.409   5.166 -0.3548 -0.6348  0.2026
 1998TIP3    H227410   3.589   1.385   5.151 -0.2899  0.1502 -0.4166
 1999TIP3   OH227411   0.798   3.788  17.044  0.2329  0.2165 -0.1217
 1999TIP3    H127412   0.834   3.719  17.100 -1.5502 -0.7926 -0.1918
 1999TIP3    H227413   0.858   3.792  16.970  0.8519 -0.6308  0.3238
 2000TIP3   OH227414   5.150   1.506   0.834  0.1356 -0.4335  0.4279
 2000TIP3    H127415   5.149   1.506   0.738 -1.7052  1.1267  0.4203
 2000TIP3    H227416   5.104   1.426   0.859 -0.7413 -0.0654  0.0015
 2001TIP3   OH227417   6.590   3.918  15.617  0.0348 -0.1546  0.0301
 2001TIP3    H127418   6.566   3.941  15.528  0.1446  0.1860  0.0876
 2001TIP3    H227419   6.669   3.864  15.609 -0.6414 -1.1363 -0.1469
 2002TIP3   OH227420   6.285   0.549  17.218  0.0030  0.0065  0.2004
 2002TIP3    H127421   6.220   0.480  17.203  0.5513 -0.3464 -0.6464
 2002TIP3    H227422   6.262   0.587  17.303 -0.3983 -1.1194  0.6015
 2003TIP3   OH227423   1.999   5.696   3.639 -0.0868 -0.6048  0.1999
 2003TIP3    H127424   1.935   5.752   3.684  1.3058  0.6354  0.6568
 2003TIP3    H227425   1.954   5.668   3.559 -0.5379  1.7427 -0.3888
 2004TIP3   OH227426   0.496   5.419  11.598  0.9509 -0.8592 -0.0189
 2004TIP3    H127427   0.415   5.468  11.616  0.8651 -0.6166 -0.9920
 2004TIP3    H227428   0.519   5.444  11.508  2.2783 -0.6904  0.3610
 2005TIP3   OH227429   3.928   3.467   0.832  0.3874 -0.0707 -0.3049
 2005TIP3    H127430   3.930   3.447   0.738 -0.5213 -0.3191 -0.2703
 2005TIP3    H227431   4.000   3.415   0.868  0.9366  0.2573 -0.9028
 2006TIP3   OH227432   4.146   2.204   0.277  0.1004 -0.1739 -0.1680
 2006TIP3    H127433   4.137   2.213   0.372 -0.5480  0.7646 -0.3089
 2006TIP3    H227434   4.148   2.110   0.262  0.0208 -0.3301  0.7693
 2007TIP3   OH227435   4.235   4.410  13.677 -0.3545  0.0587  0.0592
 2007TIP3    H127436   4.207   4.361  13.754 -0.1819  0.4056  0.3442
 2007TIP3    H227437   4.157   4.457  13.648 -0.6010 -0.6250 -0.4024
 2008TIP3   OH227438   2.739   0.655  16.815 -0.1945 -0.1254  0.1654
 2008TIP3    H127439   2.774   0.673  16.902 -0.6522 -0.4797  0.4250
 2008TIP3    H227440   2.780   0.572  16.789  0.0524  0.0531 -0.0177
 2009TIP3   OH227441   6.593   4.545   5.066  0.0920 -0.3445  0.0267
 2009TIP3    H127442   6.559   4.499   5.143  2.0790 -0.6783  0.7378
 2009TIP3    H227443   6.654   4.483   5.026  1.3138  0.9334 -0.1215
 2010TIP3   OH227444   4.783   4.508   6.590  0.2972  0.2765 -0.0619
 2010TIP3    H127445   4.799   4.558   6.669  2.2178  1.4577 -1.1759
 2010TIP3    H227446   4.842   4.433   6.596  0.6303  0.5028 -0.5030
 2011TIP3   OH227447   0.691   6.269   3.768  0.0731 -0.4971  0.6615
 2011TIP3    H127448   0.727   6.343   3.720 -1.0634 -0.2784  0.1421
 2011TIP3    H227449   0.701   6.195   3.709 -2.2840 -0.0325 -0.3555
 2012TIP3   OH227450   3.538   6.079   5.911 -0.1274  0.4396  0.2672
 2012TIP3    H127451   3.513   6.021   5.983  0.0510 -1.5332 -1.2116
 2012TIP3    H227452   3.537   6.023   5.833  2.3105  1.8700 -0.8784
 2013TIP3   OH227453   2.352   2.074   2.364 -0.0856  1.1237 -0.2766
 2013TIP3    H127454   2.356   2.002   2.301  1.6797  0.3423  0.6552
 2013TIP3    H227455   2.261   2.077   2.392 -0.3597 -0.1766 -0.9918
 2014TIP3   OH227456   3.127   0.241  17.237 -0.1957  0.0818 -0.1223
 2014TIP3    H127457   3.154   0.289  17.159  1.9357 -0.4238  0.2843
 2014TIP3    H227458   3.159   0.152  17.223 -0.4754 -0.2062  0.9961
 2015TIP3   OH227459   6.215   4.840   1.553 -0.2879 -0.0600 -0.5638
 2015TIP3    H127460   6.278   4.774   1.523  0.5676  0.8824 -0.8512
 2015TIP3    H227461   6.218   4.908   1.486 -1.6643 -0.0239 -0.6157
 2016TIP3   OH227462   5.140   5.043  16.672  0.2677  0.0910  0.1625
 2016TIP3    H127463   5.078   5.062  16.603  1.0231  1.6208 -0.1085
 2016TIP3    H227464   5.168   4.953  16.656 -1.9033 -0.6314  0.3347
 2017TIP3   OH227465   5.451   3.293  11.396  0.0516 -0.1945 -0.0733
 2017TIP3    H127466   5.496   3.279  11.479  0.5088  0.0978 -0.2666
 2017TIP3    H227467   5.445   3.389  11.389 -1.2224 -0.2502  0.2815
 2018TIP3   OH227468   2.732   1.862   5.544  0.3842  0.1623 -0.1593
 2018TIP3    H127469   2.665   1.821   5.599 -0.4722  1.2713 -0.3790
 2018TIP3    H227470   2.766   1.789   5.491  0.2320 -0.6402  0.8184
 2019TIP3   OH227471   1.034   5.094  14.821 -0.1817  0.4113 -0.1302
 2019TIP3    H127472   1.109   5.046  14.855 -1.0772 -1.0742 -0.2114
 2019TIP3    H227473   1.044   5.183  14.855  0.3812 -0.3575  1.7489
 2020TIP3   OH227474   2.623   3.466  15.514 -0.3189 -0.5650  0.6728
 2020TIP3    H127475   2.637   3.430  15.427  1.8148  0.6791  0.4563
 2020TIP3    H227476   2.548   3.524  15.504  0.0893 -0.2129 -0.4174
 2021TIP3   OH227477   6.334   3.981  12.320  0.6829 -0.4176 -0.3393
 2021TIP3    H127478   6.265   3.917  12.338 -1.2518  0.8614 -2.8522
 2021TIP3    H227479   6.381   3.991  12.403 -1.8897 -1.6284  1.3056
 2022TIP3   OH227480   4.167   2.697  14.096  0.0064  0.2851 -0.8761
 2022TIP3    H127481   4.170   2.763  14.026 -0.7455  0.5575 -0.6637
 2022TIP3    H227482   4.215   2.737  14.168  0.4450  0.1674 -1.0997
 2023TIP3   OH227483   3.178   2.958  12.186  0.2452 -0.2275  0.0360
 2023TIP3    H127484   3.175   2.956  12.281 -3.2578  1.6716  0.0803
 2023TIP3    H227485   3.241   3.027  12.165  2.8099 -2.2463  0.8708
 2024TIP3   OH227486   6.161   5.775  14.492 -0.5260  0.1250 -0.6753
 2024TIP3    H127487   6.093   5.790  14.426 -1.6942 -1.7252  0.0829
 2024TIP3    H227488   6.114   5.747  14.570  0.9637  0.9142  0.5468
 2025TIP3   OH227489   3.227   3.172  11.751  0.7422 -0.6148  0.4544
 2025TIP3    H127490   3.307   3.213  11.785  2.1220 -1.6335 -1.4471
 2025TIP3    H227491   3.163   3.243  11.750  1.3570  0.0259  2.7770
 2026TIP3   OH227492   2.145   2.252  13.368 -0.0423 -0.1537 -0.0005
 2026TIP3    H127493   2.140   2.308  13.446 -2.7421 -0.9995  0.5012
 2026TIP3    H227494   2.222   2.198  13.383  0.7958  1.2513  0.9938
 2027TIP3   OH227495   4.075   4.275  14.324  0.2061  0.3193  0.4140
 2027TIP3    H127496   4.098   4.335  14.396  0.1773  0.2746  0.4603
 2027TIP3    H227497   4.027   4.204  14.366  0.3587  0.1944  0.3784
 2028TIP3   OH227498   4.687   2.994  13.544 -0.4089 -0.4777  0.6990
 2028TIP3    H127499   4.600   2.973  13.577 -0.8846 -0.6785 -0.6318
 2028TIP3    H227500   4.740   2.917  13.563 -0.5189 -0.3488  1.5257
 2029TIP3   OH227501   1.327   0.434   6.552 -0.2566  0.0174 -0.2372
 2029TIP3    H127502   1.290   0.346   6.557 -0.2651  0.1052  1.2935
 2029TIP3    H227503   1.349   0.457   6.642 -1.4272  2.0880 -0.4503
 2030TIP3   OH227504   6.127   1.103  14.223  0.4650 -0.1090 -0.3128
 2030TIP3    H127505   6.191   1.109  14.153  0.4716 -0.6947 -0.3580
 2030TIP3    H227506   6.133   1.013  14.254  0.9199  0.3187  0.8791
 2031TIP3   OH227507   2.486   6.022  16.314 -0.4027 -0.3534 -0.3463
 2031TIP3    H127508   2.424   5.971  16.366  0.2037  0.2662  1.0033
 2031TIP3    H227509   2.433   6.058  16.243 -1.2055 -1.3585 -0.2748
 2032TIP3   OH227510   4.192   3.637  15.326  0.7103  0.1255  0.2344
 2032TIP3    H127511   4.203   3.669  15.236 -0.0609 -0.2605 -0.0014
 2032TIP3    H227512   4.113   3.681  15.357 -0.3987 -1.6075 -0.1192
 2033TIP3   OH227513   0.117   1.603   4.559  0.1203  0.7422  0.4089
 2033TIP3    H127514   0.139   1.530   4.501 -0.1941  0.2963  0.8532
 2033TIP3    H227515   0.194   1.613   4.615 -0.4319 -0.2122  1.3407
 2034TIP3   OH227516   4.655   1.946  11.225 -0.7722  0.4920  0.4516
 2034TIP3    H127517   4.708   2.024  11.209  1.4348 -1.2998 -1.5258
 2034TIP3    H227518   4.576   1.960  11.173  0.1112  0.9580 -0.8078
 2035TIP3   OH227519   1.983   6.634  14.441 -0.2167 -0.6583  0.3721
 2035TIP3    H127520   1.933   6.623  14.521  0.4357 -1.8693  0.6240
 2035TIP3    H227521   2.058   6.575  14.451  0.7649  0.4354 -0.3990
 2036TIP3   OH227522   4.132   1.279  14.209 -0.2077 -0.4256 -0.2696
 2036TIP3    H127523   4.195   1.315  14.146 -2.6525  1.8679 -1.5231
 2036TIP3    H227524   4.085   1.212  14.160 -1.8986  1.1445 -0.8675
 2037TIP3   OH227525   4.753   3.979   4.377 -0.2594 -0.0488 -0.5474
 2037TIP3    H127526   4.704   3.935   4.307 -1.6870  2.7944 -1.4252
 2037TIP3    H227527   4.759   3.914   4.447 -0.4196 -2.3198 -2.6117
 2038TIP3   OH227528   6.678   6.492  14.805 -0.2301  0.6537 -0.1694
 2038TIP3    H127529   6.671   6.570  14.860  0.7036 -0.8294  2.1379
 2038TIP3    H227530   6.590   6.453  14.808 -0.4836  1.1875 -0.6687
 2039TIP3   OH227531   5.931   1.554   6.189 -0.2577  0.3858 -0.3014
 2039TIP3    H127532   5.876   1.498   6.244 -0.5074  0.2690 -0.6659
 2039TIP3    H227533   5.947   1.501   6.111  1.6118 -0.1919  0.4242
 2040TIP3   OH227534   4.072   2.219  15.985  0.1809 -0.1734 -0.4867
 2040TIP3    H127535   4.018   2.140  15.982 -1.4697  0.9566 -1.2184
 2040TIP3    H227536   4.136   2.201  16.054 -0.7056 -1.8150 -0.0570
 2041TIP3   OH227537   0.179   4.682  15.761 -0.0673 -0.0880 -0.3450
 2041TIP3    H127538   0.250   4.672  15.825 -1.7975  0.5357  1.7385
 2041TIP3    H227539   0.162   4.593  15.730  0.1992 -0.5258  0.7510
 2042TIP3   OH227540   1.003   5.589  17.090  0.4893  0.0989 -0.3282
 2042TIP3    H127541   0.941   5.660  17.072 -0.8889 -1.1053 -0.4402
 2042TIP3    H227542   0.994   5.573  17.184 -1.1203 -1.6530 -0.7550
 2043TIP3   OH227543   5.558   2.692  16.720  0.5034 -0.8853 -0.4721
 2043TIP3    H127544   5.652   2.688  16.704  1.2045  0.3270  2.9649
 2043TIP3    H227545   5.525   2.753  16.653  2.7397  1.4438  0.4695
 2044TIP3   OH227546   3.034   0.007  13.580  0.5859  0.3897  0.0927
 2044TIP3    H127547   3.071  -0.081  13.590 -0.0393  0.1745  0.5297
 2044TIP3    H227548   3.049   0.029  13.488  0.3443 -0.3555 -0.1309
 2045TIP3   OH227549   4.380   0.895  11.529 -0.5103  0.5438 -0.2969
 2045TIP3    H127550   4.439   0.830  11.567 -0.2346  0.8404 -0.2118
 2045TIP3    H227551   4.429   0.932  11.456  0.0257  1.8768  0.7073
 2046TIP3   OH227552   0.576   1.695   5.152  0.1093  0.4085 -0.0601
 2046TIP3    H127553   0.604   1.627   5.213 -1.1216 -0.9564 -1.0035
 2046TIP3    H227554   0.658   1.739   5.127  0.9399 -0.8468  0.3967
 2047TIP3   OH227555   2.111   1.427  11.360 -0.0902  0.4062  0.3809
 2047TIP3    H127556   2.103   1.466  11.447 -1.2416  1.1684 -0.0568
 2047TIP3    H227557   2.021   1.405  11.335  0.2880 -0.2794 -0.4034
 2048TIP3   OH227558   4.730   3.730   0.879  0.1191 -0.0995 -0.6620
 2048TIP3    H127559   4.803   3.790   0.894  0.4734 -0.5452 -0.5652
 2048TIP3    H227560   4.752   3.652   0.930 -0.2024 -0.4159 -0.9972
 2049TIP3   OH227561   3.239   0.723   1.683  0.0929  0.5746 -0.4164
 2049TIP3    H127562   3.284   0.639   1.693  0.1338  0.6976  0.4576
 2049TIP3    H227563   3.252   0.767   1.766 -0.5774  1.1357 -0.6054
 2050TIP3   OH227564   3.721   0.958  13.434 -0.1733 -0.2116 -0.1954
 2050TIP3    H127565   3.718   0.939  13.527  1.9706  1.2132  0.1990
 2050TIP3    H227566   3.780   0.892  13.397  0.8587  0.6749 -0.1457
 2051TIP3   OH227567   5.563   3.666   3.753 -0.0843  0.2962  0.4683
 2051TIP3    H127568   5.585   3.620   3.834  3.1488 -0.7422 -0.8854
 2051TIP3    H227569   5.602   3.753   3.763  0.6814  0.0293 -0.0838
 2052TIP3   OH227570   5.006   0.229  12.462 -0.1097 -0.2868 -0.2120
 2052TIP3    H127571   5.004   0.272  12.376  0.6582  3.3417  1.5008
 2052TIP3    H227572   5.099   0.216  12.480 -0.2779 -1.1859  0.0478
 2053TIP3   OH227573   2.077   1.843   3.473  0.5651 -0.2522  0.7835
 2053TIP3    H127574   2.092   1.858   3.567  2.5397  0.0306  0.4310
 2053TIP3    H227575   2.018   1.914   3.447  1.2162  0.5704  1.4991
 2054TIP3   OH227576   2.856   1.792  15.861  0.4124  0.2369  0.1779
 2054TIP3    H127577   2.929   1.843  15.824  1.7320 -0.2023  2.0845
 2054TIP3    H227578   2.824   1.846  15.933 -0.3472 -0.1275  0.1101
 2055TIP3   OH227579   3.003   6.148   1.203 -0.6112  0.2279  0.1112
 2055TIP3    H127580   3.005   6.073   1.144 -4.1888  1.1379 -1.2982
 2055TIP3    H227581   2.931   6.130   1.263 -0.7218  1.9968  0.5336
 2056TIP3   OH227582   1.451   6.183  16.752  0.2992 -0.4857  0.1475
 2056TIP3    H127583   1.508   6.106  16.759  2.2103  0.7996 -0.9429
 2056TIP3    H227584   1.410   6.175  16.666  1.1212  0.1207 -0.3066
 2057TIP3   OH227585   2.966   6.778   5.375  0.5237 -0.7631  0.2546
 2057TIP3    H127586   3.034   6.711   5.391  1.5091  0.9415  3.6704
 2057TIP3    H227587   3.015   6.854   5.344 -0.4276 -1.0666 -2.0706
 2058TIP3   OH227588   0.523   5.449  13.839 -0.3666  0.5601  0.0486
 2058TIP3    H127589   0.588   5.415  13.901  1.7462  0.0135 -2.3954
 2058TIP3    H227590   0.530   5.545  13.847 -0.6583  0.4872  1.2013
 2059TIP3   OH227591   2.135   4.794  13.833 -0.2099 -0.4709  0.7191
 2059TIP3    H127592   2.198   4.726  13.808  0.9224  0.1609  1.7998
 2059TIP3    H227593   2.183   4.876  13.825 -1.5707  0.2405 -0.5764
 2060TIP3   OH227594   2.759   1.677   4.351 -0.4995 -0.0857  0.0473
 2060TIP3    H127595   2.724   1.592   4.377  0.5729 -0.6030 -0.1571
 2060TIP3    H227596   2.809   1.707   4.427 -0.4102  0.0924 -0.0815
 2061TIP3   OH227597   3.676   0.260   1.854  0.0757 -0.0742  0.2354
 2061TIP3    H127598   3.764   0.229   1.874  0.8620  0.6399 -2.0029
 2061TIP3    H227599   3.675   0.270   1.759 -2.1669  0.7084  0.3183
 2062TIP3   OH227600   2.045   1.538   3.837  0.4574 -0.2433 -0.2654
 2062TIP3    H127601   1.951   1.540   3.824  0.3827 -0.3827  0.2352
 2062TIP3    H227602   2.082   1.549   3.749 -0.0211 -0.1273 -0.4532
 2063TIP3   OH227603   4.704   5.138   6.491  0.4893  0.0088 -0.1889
 2063TIP3    H127604   4.701   5.229   6.523 -0.8912  0.3644 -1.2889
 2063TIP3    H227605   4.784   5.134   6.439  1.2107  0.2392  0.8733
 2064TIP3   OH227606   2.136   4.758  11.715 -0.5107  0.2506  0.1026
 2064TIP3    H127607   2.179   4.844  11.716 -2.2869  1.1532  1.2024
 2064TIP3    H227608   2.199   4.701  11.671  0.6443  2.1405 -0.7973
 2065TIP3   OH227609   0.181   1.158  12.826  0.2496  0.1367 -0.2484
 2065TIP3    H127610   0.258   1.171  12.880 -0.9662 -1.7254  2.0571
 2065TIP3    H227611   0.195   1.073  12.784 -0.4782 -0.2010  0.1625
 2066TIP3   OH227612   2.007   1.881  16.045  0.4576  0.1232  0.5288
 2066TIP3    H127613   2.007   1.925  15.961  1.0755 -1.2411 -0.2035
 2066TIP3    H227614   1.941   1.928  16.097 -1.7882 -0.6157 -1.5559
 2067TIP3   OH227615   1.948   3.110  17.136  0.3008 -0.5722  0.2659
 2067TIP3    H127616   1.984   3.079  17.220 -0.2555 -2.9139 -0.3276
 2067TIP3    H227617   2.000   3.064  17.070 -1.3342 -1.1398 -0.6349
 2068TIP3   OH227618   4.573   2.417   3.192 -0.0676 -0.6576  0.6399
 2068TIP3    H127619   4.524   2.392   3.270 -1.8261  1.2667  0.2122
 2068TIP3    H227620   4.581   2.336   3.142  2.3914 -2.2538  3.4446
 2069TIP3   OH227621   0.159   0.506  17.129  0.1724 -0.5696 -0.6932
 2069TIP3    H127622   0.155   0.595  17.093  0.5046  0.3640  1.4654
 2069TIP3    H227623   0.079   0.464  17.099 -1.1278  1.2228  0.1326
 2070TIP3   OH227624   0.975   3.078   5.520  0.6618 -0.1397  0.2092
 2070TIP3    H127625   0.949   3.021   5.592  1.5348  0.1881  0.8023
 2070TIP3    H227626   0.945   3.033   5.441 -0.6269 -0.3237  0.7951
 2071TIP3   OH227627   1.525   5.432   3.558 -0.1856  0.3462 -0.0148
 2071TIP3    H127628   1.590   5.401   3.622  1.4175  1.6762 -0.9659
 2071TIP3    H227629   1.549   5.388   3.476  0.2406  1.7402 -0.6475
 2072TIP3   OH227630   6.243   2.191  13.655  0.2029  0.4685  0.4400
 2072TIP3    H127631   6.158   2.233  13.663  0.5306  1.4218 -0.8501
 2072TIP3    H227632   6.305   2.263  13.642  0.8590 -0.3296 -1.0888
 2073TIP3   OH227633   2.056   6.231  15.808  0.1785  0.6691  0.2145
 2073TIP3    H127634   2.008   6.224  15.890  0.8837  0.9895  0.6702
 2073TIP3    H227635   2.047   6.146  15.767  0.8953  0.0772  1.2450
 2074TIP3   OH227636   5.422   3.019   6.261  0.4612 -0.3439 -0.5004
 2074TIP3    H127637   5.394   3.091   6.317  3.5985  1.1370 -0.7359
 2074TIP3    H227638   5.487   2.972   6.313 -0.5760 -2.2567 -0.8729
 2075TIP3   OH227639   3.641   3.397  14.458 -0.4294  0.7217 -0.0581
 2075TIP3    H127640   3.633   3.321  14.399  1.2999 -0.0817  0.6843
 2075TIP3    H227641   3.553   3.433  14.464 -1.1426 -0.8225 -0.9907
 2076TIP3   OH227642   2.823   2.944   4.603  0.3785 -0.5644 -0.7562
 2076TIP3    H127643   2.894   2.946   4.667 -0.5777  3.6260  0.3449
 2076TIP3    H227644   2.867   2.945   4.518  1.6585  0.2544 -0.0993
 2077TIP3   OH227645   2.917   3.233   5.519 -0.1820 -0.1111  0.1263
 2077TIP3    H127646   2.846   3.228   5.584 -1.6798 -1.0905 -1.5351
 2077TIP3    H227647   2.991   3.191   5.562 -1.0515 -0.4067  1.3660
 2078TIP3   OH227648   2.465   5.076  11.365 -0.2146  0.5880  0.3187
 2078TIP3    H127649   2.465   5.170  11.383 -3.9736  0.8937 -0.8670
 2078TIP3    H227650   2.496   5.068  11.275 -0.9450  0.8048  0.0447
 2079TIP3   OH227651   3.269   2.866   1.433  0.2527  0.2349  0.5034
 2079TIP3    H127652   3.339   2.854   1.497 -0.3683 -1.0710  0.9455
 2079TIP3    H227653   3.315   2.890   1.352  1.0761  1.2449  1.2698
 2080TIP3   OH227654   4.746   3.020   2.399  0.1632  0.0455  0.3842
 2080TIP3    H127655   4.778   3.020   2.490 -0.4233  0.7890  0.5977
 2080TIP3    H227656   4.823   2.999   2.347  0.0634 -2.5663  1.1843
 2081TIP3   OH227657   3.686   3.638  16.580 -0.2741 -0.1748  0.0071
 2081TIP3    H127658   3.750   3.604  16.517 -0.4486  1.5999 -1.1733
 2081TIP3    H227659   3.670   3.565  16.640 -0.0626 -1.9105 -1.9720
 2082TIP3   OH227660   5.029   2.134   2.973  0.4087  0.2557 -0.0986
 2082TIP3    H127661   5.019   2.136   3.069  0.1553  2.0209 -0.1431
 2082TIP3    H227662   4.947   2.172   2.940  0.6064 -0.1019 -1.0108
 2083TIP3   OH227663   5.764   1.072   5.406 -0.5390  0.5898  0.4183
 2083TIP3    H127664   5.818   1.108   5.336 -0.2493  1.7226  1.2063
 2083TIP3    H227665   5.693   1.135   5.417 -1.3263 -0.2593  0.2394
 2084TIP3   OH227666   1.919   3.864   1.547 -0.0666  0.0051 -0.7126
 2084TIP3    H127667   1.991   3.815   1.505 -0.5659 -1.3712  0.0053
 2084TIP3    H227668   1.948   3.955   1.545  1.5641 -0.4905 -0.7222
 2085TIP3   OH227669   3.461   4.954  15.897 -0.1426  0.1561  0.2083
 2085TIP3    H127670   3.515   5.031  15.878 -0.5547  0.0193 -1.6536
 2085TIP3    H227671   3.502   4.913  15.972  0.4795  1.8320  0.8092
 2086TIP3   OH227672   2.286   5.624   2.417  0.0205 -0.1167  0.1953
 2086TIP3    H127673   2.198   5.620   2.453  0.5588 -0.6138  1.5075
 2086TIP3    H227674   2.333   5.551   2.459  1.2724  0.6421  0.1639
 2087TIP3   OH227675   0.788   1.912  11.431  0.3320  0.7739  0.5540
 2087TIP3    H127676   0.860   1.954  11.383  1.2839 -0.6184  0.7293
 2087TIP3    H227677   0.709   1.952  11.396  0.9882 -0.5106 -2.4972
 2088TIP3   OH227678   5.944   0.496  11.846 -0.0991  0.1144  0.4958
 2088TIP3    H127679   5.983   0.438  11.911  0.6395  0.5488  0.4483
 2088TIP3    H227680   5.881   0.549  11.894 -0.1441 -0.1313  0.7043
 2089TIP3   OH227681   2.408   5.456   2.612 -0.0213 -0.4981  0.1807
 2089TIP3    H127682   2.382   5.517   2.680  1.0741  0.3166 -0.1060
 2089TIP3    H227683   2.438   5.378   2.659 -1.5133 -0.8689  0.5449
 2090TIP3   OH227684   3.974   2.282  10.325  0.6002  0.6044  0.4261
 2090TIP3    H127685   3.898   2.339  10.340 -2.1595 -3.0434  1.0113
 2090TIP3    H227686   4.013   2.271  10.411 -1.3102 -1.5652  1.0684
 2091TIP3   OH227687   5.154   4.383   2.909 -0.0544  0.2424  0.9864
 2091TIP3    H127688   5.219   4.393   2.839 -0.6172  1.3410  0.6145
 2091TIP3    H227689   5.080   4.339   2.868  0.0197 -0.0361  1.1475
 2092TIP3   OH227690   2.721   2.329  11.397  0.1900  0.1599  0.7508
 2092TIP3    H127691   2.814   2.336  11.419  0.1829 -0.2802  0.9357
 2092TIP3    H227692   2.691   2.252  11.446  0.1712 -0.8374 -0.8089
 2093TIP3   OH227693   4.327   5.374  15.951  0.0004 -0.2038 -0.2479
 2093TIP3    H127694   4.241   5.331  15.944  0.5664 -1.1976 -1.3902
 2093TIP3    H227695   4.379   5.315  16.006  0.1177  0.1281 -0.0019
 2094TIP3   OH227696   0.879   3.722  11.408 -0.1077 -0.3432  0.1553
 2094TIP3    H127697   0.901   3.738  11.500  2.8911  0.8295 -0.7160
 2094TIP3    H227698   0.892   3.806  11.365  0.3660 -1.3376 -1.6951
 2095TIP3   OH227699   0.054   5.079   1.932  0.0498 -0.0359  0.0655
 2095TIP3    H127700   0.148   5.066   1.916 -0.4070 -2.4221 -0.8084
 2095TIP3    H227701   0.031   5.152   1.875  1.3511  0.5266  0.2283
 2096TIP3   OH227702   0.069   2.741  14.783 -0.3825  0.2822  0.8218
 2096TIP3    H127703  -0.018   2.720  14.749  0.9546 -1.1347 -1.9396
 2096TIP3    H227704   0.101   2.812  14.728  0.1214  0.9499  1.9585
 2097TIP3   OH227705   3.704   1.758   4.325  0.4421  0.4092 -0.4950
 2097TIP3    H127706   3.686   1.736   4.416  0.4534  0.1088 -0.5676
 2097TIP3    H227707   3.643   1.830   4.305  0.1231  0.1653 -0.3927
 2098TIP3   OH227708   1.634   2.256   0.850 -0.2022  0.2737  0.6299
 2098TIP3    H127709   1.673   2.309   0.781  0.9835 -0.6756  0.5497
 2098TIP3    H227710   1.696   2.184   0.863 -1.4545 -0.7322  1.1912
 2099TIP3   OH227711   0.092   5.307  14.755 -0.4673 -0.2312  0.6000
 2099TIP3    H127712   0.057   5.367  14.689  0.7235 -1.2848 -1.0325
 2099TIP3    H227713   0.172   5.349  14.786 -0.0479 -0.5961  0.0222
 2100TIP3   OH227714   5.399   2.595  11.248  0.0634 -0.1068  0.1693
 2100TIP3    H127715   5.383   2.689  11.238  0.7947  0.0410  0.3923
 2100TIP3    H227716   5.458   2.573  11.176 -0.1588 -0.4082  0.0814
 2101TIP3   OH227717   3.652   2.015  12.152 -0.2635  0.0849 -0.5687
 2101TIP3    H127718   3.622   2.106  12.152  1.0189  0.5233  0.0359
 2101TIP3    H227719   3.641   1.986  12.061  1.8090  1.7103 -1.3865
 2102TIP3   OH227720   6.420   6.334   1.717  0.0065  0.4001  0.2060
 2102TIP3    H127721   6.408   6.410   1.660  0.3962 -0.6659 -1.3206
 2102TIP3    H227722   6.370   6.355   1.796 -0.3787  1.9790 -0.4501
 2103TIP3   OH227723   0.411   2.086  14.943  0.2869  0.2241 -0.3504
 2103TIP3    H127724   0.395   2.180  14.937  3.5074  0.7936 -0.6904
 2103TIP3    H227725   0.418   2.070  15.038 -4.0468 -0.4205 -0.0513
 2104TIP3   OH227726   4.834   3.367  12.337  0.2413  0.0980  0.3660
 2104TIP3    H127727   4.822   3.381  12.243 -0.3631 -1.4481  0.1930
 2104TIP3    H227728   4.927   3.346  12.346  0.3407  0.4408  0.1386
 2105TIP3   OH227729   1.252   4.653   4.097  0.3494 -0.5339  0.2444
 2105TIP3    H127730   1.326   4.608   4.058 -0.2049 -1.2862  0.0578
 2105TIP3    H227731   1.186   4.586   4.109 -0.6612  0.3073 -0.4748
 2106TIP3   OH227732   3.577   3.503   0.791 -0.0374  0.0339  0.2811
 2106TIP3    H127733   3.641   3.492   0.861  1.0844  0.0372 -0.7269
 2106TIP3    H227734   3.499   3.536   0.834 -0.0858 -2.0446  1.8739
 2107TIP3   OH227735   5.528   2.947   5.308 -0.8119 -0.4919  0.4854
 2107TIP3    H127736   5.438   2.953   5.341 -1.1226  0.0672 -0.4702
 2107TIP3    H227737   5.582   2.967   5.385 -1.5333  0.5256  0.7482
 2108TIP3   OH227738   5.327   5.039  14.283  0.4299 -0.1634 -0.0619
 2108TIP3    H127739   5.326   4.966  14.221  2.2336  0.5634 -0.9871
 2108TIP3    H227740   5.416   5.074  14.278 -0.0445  1.3084  1.2950
 2109TIP3   OH227741   1.369   0.957  14.452  0.0510 -0.4884  0.4814
 2109TIP3    H127742   1.461   0.942  14.473 -0.0378 -1.0723  0.4679
 2109TIP3    H227743   1.344   0.883  14.397 -0.4109 -0.3029  0.4351
 2110TIP3   OH227744   3.676   5.384   2.397  0.2156 -0.9812 -0.0811
 2110TIP3    H127745   3.732   5.335   2.337 -0.1648 -1.1201 -0.3271
 2110TIP3    H227746   3.599   5.406   2.345  1.2502  1.6225 -0.5690
 2111TIP3   OH227747   3.312   3.228   3.586 -0.4416 -0.1569 -0.1105
 2111TIP3    H127748   3.268   3.238   3.501  0.0778  0.4145 -0.3162
 2111TIP3    H227749   3.402   3.256   3.569 -0.9099  2.3112  1.1899
 2112TIP3   OH227750   3.684   0.019   4.354 -0.2704  0.2031  0.3150
 2112TIP3    H127751   3.718  -0.020   4.435 -1.3102  0.7570  1.0445
 2112TIP3    H227752   3.746   0.088   4.333 -0.2076  0.3217  0.8677
 2113TIP3   OH227753   4.060   1.691   5.640 -0.2949 -0.1280 -0.9380
 2113TIP3    H127754   4.062   1.756   5.710 -1.5613  0.0508 -1.0589
 2113TIP3    H227755   4.095   1.612   5.680 -2.0534 -0.3445  0.2489
 2114TIP3   OH227756   5.869   2.380   1.133  0.0725  0.1172 -0.2574
 2114TIP3    H127757   5.836   2.369   1.044  0.3030  1.3684 -0.5098
 2114TIP3    H227758   5.962   2.402   1.122 -0.4681  2.8545  0.1363
 2115TIP3   OH227759   2.570   1.725  10.835 -0.0414  0.0574 -0.0472
 2115TIP3    H127760   2.503   1.739  10.768  0.2756 -1.3169 -0.6629
 2115TIP3    H227761   2.622   1.652  10.802 -0.0536 -0.8211  1.8370
 2116TIP3   OH227762   3.641   3.183   1.349 -0.5027  0.1592  0.2618
 2116TIP3    H127763   3.583   3.141   1.286 -1.5307  2.0036 -0.0680
 2116TIP3    H227764   3.614   3.147   1.434 -0.4014 -0.8883 -0.1444
 2117TIP3   OH227765   3.749   4.405  13.142  0.0031 -0.1630 -0.4398
 2117TIP3    H127766   3.828   4.360  13.171 -0.2342  0.3160  0.9623
 2117TIP3    H227767   3.745   4.386  13.048  0.6888 -1.8424 -0.1564
 2118TIP3   OH227768   4.330   1.276   3.029 -0.2609 -0.3177  0.2100
 2118TIP3    H127769   4.341   1.193   3.075  1.2221 -0.7989 -1.0139
 2118TIP3    H227770   4.407   1.284   2.974 -0.8602  1.4215 -0.4081
 2119TIP3   OH227771   5.823   2.405  14.374  0.0463 -0.4361 -0.6393
 2119TIP3    H127772   5.842   2.491  14.412 -1.5498 -0.6152  0.5917
 2119TIP3    H227773   5.845   2.343  14.444  0.0855 -0.9622 -1.1181
 2120TIP3   OH227774   3.628   2.911   1.581 -0.2255 -0.2624 -0.0853
 2120TIP3    H127775   3.624   2.894   1.487  1.4589  2.2852 -0.6819
 2120TIP3    H227776   3.719   2.893   1.605 -0.7470 -1.2983  1.1507
 2121TIP3   OH227777   3.255   3.292  14.292 -0.0352  0.5660 -0.3771
 2121TIP3    H127778   3.303   3.285  14.210  0.0025 -0.3899 -0.2771
 2121TIP3    H227779   3.198   3.215  14.293  1.3283 -0.4515  1.3669
 2122TIP3   OH227780   5.835   3.150   2.409  0.3067 -0.1564  0.1761
 2122TIP3    H127781   5.777   3.180   2.479  1.3941 -0.2419  1.1507
 2122TIP3    H227782   5.912   3.207   2.417  0.5458 -0.3451 -0.7875
 2123TIP3   OH227783   6.779   5.277  15.694 -0.7159 -0.3973  0.0680
 2123TIP3    H127784   6.869   5.247  15.710 -0.8813 -2.0350 -1.8234
 2123TIP3    H227785   6.728   5.234  15.762  0.0087  1.1391  1.6233
 2124TIP3   OH227786   2.797   4.410   3.807  0.0206  0.4147  0.6476
 2124TIP3    H127787   2.767   4.500   3.789  2.0898  1.4889  2.3727
 2124TIP3    H227788   2.728   4.372   3.860  0.1820  1.7934  1.8792
 2125TIP3   OH227789   4.726   0.103   0.528 -0.5646  0.3134 -0.3684
 2125TIP3    H127790   4.691   0.015   0.516  1.2489 -0.4191 -0.5447
 2125TIP3    H227791   4.689   0.154   0.457 -0.5940 -0.6401 -1.0467
 2126TIP3   OH227792   6.616   5.358   1.581 -0.0717  0.0246 -0.3651
 2126TIP3    H127793   6.539   5.414   1.590 -1.3198 -2.0916  2.6799
 2126TIP3    H227794   6.656   5.386   1.498 -3.7762  1.5539 -1.7451
 2127TIP3   OH227795   5.605   3.819   3.100 -0.2097  0.1775 -0.0762
 2127TIP3    H127796   5.692   3.810   3.060  0.3612  0.2344  1.1284
 2127TIP3    H227797   5.622   3.823   3.194 -1.3930  1.8011  0.0962
 2128TIP3   OH227798   6.215   0.702   4.043  0.5958 -0.0975 -0.1564
 2128TIP3    H127799   6.232   0.669   3.955 -0.5171 -0.9882 -0.0557
 2128TIP3    H227800   6.163   0.633   4.084 -2.1057  1.9205 -0.0530
 2129TIP3   OH227801   1.676   3.442  10.644 -0.2053 -0.1562  0.3586
 2129TIP3    H127802   1.594   3.395  10.628  0.3306 -1.2760  0.8251
 2129TIP3    H227803   1.743   3.375  10.634  0.4358  0.0437  3.1051
 2130TIP3   OH227804   0.451   3.915   0.471  0.3482  1.2278 -0.0016
 2130TIP3    H127805   0.493   4.001   0.465  1.8738  0.5334  0.3271
 2130TIP3    H227806   0.520   3.857   0.503 -1.1288  0.2004  1.3776
 2131TIP3   OH227807   2.593   6.200   0.315 -0.2405  0.1637 -0.3711
 2131TIP3    H127808   2.611   6.199   0.409  0.9132 -0.9652 -0.5879
 2131TIP3    H227809   2.643   6.126   0.280 -0.3668  0.7883 -1.9260
 2132TIP3   OH227810   5.977   2.830  11.020 -0.4139 -0.2755 -0.2038
 2132TIP3    H127811   6.020   2.755  10.980 -0.8240 -0.0691 -1.0512
 2132TIP3    H227812   5.996   2.822  11.114  2.0595  0.2207 -0.6457
 2133TIP3   OH227813   0.498   0.489   1.779 -0.4245 -0.3178 -0.1262
 2133TIP3    H127814   0.402   0.487   1.776 -0.3926 -1.8357 -1.4602
 2133TIP3    H227815   0.524   0.400   1.753  1.3383  0.0091  0.4581
 2134TIP3   OH227816   1.133   3.943  16.363  1.0489  0.5111  0.5915
 2134TIP3    H127817   1.187   4.014  16.397  1.1342 -0.6784  3.0683
 2134TIP3    H227818   1.187   3.899  16.298  1.2473  2.2783 -0.4464
 2135TIP3   OH227819   2.224   2.045  14.927 -1.0706 -0.0652  0.4417
 2135TIP3    H127820   2.259   2.083  15.008 -0.3413  0.0119  0.0921
 2135TIP3    H227821   2.147   2.098  14.907 -1.4671 -0.3170  1.2876
 2136TIP3   OH227822   5.620   5.488   2.789  0.2692 -0.1404  0.1570
 2136TIP3    H127823   5.570   5.491   2.871  0.6744  1.6297  0.3654
 2136TIP3    H227824   5.709   5.466   2.815  0.3592  0.2474  0.1852
 2137TIP3   OH227825   0.090   0.131   2.748  0.5741  0.0690 -0.2791
 2137TIP3    H127826   0.023   0.104   2.811  1.3863 -1.5240 -0.0759
 2137TIP3    H227827   0.041   0.173   2.677 -0.5545 -0.2539  0.3061
 2138TIP3   OH227828   3.000   0.193   4.970 -0.1659  0.5193 -0.4129
 2138TIP3    H127829   3.025   0.254   5.040 -0.6264 -0.0222  0.2326
 2138TIP3    H227830   3.058   0.214   4.897  2.7330 -1.1735  1.2913
 2139TIP3   OH227831   2.760   3.116  14.794 -0.2660 -0.8139 -0.2770
 2139TIP3    H127832   2.790   3.053  14.728  1.1000 -1.3799  0.8574
 2139TIP3    H227833   2.792   3.200  14.763 -0.9989 -0.8493 -1.1475
 2140TIP3   OH227834   3.376   1.067  16.488 -0.0904  0.1945  0.3620
 2140TIP3    H127835   3.378   1.011  16.411  1.9369  0.0998  0.4495
 2140TIP3    H227836   3.333   1.013  16.555 -2.1109  0.3839 -0.7496
 2141TIP3   OH227837   2.926   0.927   4.918  0.2870  0.0963  0.2944
 2141TIP3    H127838   2.867   0.883   4.979  0.1204  1.1090  0.8783
 2141TIP3    H227839   2.868   0.967   4.854  0.3529  0.6990  0.6051
 2142TIP3   OH227840   0.885   1.202  11.970  0.3122 -0.1126 -0.4253
 2142TIP3    H127841   0.938   1.216  11.891 -0.1543 -0.4179 -0.7967
 2142TIP3    H227842   0.825   1.277  11.972 -0.5563 -0.7653 -1.0890
 2143TIP3   OH227843   6.399   0.087  16.872  0.3379  0.0402 -0.2994
 2143TIP3    H127844   6.349   0.049  16.800  0.2764  0.2416 -0.3643
 2143TIP3    H227845   6.360   0.050  16.951  1.8389 -1.9364 -0.4268
 2144TIP3   OH227846   5.906   1.189   1.944  0.5151  0.1663  0.1694
 2144TIP3    H127847   5.856   1.215   1.866  0.6590 -2.3624 -0.8211
 2144TIP3    H227848   5.984   1.244   1.941 -0.0175  0.9028 -0.8328
 2145TIP3   OH227849   4.225   6.561  10.929 -0.0261  0.2641 -0.4379
 2145TIP3    H127850   4.213   6.472  10.897 -2.4617  0.1230  0.7612
 2145TIP3    H227851   4.308   6.559  10.977 -1.2011 -1.9460  1.5671
 2146TIP3   OH227852   5.940   1.933  15.353  0.1967 -0.2829 -0.1815
 2146TIP3    H127853   6.031   1.905  15.365  0.5162  0.8413 -0.0005
 2146TIP3    H227854   5.919   1.984  15.431 -1.0708 -1.7383  0.4735
 2147TIP3   OH227855   1.840   6.282   5.855 -0.3681 -0.3492  0.6269
 2147TIP3    H127856   1.900   6.207   5.852 -0.8806 -0.7309 -0.1957
 2147TIP3    H227857   1.792   6.271   5.937  1.2033  0.3741  1.6814
 2148TIP3   OH227858   3.273   6.472   4.932  0.6400  0.5584 -0.0693
 2148TIP3    H127859   3.182   6.444   4.922  1.5758 -2.2177 -1.1154
 2148TIP3    H227860   3.277   6.511   5.019 -0.8190 -2.2166  1.2691
 2149TIP3   OH227861   0.739   6.589  16.689  0.1575  0.0220 -0.3854
 2149TIP3    H127862   0.798   6.618  16.620 -0.6808  0.5116 -0.9070
 2149TIP3    H227863   0.794   6.586  16.768  0.9806  0.0117 -0.9562
 2150TIP3   OH227864   4.215   5.946  16.425  0.1483  0.3272 -0.4713
 2150TIP3    H127865   4.147   6.000  16.465 -0.7425 -1.6322  0.7492
 2150TIP3    H227866   4.168   5.894  16.359  0.4851 -0.8860  0.2316
 2151TIP3   OH227867   3.674   1.809  14.882 -0.1274  0.1987 -0.0236
 2151TIP3    H127868   3.614   1.742  14.850  0.3144  0.8201 -2.2798
 2151TIP3    H227869   3.754   1.761  14.903 -0.4164 -0.2191  0.1390
 2152TIP3   OH227870   0.309   1.714   8.131 -0.1384 -1.0485  0.8681
 2152TIP3    H127871   0.326   1.796   8.178  1.6780 -1.7052  1.3788
 2152TIP3    H227872   0.316   1.646   8.198  0.9128 -1.8538 -0.0593
 2153TIP3   OH227873   3.588   0.839   6.139  0.1107 -0.2342 -0.2572
 2153TIP3    H127874   3.679   0.868   6.136 -0.7977  2.7194 -0.1140
 2153TIP3    H227875   3.575   0.810   6.229  0.5276  0.6130  0.0794
 2154TIP3   OH227876   5.356   1.680   6.196 -0.6050 -0.1092  0.2650
 2154TIP3    H127877   5.343   1.722   6.111 -1.2969  1.3830  1.0950
 2154TIP3    H227878   5.294   1.606   6.195 -1.5986  0.7185  0.0075
 2155TIP3   OH227879   3.807   6.610   4.540  0.4719  0.2761  0.4909
 2155TIP3    H127880   3.770   6.567   4.617 -0.1765  0.9690  0.5734
 2155TIP3    H227881   3.792   6.549   4.468 -0.5701  0.4295  0.5793
 2156TIP3   OH227882   2.822   1.758  11.764  0.0103 -0.6910  0.3882
 2156TIP3    H127883   2.770   1.723  11.837 -0.6849  0.1032  0.2820
 2156TIP3    H227884   2.904   1.786  11.805  0.3704 -1.9437  0.5587
 2157TIP3   OH227885   5.400   3.804  15.383 -0.8227 -0.0320 -0.0002
 2157TIP3    H127886   5.476   3.845  15.424 -0.4613 -1.1290  0.4320
 2157TIP3    H227887   5.340   3.877  15.366  0.5891  0.9357 -0.9554
 2158TIP3   OH227888   6.401   2.630  13.404 -0.1282  0.0586  0.4369
 2158TIP3    H127889   6.359   2.712  13.430 -0.6777 -0.4937  1.3220
 2158TIP3    H227890   6.395   2.574  13.481 -1.1891 -1.3820 -0.6368
 2159TIP3   OH227891   0.737   2.171   5.766  0.4315 -0.0921 -0.6890
 2159TIP3    H127892   0.722   2.244   5.705  0.0208 -0.0656 -0.5538
 2159TIP3    H227893   0.788   2.210   5.837  0.9703 -0.1374 -1.0470
 2160TIP3   OH227894   6.408   0.862  12.955  0.1546  0.3429  0.4358
 2160TIP3    H127895   6.473   0.885  12.888 -1.2616  0.1703 -1.0283
 2160TIP3    H227896   6.459   0.851  13.035  1.9587  0.0271 -0.7272
 2161TIP3   OH227897   1.704   4.931   4.059  0.3082 -0.1314  0.2874
 2161TIP3    H127898   1.689   4.885   3.977  0.5496  1.3297 -0.5970
 2161TIP3    H227899   1.745   4.866   4.116 -0.8302 -1.4670 -0.3789
 2162TIP3   OH227900   2.784   1.093   3.225  0.1399  0.3000  0.7174
 2162TIP3    H127901   2.837   1.163   3.185 -0.3763 -0.5034 -1.4589
 2162TIP3    H227902   2.695   1.113   3.198 -0.1149 -0.7531  0.7703
 2163TIP3   OH227903   5.837   1.323  14.920  0.2972 -0.1661 -0.3978
 2163TIP3    H127904   5.744   1.337  14.935  0.5727  0.3230  0.9031
 2163TIP3    H227905   5.867   1.404  14.878  0.1591 -0.2803 -0.7167
 2164TIP3   OH227906   2.907   6.267   2.978  0.0440 -1.0123 -0.2431
 2164TIP3    H127907   2.933   6.293   3.066  1.2710 -2.9478 -0.0150
 2164TIP3    H227908   2.819   6.233   2.987 -0.3676  0.0953 -0.0114
 2165TIP3   OH227909   3.306   2.853  15.644 -0.2736 -0.2310  0.6647
 2165TIP3    H127910   3.360   2.780  15.674  1.7672  1.9829  2.5610
 2165TIP3    H227911   3.221   2.839  15.685  0.5049 -0.8552  2.0890
 2166TIP3   OH227912   5.636   6.189  12.160 -0.1371 -0.3256  0.2662
 2166TIP3    H127913   5.587   6.117  12.121 -1.3123  0.2738  0.6188
 2166TIP3    H227914   5.594   6.203  12.245 -0.6360  1.5068 -0.2646
 2167TIP3   OH227915   6.584   6.586   5.431 -0.8984  0.0274 -0.5126
 2167TIP3    H127916   6.650   6.526   5.464 -0.1904 -0.5283 -2.8796
 2167TIP3    H227917   6.593   6.664   5.486  0.0849 -0.9629  0.7459
 2168TIP3   OH227918   2.001   3.420  16.068  0.2441 -0.8256  0.2692
 2168TIP3    H127919   1.920   3.459  16.034  0.7942 -0.7855 -1.0340
 2168TIP3    H227920   2.046   3.388  15.990  1.6373 -0.5530  0.9471
 2169TIP3   OH227921   2.493   3.119  11.517  0.7937 -0.3188 -0.3032
 2169TIP3    H127922   2.588   3.105  11.515  0.4754 -2.6354 -0.9214
 2169TIP3    H227923   2.476   3.163  11.600  2.5690  1.3660 -0.8192
 2170TIP3   OH227924   1.538   5.142  12.760 -0.2987 -0.6219 -0.4502
 2170TIP3    H127925   1.610   5.143  12.698 -0.8631  0.3066 -1.0979
 2170TIP3    H227926   1.556   5.067  12.817  1.1498 -0.4092 -0.6235
 2171TIP3   OH227927   6.730   5.747   5.323 -0.1262 -0.0232 -0.0192
 2171TIP3    H127928   6.695   5.827   5.363  0.8410  0.2282  0.3435
 2171TIP3    H227929   6.767   5.698   5.396  1.0625  0.1334 -0.5089
 2172TIP3   OH227930   4.841   4.020   1.865  0.2857  0.1544 -0.2627
 2172TIP3    H127931   4.839   4.014   1.960 -0.0282 -0.8091 -0.3345
 2172TIP3    H227932   4.890   4.101   1.848 -0.8069  1.0467  0.7278
 2173TIP3   OH227933   3.508   4.708   3.088 -0.6256 -0.2490  0.1703
 2173TIP3    H127934   3.433   4.658   3.120 -2.1222  1.7807 -0.0980
 2173TIP3    H227935   3.491   4.798   3.116  0.9965  0.4905 -1.1293
 2174TIP3   OH227936   3.289   1.193  12.933  0.2451  0.4536 -0.2710
 2174TIP3    H127937   3.383   1.212  12.923  0.6768 -0.9527  0.8769
 2174TIP3    H227938   3.266   1.233  13.017 -0.1370  0.6019 -0.4474
 2175TIP3   OH227939   3.068   2.393   3.092  0.0971  0.3997 -0.3989
 2175TIP3    H127940   3.011   2.321   3.119  0.7434  0.2041  0.5050
 2175TIP3    H227941   3.100   2.368   3.006 -0.8450  0.3113 -0.7262
 2176TIP3   OH227942   2.128   5.712  14.275 -0.0773  0.0346  0.4500
 2176TIP3    H127943   2.191   5.656  14.322 -0.0431 -0.2944  0.0122
 2176TIP3    H227944   2.138   5.798  14.317  1.7471  0.3687 -0.5899
 2177TIP3   OH227945   6.627   6.622  14.011 -0.5708 -0.1018 -0.0104
 2177TIP3    H127946   6.578   6.556  14.060 -1.2853  0.2907 -0.1826
 2177TIP3    H227947   6.717   6.611  14.039 -0.9986  0.2421  1.5354
 2178TIP3   OH227948   4.191   3.806   6.443 -0.3220 -0.7520  0.2652
 2178TIP3    H127949   4.238   3.777   6.521 -0.7280 -1.4820  0.2377
 2178TIP3    H227950   4.146   3.728   6.411 -1.4824 -0.0862  0.2376
 2179TIP3   OH227951   0.362   1.282  14.429 -0.4546  0.2260 -0.4145
 2179TIP3    H127952   0.369   1.253  14.520  1.2187  1.0731 -0.2512
 2179TIP3    H227953   0.453   1.289  14.399 -1.0053 -0.9040 -2.4437
 2180TIP3   OH227954   2.096   2.111   2.366 -0.0388  0.4269  0.2858
 2180TIP3    H127955   2.024   2.048   2.358  2.2802 -1.9150 -3.4271
 2180TIP3    H227956   2.078   2.176   2.298  0.9679  0.2523 -0.1466
 2181TIP3   OH227957   2.116   0.554   5.909  0.4932  0.4635  0.3367
 2181TIP3    H127958   2.100   0.604   5.829  0.7439 -1.2963 -0.8377
 2181TIP3    H227959   2.170   0.611   5.963  1.8212  0.9847 -1.5098
 2182TIP3   OH227960   4.423   5.013  15.592  0.2918 -0.0334  0.3022
 2182TIP3    H127961   4.333   5.024  15.621  0.7583  1.9825  1.0350
 2182TIP3    H227962   4.471   4.986  15.671  0.4638 -0.4536  0.0581
 2183TIP3   OH227963   1.026   4.512  14.518 -0.0759 -0.1369  0.0273
 2183TIP3    H127964   1.117   4.528  14.492  0.2415 -0.4362  0.9598
 2183TIP3    H227965   1.003   4.431  14.471  0.9597 -1.4687  1.7662
 2184TIP3   OH227966   1.282   4.113  16.021 -0.4965  0.4243  0.0048
 2184TIP3    H127967   1.289   4.018  16.008 -1.4890  0.4526 -0.8246
 2184TIP3    H227968   1.199   4.125  16.065 -0.0154  0.8557  0.8021
 2185TIP3   OH227969   3.353   4.425  16.658  0.2151  0.0910  0.1180
 2185TIP3    H127970   3.328   4.479  16.733 -1.5957 -1.0383  0.3482
 2185TIP3    H227971   3.448   4.416  16.666  0.0742  0.1412  2.1964
 2186TIP3   OH227972   0.098   5.043  11.648  0.1483 -0.7099 -0.0072
 2186TIP3    H127973   0.112   5.105  11.720  0.9541 -2.0839  1.0406
 2186TIP3    H227974   0.098   5.098  11.570  1.0159  0.6058  0.8845
 2187TIP3   OH227975   1.570   5.995  13.384 -0.4269 -0.2005  0.3024
 2187TIP3    H127976   1.553   5.900  13.387 -2.1830  0.0006 -1.6560
 2187TIP3    H227977   1.532   6.023  13.301 -0.1386  2.2847  0.9724
 2188TIP3   OH227978   5.293   3.104   3.544  0.2375  0.3778 -0.5435
 2188TIP3    H127979   5.291   3.180   3.603  2.4406  0.9044 -1.1088
 2188TIP3    H227980   5.325   3.032   3.598 -0.6774  0.1408 -0.3186
 2189TIP3   OH227981   4.637   0.320  15.012 -0.2440  0.3614 -1.1949
 2189TIP3    H127982   4.576   0.360  15.073  0.7753  1.0062 -0.5860
 2189TIP3    H227983   4.599   0.335  14.926 -1.7014 -0.5726 -0.7297
 2190TIP3   OH227984   2.981   3.850  15.729  0.3614  0.3418  0.2570
 2190TIP3    H127985   3.034   3.771  15.723  0.7234  0.6740 -0.8731
 2190TIP3    H227986   2.894   3.823  15.700  0.9527  0.8128 -1.9916
 2191TIP3   OH227987   4.779   3.918   5.220  0.3365 -0.0318  0.9014
 2191TIP3    H127988   4.769   3.989   5.284  2.1561  1.9630 -0.9312
 2191TIP3    H227989   4.736   3.951   5.142  2.9666 -0.0611 -0.6031
 2192TIP3   OH227990   5.824   2.758   4.465  0.0863  0.3351  1.0058
 2192TIP3    H127991   5.812   2.725   4.554 -0.9455  2.5292  1.7130
 2192TIP3    H227992   5.735   2.775   4.433  0.3756 -1.4364 -0.8664
 2193TIP3   OH227993   5.650   3.612  17.092  0.4517  0.2431  0.0650
 2193TIP3    H127994   5.713   3.540  17.084  0.8493  0.5599  0.3227
 2193TIP3    H227995   5.614   3.603  17.181 -0.6761 -0.5934 -0.4615
 2194TIP3   OH227996   5.880   4.268   0.026  0.3649  0.0288 -0.2890
 2194TIP3    H127997   5.975   4.261   0.024  0.3260 -0.5705 -0.1346
 2194TIP3    H227998   5.861   4.351  -0.016  1.0771  1.2227  1.6601
 2195TIP3   OH227999   5.411   4.108  11.996 -0.0252 -0.1886 -0.5726
 2195TIP3    H128000   5.469   4.113  11.921 -0.3668 -1.9404 -0.9920
 2195TIP3    H228001   5.382   4.016  11.997 -1.6962  0.3317  0.4253
 2196TIP3   OH228002   2.932   0.223  12.422 -0.1615 -0.2301 -0.5927
 2196TIP3    H128003   2.986   0.162  12.471  0.4631 -0.9213 -2.1066
 2196TIP3    H228004   2.843   0.208  12.454  0.3833  0.2176  1.1891
 2197TIP3   OH228005   4.470   0.900  15.958  0.3875  0.4620 -0.4032
 2197TIP3    H128006   4.448   0.980  16.006 -0.1807  0.6909 -1.0238
 2197TIP3    H228007   4.485   0.930  15.868 -0.2026 -0.1781 -0.7240
 2198TIP3   OH228008   3.037   6.452  16.999 -0.4875  0.0219  0.3552
 2198TIP3    H128009   3.126   6.475  17.025 -1.3470  2.5116  1.2053
 2198TIP3    H228010   3.046   6.417  16.911  1.4015 -0.2753  0.6461
 2199TIP3   OH228011   5.123   2.012   3.681  0.5139  0.1790 -0.5863
 2199TIP3    H128012   5.156   1.947   3.619  1.2765  0.4309 -0.4492
 2199TIP3    H228013   5.201   2.041   3.730 -0.1336 -0.2990  0.7522
 2200TIP3   OH228014   4.835   2.724  17.202 -0.3571 -0.1836  0.0152
 2200TIP3    H128015   4.820   2.708  17.109  1.7530  2.3918 -0.8318
 2200TIP3    H228016   4.894   2.654  17.230 -0.5670 -0.6531 -0.7341
 2201TIP3   OH228017   5.262   1.922   3.334  0.2366  0.0887 -0.4997
 2201TIP3    H128018   5.288   2.014   3.343 -0.3303  0.0958  1.1963
 2201TIP3    H228019   5.295   1.880   3.413 -0.5022 -0.9308 -0.7220
 2202TIP3   OH228020   3.194   1.051   0.778 -0.1820  0.2991 -0.1706
 2202TIP3    H128021   3.205   1.146   0.777 -1.2958  0.5203  3.1869
 2202TIP3    H228022   3.268   1.018   0.828 -0.1584 -0.5529 -0.7553
 2203TIP3   OH228023   6.573   4.048  17.098 -1.0071  1.0126 -0.1095
 2203TIP3    H128024   6.541   4.084  17.015 -1.9023  2.0122  0.6626
 2203TIP3    H228025   6.570   3.953  17.086 -2.6290  1.1258 -0.6645
 2204TIP3   OH228026   3.818   2.304  16.137 -0.3609 -0.2347 -0.1430
 2204TIP3    H128027   3.898   2.253  16.124  0.5250  0.1676  3.2604
 2204TIP3    H228028   3.846   2.395  16.130 -0.9911 -0.1011 -1.1473
 2205TIP3   OH228029   5.398   1.162  15.620  0.1695 -0.2597  0.3967
 2205TIP3    H128030   5.433   1.075  15.639 -1.7231 -1.0307  0.4337
 2205TIP3    H228031   5.312   1.146  15.581  0.6691  1.5333 -1.5573
 2206TIP3   OH228032   3.969   0.847  17.034  0.1997 -0.3983 -0.1205
 2206TIP3    H128033   4.015   0.763  17.033  0.5022 -0.2748  1.6347
 2206TIP3    H228034   3.923   0.851  16.950  0.1713 -2.3140 -0.2049
 2207TIP3   OH228035   2.987   3.771  11.387  0.1924  0.1555 -0.4354
 2207TIP3    H128036   3.006   3.812  11.302  2.1447  0.4821  0.1364
 2207TIP3    H228037   2.913   3.822  11.422 -1.4310 -0.7365 -2.4302
 2208TIP3   OH228038   0.727   2.805   5.960 -0.0708 -0.1004  0.4597
 2208TIP3    H128039   0.669   2.822   5.886  0.9987 -0.6731 -0.5211
 2208TIP3    H228040   0.767   2.720   5.941  1.8737  0.7520  0.5872
 2209TIP3   OH228041   5.036   6.664  17.203 -0.0527  1.0293  0.2765
 2209TIP3    H128042   5.087   6.624  17.273 -0.3588 -1.4221 -0.8401
 2209TIP3    H228043   5.096   6.724  17.160  0.6798  1.1773  1.4853
 2210TIP3   OH228044   4.231   0.656  16.773  0.5365  0.0432  0.5003
 2210TIP3    H128045   4.153   0.634  16.722  0.0358 -0.2965  1.4018
 2210TIP3    H228046   4.225   0.751  16.786  0.0511 -0.0383  0.9148
 2211TIP3   OH228047   6.432   5.404   2.828 -0.2255  0.1799 -0.0358
 2211TIP3    H128048   6.478   5.457   2.894 -0.5405  0.1910  0.1739
 2211TIP3    H228049   6.459   5.442   2.744  0.4255 -0.0367  0.0722
 2212TIP3   OH228050   1.170   5.997   1.731  0.3889  0.4806  0.1138
 2212TIP3    H128051   1.180   5.901   1.734  2.3585  0.6239 -0.8992
 2212TIP3    H228052   1.225   6.024   1.657 -0.7587  2.3335 -0.0879
 2213TIP3   OH228053   4.841   2.532   5.499 -0.3776 -0.0976 -0.2475
 2213TIP3    H128054   4.842   2.527   5.594  1.1207 -0.9622 -0.2884
 2213TIP3    H228055   4.866   2.623   5.479  2.0221 -0.6257  0.1708
 2214TIP3   OH228056   1.324   6.737   0.865 -0.2158  0.1895 -0.1113
 2214TIP3    H128057   1.252   6.754   0.926 -1.8565  0.2436 -1.9998
 2214TIP3    H228058   1.280   6.717   0.781  1.9660  0.3871 -1.3343
 2215TIP3   OH228059   0.716   3.327   0.050  0.1031  0.0479  0.2349
 2215TIP3    H128060   0.729   3.236   0.078  1.9028  0.3920  0.5978
 2215TIP3    H228061   0.737   3.327  -0.043 -0.2768  0.0136  0.1487
 2216TIP3   OH228062   0.368   5.806  16.309  0.2898 -0.4207  0.2285
 2216TIP3    H128063   0.296   5.840  16.255 -0.5742 -1.1938  0.8691
 2216TIP3    H228064   0.427   5.764  16.247  0.5978  0.8917 -0.3989
 2217TIP3   OH228065   5.551   2.867  12.595  0.3046  0.5008 -0.5944
 2217TIP3    H128066   5.579   2.958  12.609 -0.1212  0.6045 -0.3916
 2217TIP3    H228067   5.457   2.868  12.616  0.5706 -0.2617  0.7238
 2218TIP3   OH228068   0.431   5.201   4.341 -0.4112 -0.8493 -0.4999
 2218TIP3    H128069   0.445   5.171   4.431 -1.0421  0.3288  0.0024
 2218TIP3    H228070   0.418   5.120   4.291 -0.1865 -1.5086  0.4849
 2219TIP3   OH228071   4.771   2.293   5.788 -0.5558 -0.4799 -0.5363
 2219TIP3    H128072   4.818   2.216   5.755 -0.6778 -0.1163 -1.5701
 2219TIP3    H228073   4.840   2.350   5.822 -0.5691 -1.6179  1.4719
 2220TIP3   OH228074   5.461   4.653   2.566  0.2398  0.0951  0.2822
 2220TIP3    H128075   5.495   4.582   2.512  1.9426 -0.0663  1.5160
 2220TIP3    H228076   5.539   4.693   2.604 -0.8835  0.6259  2.0884
 2221TIP3   OH228077   2.663   6.288   2.635  0.3638 -0.2112 -0.1417
 2221TIP3    H128078   2.751   6.318   2.658  0.0498  0.0270  0.7647
 2221TIP3    H228079   2.607   6.324   2.704 -0.7842  1.5917 -1.9494
 2222TIP3   OH228080   2.651   5.729  12.998  0.2871  0.1221 -0.5216
 2222TIP3    H128081   2.709   5.800  13.026 -0.2304  0.0894  0.6732
 2222TIP3    H228082   2.707   5.651  12.997  0.2534  0.0662  0.7527
 2223TIP3   OH228083   1.890   5.379   3.175  0.1810 -0.5029 -0.0501
 2223TIP3    H128084   1.801   5.391   3.210  0.5211  1.1751  0.2688
 2223TIP3    H228085   1.911   5.287   3.195 -1.6306 -1.0365 -0.4894
 2224TIP3   OH228086   2.865   6.090   2.196  0.0155 -0.4881  0.4134
 2224TIP3    H128087   2.909   6.047   2.269 -0.4129 -1.2043  0.2480
 2224TIP3    H228088   2.803   6.150   2.236  0.5287 -0.1017  0.6414
 2225TIP3   OH228089   0.714   5.317  14.391  0.3268 -0.0993 -0.3636
 2225TIP3    H128090   0.619   5.333  14.393  0.1764 -0.5010 -2.8651
 2225TIP3    H228091   0.722   5.222  14.383  1.0260 -0.3125  2.3512
 2226TIP3   OH228092   5.948   4.642   0.480  0.5873 -0.0494  0.1217
 2226TIP3    H128093   6.009   4.713   0.503  0.1030  0.5276 -0.3587
 2226TIP3    H228094   5.923   4.604   0.563  0.0134  1.0478  0.4657
 2227TIP3   OH228095   5.343   6.184   2.130 -0.2595 -0.0420  0.2656
 2227TIP3    H128096   5.437   6.171   2.143 -0.4242  0.2122  1.7591
 2227TIP3    H228097   5.333   6.278   2.118 -0.3283 -0.0596  0.1853
 2228TIP3   OH228098   0.801   4.225  10.809 -0.0504  0.7459  0.1792
 2228TIP3    H128099   0.825   4.318  10.805 -3.1125  1.5034 -1.8068
 2228TIP3    H228100   0.865   4.182  10.752  0.9497  1.6962  0.5498
 2229TIP3   OH228101   1.655   5.052  11.955  0.6312 -0.0692  0.0984
 2229TIP3    H128102   1.750   5.056  11.963  0.6091 -1.8399  1.5761
 2229TIP3    H228103   1.640   5.025  11.864  1.5084  0.8906 -0.3416
 2230TIP3   OH228104   3.143   5.586   1.217 -0.5154 -0.3741 -0.5893
 2230TIP3    H128105   3.170   5.605   1.127 -1.3746 -2.1971 -1.2548
 2230TIP3    H228106   3.081   5.513   1.209 -1.5858  0.2743  1.3737
 2231TIP3   OH228107   2.131   4.691  17.200 -0.6889  0.1387 -0.2224
 2231TIP3    H128108   2.096   4.697  17.289 -1.6439 -0.3016 -0.5512
 2231TIP3    H228109   2.068   4.635  17.154  0.1508 -0.1783 -0.9967
 2232TIP3   OH228110   1.700   6.746  12.675  0.0782  0.1207  0.2619
 2232TIP3    H128111   1.684   6.785  12.589  0.4673  0.5790  0.3925
 2232TIP3    H228112   1.659   6.660  12.671 -0.6890  0.4925 -0.0797
 2233TIP3   OH228113   4.743   0.584   2.443 -0.1428  0.2827 -0.1674
 2233TIP3    H128114   4.819   0.594   2.500 -1.5900 -0.6613  2.0106
 2233TIP3    H228115   4.717   0.674   2.421 -0.6411  0.7415  2.1701
 2234TIP3   OH228116   4.590   1.100  13.001 -0.0056  0.1601 -0.0314
 2234TIP3    H128117   4.684   1.096  12.982 -0.6408 -0.0990 -3.4282
 2234TIP3    H228118   4.564   1.189  12.980 -0.7251 -0.0479 -0.0484
 2235TIP3   OH228119   5.556   2.680  14.576 -0.1771  0.5409  0.0552
 2235TIP3    H128120   5.589   2.749  14.633 -2.0890  0.8464  0.8429
 2235TIP3    H228121   5.589   2.598  14.614 -0.3375  0.8343  0.8114
 2236TIP3   OH228122   0.208   1.435  10.515  0.6201  0.4602 -0.9306
 2236TIP3    H128123   0.218   1.365  10.579  1.2198  0.4319 -1.0456
 2236TIP3    H228124   0.233   1.395  10.432 -0.0206  0.5338 -1.1597
 2237TIP3   OH228125   0.065   3.160  15.840 -0.4080 -0.1920  0.4055
 2237TIP3    H128126   0.008   3.143  15.765 -0.3885  1.0904  0.0804
 2237TIP3    H228127   0.006   3.162  15.915 -0.8007  1.0319  0.0833
 2238TIP3   OH228128   3.967   0.997   4.067 -0.1164  0.3724 -0.3227
 2238TIP3    H128129   3.915   1.077   4.075 -2.3465 -0.9957 -0.5956
 2238TIP3    H228130   4.050   1.018   4.108 -1.2313  2.3403  1.0221
 2239TIP3   OH228131   3.973   2.546  12.127  0.3798 -0.1967 -0.0088
 2239TIP3    H128132   3.910   2.480  12.157  1.2238 -1.6398 -1.2977
 2239TIP3    H228133   3.945   2.567  12.038  0.5905  0.5872  0.1077
 2240TIP3   OH228134   4.352   2.686  16.776  0.0847 -0.0345 -0.5141
 2240TIP3    H128135   4.327   2.736  16.854 -0.6699  0.8899 -1.3434
 2240TIP3    H228136   4.299   2.723  16.706  1.6911  0.0065 -1.7364
 2241TIP3   OH228137   6.210   2.099  16.471  0.1668 -0.0105 -0.0252
 2241TIP3    H128138   6.149   2.141  16.531 -0.2062 -1.3165  0.5348
 2241TIP3    H228139   6.161   2.026  16.434  1.8059 -1.9837  1.5470
 2242TIP3   OH228140   4.227   0.417   5.974  0.1354 -0.0637 -0.5215
 2242TIP3    H128141   4.255   0.507   5.962  0.9371 -0.0070  1.4459
 2242TIP3    H228142   4.142   0.423   6.018 -0.5002 -0.2744 -1.6934
 2243TIP3   OH228143   3.814   2.972   4.307  0.5846 -1.0607  0.0109
 2243TIP3    H128144   3.755   2.944   4.237 -1.7008  0.3417  1.3073
 2243TIP3    H228145   3.843   3.060   4.280  1.9015 -1.6164 -0.4682
 2244TIP3   OH228146   1.008   4.722  16.482  0.1646  0.1040  0.1832
 2244TIP3    H128147   1.051   4.807  16.479  1.1482 -0.4394 -2.1368
 2244TIP3    H228148   1.007   4.692  16.391 -3.3714 -0.7924  0.4256
 2245TIP3   OH228149   5.185   6.104   1.430 -0.5957  0.7812  0.0542
 2245TIP3    H128150   5.228   6.040   1.486 -0.9708  1.8470  1.5899
 2245TIP3    H228151   5.228   6.095   1.345 -0.1800 -1.0064  0.4442
 2246TIP3   OH228152   4.615   0.319  13.943  0.3434  0.0058  0.0246
 2246TIP3    H128153   4.526   0.325  13.910  0.0741 -2.4862  0.1537
 2246TIP3    H228154   4.663   0.390  13.900 -1.2517  0.1595 -1.5228
 2247TIP3   OH228155   3.873   0.818  14.368 -0.0478 -0.2082 -0.2086
 2247TIP3    H128156   3.963   0.788  14.379  0.2031  0.3918 -0.6368
 2247TIP3    H228157   3.879   0.892  14.308 -0.4299  2.1802  2.5958
 2248TIP3   OH228158   2.812   4.299  13.183  0.0193 -0.2060  0.1431
 2248TIP3    H128159   2.866   4.323  13.108  0.5857 -0.6835  0.3953
 2248TIP3    H228160   2.873   4.297  13.257  0.0521 -2.6840  0.0873
 2249TIP3   OH228161   3.730   3.516   4.292 -0.7121 -0.3581  0.0867
 2249TIP3    H128162   3.681   3.590   4.255 -0.8710  0.3557  1.6676
 2249TIP3    H228163   3.734   3.535   4.386  1.0650 -1.3097  0.2152
 2250TIP3   OH228164   2.617   0.768  15.168  0.3213 -0.2380 -0.0386
 2250TIP3    H128165   2.552   0.718  15.216 -1.9984  1.8797 -0.8753
 2250TIP3    H228166   2.665   0.703  15.117 -0.8110 -1.8760  0.9665
 2251TIP3   OH228167   1.152   2.234  12.474 -0.0022  0.7732  0.1156
 2251TIP3    H128168   1.195   2.319  12.483  2.0760 -0.0893 -1.4190
 2251TIP3    H228169   1.106   2.222  12.557  0.4672  2.9621  0.7194
 2252TIP3   OH228170   3.778   2.712  14.417  0.4119 -0.3247  0.1088
 2252TIP3    H128171   3.801   2.623  14.391 -0.9034 -0.6094 -0.1174
 2252TIP3    H228172   3.700   2.733  14.365 -0.9481 -0.0984  2.1571
 2253TIP3   OH228173   5.717   6.024  10.903  0.7926 -0.1694 -0.1050
 2253TIP3    H128174   5.773   5.946  10.893  1.1229  0.2374 -1.6196
 2253TIP3    H228175   5.633   5.997  10.866  1.0806  0.3577 -1.1756
 2254TIP3   OH228176   3.557   6.601  10.841  0.1050 -0.1562 -0.0738
 2254TIP3    H128177   3.526   6.691  10.830 -0.0055 -0.2067 -0.1887
 2254TIP3    H228178   3.530   6.578  10.930 -0.2112 -0.2055 -0.1793
 2255TIP3   OH228179   0.364   3.109   0.303 -0.1810 -0.1167 -0.0701
 2255TIP3    H128180   0.269   3.098   0.306 -0.1889 -0.0179  0.0272
 2255TIP3    H228181   0.376   3.203   0.293 -0.0397  0.1071  2.0219
 2256TIP3   OH228182   2.017   0.235   0.058  0.2781  0.2054 -1.0955
 2256TIP3    H128183   2.074   0.281   0.119 -1.2583 -2.9283  2.9143
 2256TIP3    H228184   1.988   0.303  -0.003  3.5277  3.0434  0.3162
 2257TIP3   OH228185   1.129   2.325  16.424 -0.2295  0.1999 -0.2703
 2257TIP3    H128186   1.124   2.238  16.385 -0.8968  0.1072  0.0043
 2257TIP3    H228187   1.058   2.326  16.489  0.7178  0.4234  0.7746
 2258TIP3   OH228188   2.838   6.286   3.798 -0.2496 -0.2141 -0.1035
 2258TIP3    H128189   2.750   6.252   3.809 -0.4075  0.9313  2.5722
 2258TIP3    H228190   2.895   6.219   3.836 -0.0970 -0.1311 -0.1826
 2259TIP3   OH228191   5.828   1.550  12.737 -0.2532  0.0419 -0.2118
 2259TIP3    H128192   5.745   1.591  12.713 -0.7162 -0.8902 -0.2242
 2259TIP3    H228193   5.894   1.619  12.726 -1.4388  1.8045  2.9829
 2260TIP3   OH228194   5.886   1.360   5.089  0.1809  0.3981 -0.0480
 2260TIP3    H128195   5.915   1.413   5.015  0.9238 -0.8942 -0.7005
 2260TIP3    H228196   5.816   1.305   5.053  0.8078 -0.5075  0.0878
 2261TIP3   OH228197   1.284   3.383   4.188 -0.7858 -0.2807  0.0867
 2261TIP3    H128198   1.259   3.423   4.271  1.0977 -1.2033  1.1384
 2261TIP3    H228199   1.339   3.447   4.145 -0.5028 -0.4139  0.2506
 2262TIP3   OH228200   6.440   5.277   5.395  0.2682  0.2742  0.0519
 2262TIP3    H128201   6.484   5.261   5.311 -0.1980 -3.1219  0.3827
 2262TIP3    H228202   6.465   5.366   5.418  1.4044  0.8503 -3.0904
 2263TIP3   OH228203   5.203   1.824  10.752 -0.0277 -0.0813 -0.3184
 2263TIP3    H128204   5.213   1.732  10.727  0.7763 -0.0574 -0.0885
 2263TIP3    H228205   5.200   1.871  10.669 -1.9252 -0.4541 -0.4812
 2264TIP3   OH228206   2.898   4.948   2.361 -0.2528 -0.4301  0.0671
 2264TIP3    H128207   2.874   4.880   2.298 -3.2185  1.7555 -1.3171
 2264TIP3    H228208   2.982   4.981   2.330 -1.0266 -0.3295 -1.9885
 2265TIP3   OH228209   4.467   6.097   5.525 -0.6203 -0.3169 -0.2621
 2265TIP3    H128210   4.431   6.012   5.502  0.1343 -0.8318  0.4549
 2265TIP3    H228211   4.493   6.088   5.617 -0.3528  0.6213 -0.2423
 2266TIP3   OH228212   3.039   5.221   3.491  0.4956 -0.0041  0.5060
 2266TIP3    H128213   3.125   5.256   3.516  0.4791  0.1295  0.3801
 2266TIP3    H228214   3.009   5.175   3.569 -1.0753  3.3203  1.9854
 2267TIP3   OH228215   4.986   0.673   3.630 -0.5210 -0.2353  0.4951
 2267TIP3    H128216   4.929   0.711   3.696  0.8152  2.0800  0.3599
 2267TIP3    H228217   5.073   0.672   3.670 -0.0347 -0.5646 -0.5426
 2268TIP3   OH228218   5.601   3.734   6.411  0.2331 -0.8237  0.2775
 2268TIP3    H128219   5.618   3.828   6.419  2.1380 -1.0449 -0.8827
 2268TIP3    H228220   5.675   3.700   6.361 -1.2058 -2.7026 -0.6615
 2269TIP3   OH228221   5.258   1.611   2.609  0.0190 -0.2620 -0.3657
 2269TIP3    H128222   5.197   1.621   2.682  0.0218 -0.5568 -0.3264
 2269TIP3    H228223   5.202   1.598   2.532 -0.0681  2.1405 -0.7584
 2270TIP3   OH228224   6.236   4.076   0.460  0.4325 -0.0160  0.2208
 2270TIP3    H128225   6.235   4.055   0.367  0.3418 -3.2064  0.8687
 2270TIP3    H228226   6.194   4.000   0.502  0.3218  1.4225  2.8338
 2271TIP3   OH228227   6.554   1.678   6.030 -0.3798  0.4829  0.0016
 2271TIP3    H128228   6.528   1.626   5.953 -1.3557  2.3971 -1.0053
 2271TIP3    H228229   6.477   1.679   6.086 -0.6103  1.3928 -0.3133
 2272TIP3   OH228230   5.746   3.269  15.605 -0.3185 -0.3950  0.9335
 2272TIP3    H128231   5.652   3.276  15.587  0.0966  0.1654 -1.1360
 2272TIP3    H228232   5.764   3.339  15.668 -0.4995  2.4288 -2.0363
 2273TIP3   OH228233   6.173   5.379  13.210 -0.2411 -0.0491  0.0108
 2273TIP3    H128234   6.236   5.416  13.148  0.2545 -2.0035 -0.6690
 2273TIP3    H228235   6.160   5.449  13.274  1.7670  0.7956 -0.4535
 2274TIP3   OH228236   5.243   2.235   4.953 -0.5161 -0.4572  0.4816
 2274TIP3    H128237   5.165   2.200   4.910 -1.1169  1.9904 -0.5030
 2274TIP3    H228238   5.307   2.164   4.948 -2.5656 -2.4075  1.0635
 2275TIP3   OH228239   3.065   5.652  12.913 -0.3961 -0.0541 -0.6417
 2275TIP3    H128240   3.070   5.695  12.999 -0.7074  0.2886 -0.7942
 2275TIP3    H228241   3.022   5.716  12.857  0.4710  0.0153 -1.2406
 2276TIP3   OH228242   1.409   1.869  13.994 -0.6164  0.3323  0.2091
 2276TIP3    H128243   1.352   1.854  14.070 -2.1945  0.3072 -0.9327
 2276TIP3    H228244   1.392   1.793  13.938  1.4612 -0.2689  0.3699
 2277TIP3   OH228245   5.503   5.207  11.912  0.3448  0.4482 -0.0367
 2277TIP3    H128246   5.553   5.254  11.846  0.7142  0.5350  0.3012
 2277TIP3    H228247   5.560   5.134  11.938 -0.3508 -0.3746 -0.7914
 2278TIP3   OH228248   1.238   2.519  15.019  0.7345  0.2361 -0.4533
 2278TIP3    H128249   1.197   2.476  14.944  0.2603  1.8917 -1.1491
 2278TIP3    H228250   1.328   2.485  15.020  0.0663 -1.5879 -0.3420
 2279TIP3   OH228251   3.390   3.274   0.949 -0.4563  0.0921 -0.4197
 2279TIP3    H128252   3.390   3.184   0.918 -0.3351 -0.2013  0.4346
 2279TIP3    H228253   3.298   3.299   0.955 -0.4699  0.4727 -1.9314
 2280TIP3   OH228254   4.551   4.930   2.311 -0.0638  0.2768 -0.1559
 2280TIP3    H128255   4.461   4.937   2.279  0.1770  0.7701 -0.7413
 2280TIP3    H228256   4.575   5.021   2.331  0.7329  0.3031 -1.1958
 2281TIP3   OH228257   0.279   6.572   1.799  0.0617 -0.1983 -0.1207
 2281TIP3    H128258   0.319   6.612   1.722  1.5851  0.1502  0.8281
 2281TIP3    H228259   0.313   6.483   1.800 -0.5258 -0.4266 -0.2457
 2282TIP3   OH228260   4.985   3.664  16.814 -0.4077  0.2588 -0.1572
 2282TIP3    H128261   4.895   3.665  16.781 -1.2206  1.3694  1.9953
 2282TIP3    H228262   4.979   3.620  16.899  0.9095  1.2131  0.4599
 2283TIP3   OH228263   1.403   1.804   3.331 -0.7533 -0.3619 -0.5170
 2283TIP3    H128264   1.315   1.800   3.293 -2.2380  0.6247  2.6648
 2283TIP3    H228265   1.417   1.718   3.370  0.7259 -1.3335 -3.0342
 2284TIP3   OH228266   3.003   6.428   3.627  0.3652  0.2283 -0.0579
 2284TIP3    H128267   2.945   6.374   3.681 -0.6068  0.8010 -0.5039
 2284TIP3    H228268   3.091   6.407   3.657 -0.1226 -0.0161  1.2479
 2285TIP3   OH228269   2.576   2.993   6.296 -0.3021 -0.1027  0.5054
 2285TIP3    H128270   2.484   2.975   6.314 -0.6508  0.9687 -0.1357
 2285TIP3    H228271   2.575   3.038   6.211  0.7232  0.8825  1.0103
 2286TIP3   OH228272   2.338   4.978   4.620  0.1259 -0.1066  0.3208
 2286TIP3    H128273   2.372   4.975   4.530 -0.0899  1.6192  0.1515
 2286TIP3    H228274   2.310   5.069   4.631 -3.5207 -1.2123  0.8049
 2287TIP3   OH228275   2.425   3.420   5.563 -0.1463  0.6931 -0.2345
 2287TIP3    H128276   2.400   3.363   5.636  0.7022  0.0732 -0.4278
 2287TIP3    H228277   2.502   3.468   5.595 -1.6281  2.7195  0.4156
 2288TIP3   OH228278   3.958   1.714  13.957  0.0054  0.9544 -0.0141
 2288TIP3    H128279   3.888   1.660  13.992  0.1526 -1.2969 -3.0578
 2288TIP3    H228280   4.030   1.705  14.021 -1.9752  2.4235  2.5493
 2289TIP3   OH228281   2.119   0.860   4.429 -0.2056 -0.1783  0.3234
 2289TIP3    H128282   2.101   0.784   4.373  0.2107  0.1460 -0.2467
 2289TIP3    H228283   2.034   0.904   4.436 -0.0885  0.2323 -0.7220
 2290TIP3   OH228284   5.291   4.193   1.930  0.0920  0.1397 -0.3622
 2290TIP3    H128285   5.333   4.161   2.009  0.5760  0.9978 -0.2624
 2290TIP3    H228286   5.233   4.122   1.903  3.1959 -1.9868 -1.7191
 2291TIP3   OH228287   0.126   6.267  15.363 -0.2540 -0.0356  0.4909
 2291TIP3    H128288   0.214   6.240  15.339 -0.4725  0.1276 -0.5437
 2291TIP3    H228289   0.070   6.193  15.338 -0.6263  0.5987 -0.6001
 2292TIP3   OH228290   0.013   1.549  11.827 -0.7324  0.3249 -0.3021
 2292TIP3    H128291  -0.035   1.467  11.816  0.3263 -0.4134  0.5156
 2292TIP3    H228292   0.101   1.529  11.796 -0.3163  1.0024  0.4405
 2293TIP3   OH228293   2.633   2.580  15.353  0.2582  0.4361  0.8261
 2293TIP3    H128294   2.702   2.519  15.325 -0.5709 -0.0961 -0.0618
 2293TIP3    H228295   2.658   2.664  15.315  0.8853  0.4397  1.2405
 2294TIP3   OH228296   1.484   0.099  13.677  0.3447  0.0820  0.4063
 2294TIP3    H128297   1.519   0.012  13.656 -0.4969 -0.4136  1.0024
 2294TIP3    H228298   1.457   0.092  13.769  2.7057  1.7868  1.2807
 2295TIP3   OH228299   2.565   4.144  12.568  0.1970 -0.0940  0.2095
 2295TIP3    H128300   2.511   4.184  12.636  0.8313  0.4407  0.4091
 2295TIP3    H228301   2.567   4.209  12.498  0.1695 -0.3210 -0.0026
 2296TIP3   OH228302   6.597   6.162   2.444  0.0034  0.0176  0.0213
 2296TIP3    H128303   6.547   6.083   2.464  0.5421 -0.4495 -0.4573
 2296TIP3    H228304   6.640   6.143   2.361 -0.0986  0.9309 -0.2410
 2297TIP3   OH228305   1.175   0.222   3.497  0.3829 -0.6401  0.0055
 2297TIP3    H128306   1.209   0.135   3.518  0.2812 -0.5363  0.6002
 2297TIP3    H228307   1.098   0.232   3.553  0.1207 -0.3547 -0.4023
 2298TIP3   OH228308   6.002   5.566  16.736  1.0051 -0.3875  0.0357
 2298TIP3    H128309   6.000   5.516  16.817  0.0987 -0.8947 -0.2947
 2298TIP3    H228310   6.042   5.506  16.672 -0.4657 -0.8646 -0.4624
 2299TIP3   OH228311   2.912   6.300   0.358 -0.0852 -0.3562  0.2230
 2299TIP3    H128312   2.872   6.229   0.308  0.6028 -0.2732 -0.4522
 2299TIP3    H228313   2.991   6.261   0.397 -0.9580 -0.6003  1.7838
 2300TIP3   OH228314   4.318   6.719  11.556  0.3529 -0.2417 -0.6273
 2300TIP3    H128315   4.228   6.745  11.575  0.0476 -1.4519 -0.3659
 2300TIP3    H228316   4.360   6.715  11.642  0.0326 -1.8706 -0.5169
 2301TIP3   OH228317   2.109   5.935  15.779  0.3847  0.1110 -0.2193
 2301TIP3    H128318   2.125   5.891  15.696 -1.7898 -1.6174  0.2291
 2301TIP3    H228319   2.113   5.865  15.844  1.8279  1.4092  1.1053
 2302TIP3   OH228320   4.740   6.617   1.521  0.1785 -0.3860 -0.4154
 2302TIP3    H128321   4.723   6.551   1.589  1.0799 -1.8265 -1.5571
 2302TIP3    H228322   4.823   6.589   1.482  2.3226  3.2664  1.2618
 2303TIP3   OH228323   1.895   6.119   0.093 -0.2719 -0.3134 -0.4229
 2303TIP3    H128324   1.970   6.117   0.034  0.0947 -1.5994  0.0679
 2303TIP3    H228325   1.860   6.030   0.092 -2.0483  0.3599 -0.9490
 2304TIP3   OH228326   0.851   4.419   5.640  1.0441 -0.2838 -0.1813
 2304TIP3    H128327   0.938   4.385   5.661  0.0846 -2.0378  1.0520
 2304TIP3    H228328   0.831   4.481   5.710  0.7466 -0.8713  0.2509
 2305TIP3   OH228329   0.118   5.698  14.160  0.7051 -0.0584  0.2120
 2305TIP3    H128330   0.068   5.617  14.146 -0.0290  0.2176  1.1866
 2305TIP3    H228331   0.069   5.764  14.109  1.0445 -0.1289 -0.2100
 2306TIP3   OH228332   4.626   0.865  13.365 -0.1118 -0.3035 -0.1556
 2306TIP3    H128333   4.650   0.773  13.379  2.0504 -0.1011 -2.2955
 2306TIP3    H228334   4.589   0.867  13.277 -2.7939  0.4375  0.9338
 2307TIP3   OH228335   6.488   5.350  13.089 -0.1164  0.1754  0.3047
 2307TIP3    H128336   6.420   5.405  13.050 -0.1283 -0.2502 -0.2698
 2307TIP3    H228337   6.568   5.375  13.044 -0.3833 -1.3848 -1.0610
 2308TIP3   OH228338   0.146   6.650  13.485  0.0581  0.2287 -0.3599
 2308TIP3    H128339   0.067   6.639  13.432  0.4499  0.1881 -0.9521
 2308TIP3    H228340   0.218   6.626  13.425  0.4948 -0.0322  0.2638
 2309TIP3   OH228341   1.253   3.374   0.093 -0.7365  0.4522  0.0036
 2309TIP3    H128342   1.212   3.290   0.114  1.0113 -0.1199  1.2795
 2309TIP3    H228343   1.278   3.366   0.001 -1.1609 -0.1887 -0.0579
 2310TIP3   OH228344   2.667   4.610  15.336  0.0850  0.1367  0.2231
 2310TIP3    H128345   2.611   4.537  15.310 -0.7360  1.2545 -1.1348
 2310TIP3    H228346   2.745   4.601  15.282  0.9741 -1.0523  1.6724
 2311TIP3   OH228347   2.040   2.396   1.810 -0.1745 -0.4956  0.4404
 2311TIP3    H128348   1.984   2.326   1.777 -0.9027 -0.8448  2.3545
 2311TIP3    H228349   2.129   2.366   1.794 -0.4994 -0.9236 -0.6176
 2312TIP3   OH228350   5.654   0.155  11.365 -0.0867  0.0781  0.0544
 2312TIP3    H128351   5.564   0.122  11.360 -0.7250  1.6968  0.5236
 2312TIP3    H228352   5.644   0.248  11.383  1.6977  0.2604  0.1579
 2313TIP3   OH228353   0.290   2.648  13.541 -0.6861  0.5703 -0.4572
 2313TIP3    H128354   0.272   2.587  13.470 -0.0411  0.9344 -0.9391
 2313TIP3    H228355   0.318   2.728  13.497 -1.4181  1.1794  0.1683
 2314TIP3   OH228356   0.435   1.048  10.620  0.4309 -0.3088 -0.0183
 2314TIP3    H128357   0.454   1.051  10.527 -0.1761 -0.8166 -0.1622
 2314TIP3    H228358   0.385   0.967  10.632 -0.5607  0.3730  0.5500
 2315TIP3   OH228359   4.321   2.456   1.696  0.3663 -0.0167 -0.3611
 2315TIP3    H128360   4.342   2.511   1.620  0.1304  0.4342 -0.0983
 2315TIP3    H228361   4.404   2.415   1.719  0.5238  0.1529 -0.6159
 2316TIP3   OH228362   0.649   4.037   4.647  0.1032 -0.3972  0.4011
 2316TIP3    H128363   0.709   3.963   4.636 -0.0861 -0.7673  1.8059
 2316TIP3    H228364   0.698   4.100   4.700  1.4443  1.8772 -3.3295
 2317TIP3   OH228365   6.538   3.896   2.542 -0.1765  0.4675  0.2188
 2317TIP3    H128366   6.576   3.846   2.614  0.4251 -0.4292 -0.7228
 2317TIP3    H228367   6.457   3.850   2.521  0.1793  0.1140 -0.3846
 2318TIP3   OH228368   4.216   2.927   4.134  0.0656  0.5787  0.0271
 2318TIP3    H128369   4.153   2.994   4.108  1.5346  2.7749  1.9108
 2318TIP3    H228370   4.210   2.924   4.230  1.4942 -0.4726  0.1052
 2319TIP3   OH228371   0.823   5.348  14.669  0.0637  0.2940 -0.0650
 2319TIP3    H128372   0.756   5.366  14.603  0.3135 -2.2699 -1.0648
 2319TIP3    H228373   0.879   5.281  14.629  1.2971  0.0320  2.0381
 2320TIP3   OH228374   5.123   0.658   5.030  0.0449 -0.8204  0.6009
 2320TIP3    H128375   5.083   0.644   5.115  1.4392 -0.0683  1.3972
 2320TIP3    H228376   5.132   0.753   5.022  1.5539 -0.9607  0.3987
 2321TIP3   OH228377   5.206   0.615   0.980  0.0842 -0.6993 -0.0162
 2321TIP3    H128378   5.187   0.522   0.987  0.9100 -0.9220 -0.8504
 2321TIP3    H228379   5.119   0.656   0.978 -0.3714 -1.6919 -3.2484
 2322TIP3   OH228380   3.155   0.039   3.691  0.1305 -0.0900  0.1948
 2322TIP3    H128381   3.103  -0.041   3.682 -0.0922  0.2091 -1.3820
 2322TIP3    H228382   3.182   0.060   3.602 -0.4705  2.0205  0.4730
 2323TIP3   OH228383   6.111   0.266  14.369 -0.3865 -0.0598 -0.1399
 2323TIP3    H128384   6.095   0.336  14.306  2.3132  1.1041  0.3850
 2323TIP3    H228385   6.040   0.274  14.433 -0.7914  1.4243 -0.7628
 2324TIP3   OH228386   5.622   3.680   5.494 -0.2622  0.3514  0.2991
 2324TIP3    H128387   5.717   3.688   5.493 -0.2006 -0.3688 -1.0715
 2324TIP3    H228388   5.592   3.748   5.434 -0.6355  0.8191  1.0121
 2325TIP3   OH228389   2.631   2.238  14.834  0.5344 -0.2525  0.2119
 2325TIP3    H128390   2.647   2.182  14.758  1.3586  1.0475 -0.5901
 2325TIP3    H228391   2.643   2.180  14.909 -1.2132 -1.7799 -0.6537
 2326TIP3   OH228392   5.687   1.450   1.393 -0.2694 -0.3198  0.5325
 2326TIP3    H128393   5.644   1.371   1.424 -2.6523 -0.4729 -2.8589
 2326TIP3    H228394   5.733   1.423   1.313  2.7153  0.7799  1.7854
 2327TIP3   OH228395   2.801   4.819  17.167 -0.0108  0.1523  0.4031
 2327TIP3    H128396   2.806   4.820  17.071 -0.4215 -0.9156  0.3678
 2327TIP3    H228397   2.851   4.896  17.194  1.3308 -0.3425 -0.6245
 2328TIP3   OH228398   5.995   4.091   2.241  0.2352  0.4342  0.5895
 2328TIP3    H128399   6.083   4.110   2.274  0.7694 -1.4958  0.3151
 2328TIP3    H228400   6.006   4.082   2.146  0.2030 -2.1589  0.7938
 2329TIP3   OH228401   3.691   0.438  13.172  0.0443 -0.9364 -0.4737
 2329TIP3    H128402   3.636   0.427  13.094  0.1011 -2.2335 -0.3435
 2329TIP3    H228403   3.643   0.502  13.225  1.2257  1.9038 -2.6439
 2330TIP3   OH228404   6.225   1.114  11.383 -0.3341  0.5360  0.1614
 2330TIP3    H128405   6.316   1.095  11.406  0.0369 -0.1182 -1.7600
 2330TIP3    H228406   6.180   1.030  11.388 -0.2234  0.3462 -1.4687
 2331TIP3   OH228407   5.855   4.532   3.650 -0.1064 -0.3687 -0.1637
 2331TIP3    H128408   5.796   4.483   3.707  0.6885 -0.2912  0.7350
 2331TIP3    H228409   5.906   4.587   3.709  1.9398 -1.5516 -0.7680
 2332TIP3   OH228410   5.150   4.628  15.014  0.4663  0.2028 -0.7118
 2332TIP3    H128411   5.148   4.559  14.949 -0.3860 -1.4646  1.0445
 2332TIP3    H228412   5.090   4.599  15.083  1.7931  1.6259  1.1084
 2333TIP3   OH228413   0.895   4.646  13.660  0.4978  0.4729 -0.4794
 2333TIP3    H128414   0.944   4.685  13.733  0.3692 -0.8720  0.3566
 2333TIP3    H228415   0.906   4.707  13.588  0.6223  1.8379  0.6816
 2334TIP3   OH228416   0.387   4.683   5.743 -0.3325  0.1817 -0.0887
 2334TIP3    H128417   0.386   4.591   5.769  1.7002 -0.2347 -1.4060
 2334TIP3    H228418   0.299   4.714   5.765 -1.0024 -2.0185  0.5222
 2335TIP3   OH228419   5.812   5.771   4.979 -0.3621  0.0447  0.4933
 2335TIP3    H128420   5.880   5.838   4.984  0.3098 -0.2635 -3.1730
 2335TIP3    H228421   5.853   5.692   5.013  1.1020 -0.1010 -1.5540
 2336TIP3   OH228422   3.012   1.011   0.575  0.0705 -0.0612 -0.2431
 2336TIP3    H128423   3.045   1.039   0.661 -1.8216  0.0074  0.4948
 2336TIP3    H228424   2.943   1.074   0.555 -1.9814 -2.1976 -0.1121
 2337TIP3   OH228425   2.414   0.087  15.320  0.6148 -0.1696  0.0574
 2337TIP3    H128426   2.389   0.179  15.312 -0.9473 -0.6341 -0.6747
 2337TIP3    H228427   2.432   0.060  15.230 -1.9984 -1.3765 -0.1718
 2338TIP3   OH228428   1.038   0.669  13.298  0.0375 -0.2337 -0.0471
 2338TIP3    H128429   0.993   0.754  13.297  0.6247  0.0964  0.7636
 2338TIP3    H228430   1.109   0.679  13.235 -0.3904 -0.4001 -0.5561
 2339TIP3   OH228431   5.636   3.413   6.030 -0.0245 -0.0601 -0.0423
 2339TIP3    H128432   5.650   3.391   6.122 -0.8082 -0.5830 -0.0420
 2339TIP3    H228433   5.724   3.420   5.993  0.2695 -1.3027  0.4070
 2340TIP3   OH228434   3.136   5.324  15.513 -0.0594  0.1315 -0.2223
 2340TIP3    H128435   3.080   5.288  15.444 -0.0606  0.2353 -0.2757
 2340TIP3    H228436   3.095   5.296  15.594  1.1123 -1.7806 -0.2699
 2341TIP3   OH228437   6.073   1.086  13.645 -0.2004 -0.7925 -0.1899
 2341TIP3    H128438   6.067   0.993  13.623 -0.3500 -0.9041  0.3274
 2341TIP3    H228439   5.991   1.123  13.612  0.0619 -0.7592 -0.8096
 2342TIP3   OH228440   1.731   1.734  12.361  0.1264 -0.0588 -0.4613
 2342TIP3    H128441   1.740   1.793  12.286 -0.4121  1.5266  0.6815
 2342TIP3    H228442   1.752   1.789  12.437  1.0129 -1.7363  0.5135
 2343TIP3   OH228443   0.444   3.511  13.131 -0.4560 -0.0146 -0.2396
 2343TIP3    H128444   0.505   3.477  13.065 -1.1982 -0.0493 -0.9151
 2343TIP3    H228445   0.359   3.475  13.106 -0.6355 -0.5826  1.1413
 2344TIP3   OH228446   0.672   3.665  12.505  0.1399 -0.0099 -0.1052
 2344TIP3    H128447   0.742   3.723  12.475 -0.3872  0.0633 -1.2022
 2344TIP3    H228448   0.641   3.620  12.427  1.4013 -2.7689  0.9196
 2345TIP3   OH228449   4.867   2.238  12.871 -0.1032  0.3134  0.3082
 2345TIP3    H128450   4.777   2.221  12.840 -0.3523 -0.4428  1.4303
 2345TIP3    H228451   4.880   2.331  12.854 -0.7118  0.2066 -0.8534
 2346TIP3   OH228452   2.860   3.577   5.234  0.6028  0.3581  0.3029
 2346TIP3    H128453   2.843   3.564   5.328 -1.9933 -1.9942 -0.4308
 2346TIP3    H228454   2.826   3.665   5.216  0.7614  0.6804  1.4932
 2347TIP3   OH228455   1.436   3.270  13.143 -0.2671  0.1579  0.1535
 2347TIP3    H128456   1.374   3.343  13.144  0.2190  0.5718 -0.0275
 2347TIP3    H228457   1.517   3.306  13.178 -0.9352 -1.1424  3.2021
 2348TIP3   OH228458   6.423   0.132  12.933  0.9191 -0.6862  0.4709
 2348TIP3    H128459   6.388   0.169  12.852  1.1016 -1.0719  0.2105
 2348TIP3    H228460   6.434   0.207  12.991 -1.3075 -0.6816  0.9314
 2349TIP3   OH228461   6.568   2.535   5.878  0.0063 -0.6417 -0.5327
 2349TIP3    H128462   6.495   2.577   5.833 -0.0807  1.8627  1.7635
 2349TIP3    H228463   6.632   2.517   5.809 -0.5875  2.0189 -1.8407
 2350TIP3   OH228464   6.230   0.516  14.911 -0.4881  0.0373  0.0732
 2350TIP3    H128465   6.182   0.462  14.975  0.7354 -0.3386  0.6773
 2350TIP3    H228466   6.320   0.517  14.943 -0.0704  0.6881 -1.1057
 2351TIP3   OH228467   5.920   4.833   1.538 -0.4733  0.2802 -0.0930
 2351TIP3    H128468   5.877   4.748   1.534  0.0595  0.0732 -1.6166
 2351TIP3    H228469   6.013   4.813   1.542 -0.4316  0.7602  1.5407
 2352TIP3   OH228470   0.219   0.797   5.714  0.0372 -0.0619 -0.4083
 2352TIP3    H128471   0.154   0.847   5.664  0.0804 -0.2706 -0.6733
 2352TIP3    H228472   0.299   0.804   5.663 -0.0701 -0.7790 -0.6747
 2353TIP3   OH228473   0.806   2.173  13.294 -0.0059  0.1513 -0.2432
 2353TIP3    H128474   0.751   2.231  13.347  0.4398  0.2936  0.0655
 2353TIP3    H228475   0.760   2.166  13.211 -0.2715  0.6261 -0.1380
 2354TIP3   OH228476   1.888   2.237  13.370  0.3851  0.3309 -0.3414
 2354TIP3    H128477   1.884   2.142  13.381 -1.1280  0.5231  0.8909
 2354TIP3    H228478   1.982   2.257  13.366  0.7369 -1.0834  0.6164
 2355TIP3   OH228479   1.758   0.580   2.967  0.2606  0.5019 -0.5135
 2355TIP3    H128480   1.746   0.491   3.000 -1.6501  0.5206 -1.0874
 2355TIP3    H228481   1.734   0.636   3.041  0.9921  0.5624 -0.3110
 2356TIP3   OH228482   1.197   1.736   1.096 -0.4420  0.0207 -0.1291
 2356TIP3    H128483   1.139   1.789   1.040  0.9532  1.3207 -0.3638
 2356TIP3    H228484   1.284   1.750   1.060  0.1938 -0.8812  1.0396
 2357TIP3   OH228485   5.771   0.690   0.503 -0.1345 -0.1899 -0.1657
 2357TIP3    H128486   5.757   0.757   0.436 -0.9551 -1.1472 -0.9707
 2357TIP3    H228487   5.816   0.619   0.457  1.9784  0.3740  1.0155
 2358TIP3   OH228488   1.068   0.444  15.562  0.0085  0.2814  0.4547
 2358TIP3    H128489   1.061   0.384  15.636  0.6809 -0.7426 -0.2870
 2358TIP3    H228490   1.121   0.517  15.595 -0.5112  0.2931  1.2619
 2359TIP3   OH228491   3.963   4.935   3.316  0.0005  0.0844 -0.5158
 2359TIP3    H128492   3.959   5.030   3.329  0.8849  0.1560 -0.7689
 2359TIP3    H228493   3.944   4.923   3.223 -0.5908 -0.0260 -0.3843
 2360TIP3   OH228494   4.254   0.590   1.148  0.4468  0.6367  0.7221
 2360TIP3    H128495   4.294   0.661   1.098 -0.5791  2.2587  2.1161
 2360TIP3    H228496   4.326   0.532   1.170  1.3639  1.4056 -0.1813
 2361TIP3   OH228497   0.023   2.407  16.530  0.1421 -0.4404 -0.0646
 2361TIP3    H128498   0.004   2.485  16.477  0.8292  0.0615  0.4180
 2361TIP3    H228499   0.055   2.442  16.613  0.8057 -1.2460  0.0233
 2362TIP3   OH228500   1.245   2.513   2.705 -0.0770  0.3925  0.1970
 2362TIP3    H128501   1.234   2.456   2.781  1.0036  0.0468  0.1059
 2362TIP3    H228502   1.318   2.474   2.656  0.3182  1.5361 -0.1460
 2363TIP3   OH228503   2.397   3.078  14.055 -0.3596 -0.1133  0.0531
 2363TIP3    H128504   2.400   3.173  14.045 -1.8310 -0.2124 -1.4277
 2363TIP3    H228505   2.361   3.046  13.972  1.3574 -2.0622  0.0028
 2364TIP3   OH228506   2.885   3.054   3.931 -0.1776  0.0163  0.2557
 2364TIP3    H128507   2.798   3.090   3.947 -0.0818  0.3898 -0.0696
 2364TIP3    H228508   2.907   3.081   3.842 -0.8354 -2.3425 -0.6681
 2365TIP3   OH228509   2.744   4.347  16.197  0.0660 -0.6010  0.1401
 2365TIP3    H128510   2.811   4.414  16.184  0.2193 -0.6505  0.6499
 2365TIP3    H228511   2.692   4.380  16.270 -2.7587  1.2616 -2.5682
 2366TIP3   OH228512   1.883   6.016   3.928 -0.1747  0.0906  0.5730
 2366TIP3    H128513   1.844   6.078   3.988 -2.8077  0.6916 -1.6631
 2366TIP3    H228514   1.877   5.931   3.973 -1.3871  0.6396  1.4561
 2367TIP3   OH228515   0.403   4.463  10.394 -0.0044  0.7245  0.1193
 2367TIP3    H128516   0.477   4.423  10.440 -0.0679  0.1021 -0.3178
 2367TIP3    H228517   0.443   4.522  10.331  0.1404  0.0496 -0.4328
 2368TIP3   OH228518   0.251   6.187   5.740  0.4052 -0.0432  0.2250
 2368TIP3    H128519   0.325   6.191   5.801  0.2554  1.6968  0.3251
 2368TIP3    H228520   0.174   6.176   5.796  0.3536  0.6870  0.3074
 2369TIP3   OH228521   6.333   1.815  16.174 -0.4414 -0.2354  0.0977
 2369TIP3    H128522   6.392   1.888  16.154 -1.7619  0.5249 -1.0587
 2369TIP3    H228523   6.382   1.762  16.237  0.9625  1.0703  0.1376
 2370TIP3   OH228524   2.362   5.091   5.336  0.2498 -0.2505  0.1031
 2370TIP3    H128525   2.276   5.063   5.366  0.5663 -1.4258 -0.0628
 2370TIP3    H228526   2.346   5.174   5.291 -0.8365 -0.5860 -0.1396
 2371TIP3   OH228527   3.636   5.595   4.355 -0.1315 -0.3172 -0.1198
 2371TIP3    H128528   3.694   5.541   4.408  1.5950  0.1439 -1.4854
 2371TIP3    H228529   3.563   5.617   4.413  0.8081 -1.3200  1.4642
 2372TIP3   OH228530   0.822   6.192   2.777  0.5719 -0.2037  0.5432
 2372TIP3    H128531   0.768   6.214   2.702  0.1530 -0.9664  0.6230
 2372TIP3    H228532   0.809   6.265   2.838  0.1133 -0.0897  0.3064
 2373TIP3   OH228533   4.785   2.736   3.879 -0.8275  0.1654  0.5926
 2373TIP3    H128534   4.812   2.689   3.801 -0.6279 -0.7607  1.2142
 2373TIP3    H228535   4.700   2.775   3.855 -0.1116  1.0678 -0.5401
 2374TIP3   OH228536   6.607   6.178  16.822 -0.6630 -0.1347 -0.0531
 2374TIP3    H128537   6.532   6.215  16.869 -1.7855 -1.6533 -0.6101
 2374TIP3    H228538   6.629   6.099  16.871 -0.8028 -0.8456 -1.1260
 2375TIP3   OH228539   5.940   3.225  11.804 -0.5651 -0.4047 -0.0482
 2375TIP3    H128540   5.855   3.271  11.804  0.7439  2.1757  1.9487
 2375TIP3    H228541   5.987   3.263  11.729 -0.6013 -0.7511 -0.2489
 2376TIP3   OH228542   3.387   3.802  16.625 -0.4230 -0.6119  0.5293
 2376TIP3    H128543   3.303   3.778  16.663 -1.0896  0.3119 -0.3204
 2376TIP3    H228544   3.452   3.769  16.686 -1.3588 -2.8397  0.3522
 2377TIP3   OH228545   1.383   2.975  13.139 -0.0047 -0.0176  0.0041
 2377TIP3    H128546   1.386   3.070  13.150  2.1942  0.0474 -0.8407
 2377TIP3    H228547   1.426   2.941  13.218 -0.0571 -0.2705 -0.0772
 2378TIP3   OH228548   1.751   6.665   4.109 -0.1463 -0.0390  0.4566
 2378TIP3    H128549   1.739   6.583   4.062  1.6137 -0.5134  0.8002
 2378TIP3    H228550   1.761   6.731   4.041  1.0575 -0.5205  0.1589
 2379TIP3   OH228551   0.061   2.841  15.487 -0.4298 -0.6904 -0.1299
 2379TIP3    H128552   0.140   2.823  15.539 -1.5251 -2.3441  1.0110
 2379TIP3    H228553   0.067   2.780  15.413 -0.5787 -0.7205 -0.1162
 2380TIP3   OH228554   3.697   0.372   0.351 -0.1543 -0.3536 -0.1610
 2380TIP3    H128555   3.637   0.431   0.396  1.2399  1.9806 -1.2441
 2380TIP3    H228556   3.720   0.306   0.416 -1.4983  0.4859  1.1932
 2381TIP3   OH228557   4.920   3.500  15.007 -0.0886  0.8937 -0.6294
 2381TIP3    H128558   5.015   3.503  15.021 -0.1663  0.4518  0.0343
 2381TIP3    H228559   4.886   3.572  15.059 -0.3004 -0.2352  0.8445
 2382TIP3   OH228560   4.786   6.003  16.565 -0.9576 -0.3769 -0.6145
 2382TIP3    H128561   4.792   6.091  16.602  0.9108 -0.2122 -1.2480
 2382TIP3    H228562   4.763   6.017  16.473  0.5785 -0.4919 -1.0158
 2383TIP3   OH228563   1.503   6.084  16.093  0.1580  0.3904 -0.2036
 2383TIP3    H128564   1.552   6.103  16.013  1.2686 -1.6883 -0.0674
 2383TIP3    H228565   1.565   6.035  16.148 -1.1294  0.3200  1.2221
 2384TIP3   OH228566   6.650   5.964  12.051  0.6130  0.2384 -0.3283
 2384TIP3    H128567   6.693   6.024  12.112  3.1129 -1.3269 -0.4427
 2384TIP3    H228568   6.716   5.895  12.035 -1.8994 -2.1777 -0.6890
 2385TIP3   OH228569   3.021   3.179   2.257  0.4444  0.6641 -0.4586
 2385TIP3    H128570   2.979   3.264   2.242  0.5596  1.4547  3.2834
 2385TIP3    H228571   3.114   3.195   2.236  0.5874  1.6780  0.8977
 2386TIP3   OH228572   0.997   5.771   4.569 -0.4389 -0.6741 -0.1516
 2386TIP3    H128573   1.045   5.813   4.640 -2.0965 -0.2720  0.7466
 2386TIP3    H228574   0.933   5.715   4.613  0.5197 -2.7632 -1.3252
 2387TIP3   OH228575   0.674   0.296  15.399 -0.1956 -0.1892  0.4939
 2387TIP3    H128576   0.647   0.350  15.474 -0.8759 -3.8609  3.0687
 2387TIP3    H228577   0.746   0.243  15.433  1.9516  0.6842 -2.6215
 2388TIP3   OH228578   2.253   1.012  10.519 -0.0395 -0.2845  0.2207
 2388TIP3    H128579   2.199   1.050  10.588 -1.6172 -0.3175 -0.9531
 2388TIP3    H228580   2.260   0.920  10.541 -2.1782 -0.6958 -0.6463
 2389TIP3   OH228581   5.212   3.650  13.412 -0.1151  0.4103 -0.3008
 2389TIP3    H128582   5.135   3.645  13.356  1.1543  0.7106 -2.0984
 2389TIP3    H228583   5.266   3.575  13.386  0.4178  0.4662  0.6172
 2390TIP3   OH228584   5.553   5.647  12.992  0.3230 -0.0530 -0.2998
 2390TIP3    H128585   5.520   5.732  12.961  0.6216  0.4611  0.7511
 2390TIP3    H228586   5.554   5.592  12.914  0.5451  1.0474 -1.0894
 2391TIP3   OH228587   0.787   6.639   1.270 -0.2627 -0.6978 -0.0019
 2391TIP3    H128588   0.832   6.554   1.276  0.4122 -0.5206 -2.1365
 2391TIP3    H228589   0.842   6.691   1.212 -1.3446  0.7890  0.2798
 2392TIP3   OH228590   0.462   1.650   2.190 -0.1914 -0.4756 -0.3264
 2392TIP3    H128591   0.417   1.630   2.272  0.0586 -1.8759 -0.5171
 2392TIP3    H228592   0.403   1.711   2.145  0.1970  1.2247  1.3791
 2393TIP3   OH228593   4.112   2.002   3.321  0.4668 -0.1497  0.1257
 2393TIP3    H128594   4.173   1.939   3.284  0.6843  0.8903 -1.3341
 2393TIP3    H228595   4.075   2.048   3.245  0.2955  1.4411  1.1430
 2394TIP3   OH228596   5.826   0.595  13.736  0.0425  0.3591 -0.5318
 2394TIP3    H128597   5.801   0.511  13.696 -1.1523  0.4396  0.0104
 2394TIP3    H228598   5.920   0.587  13.753 -0.1099 -0.9843 -0.2348
 2395TIP3   OH228599   5.109   0.233   1.369  0.0763 -0.2558  0.0956
 2395TIP3    H128600   5.085   0.243   1.461 -0.5492  1.9785 -0.2798
 2395TIP3    H228601   5.201   0.260   1.365 -0.4277  1.4956 -0.2185
 2396TIP3   OH228602   4.404   5.623  11.441 -0.0169  0.2238 -0.0499
 2396TIP3    H128603   4.480   5.594  11.490  1.7275  1.2234 -2.0986
 2396TIP3    H228604   4.380   5.707  11.481  1.1800  0.8670 -0.6793
 2397TIP3   OH228605   3.957   4.836   6.368  0.1536  0.0587  0.5409
 2397TIP3    H128606   3.949   4.931   6.384  2.1092  0.2234  0.6060
 2397TIP3    H228607   3.879   4.799   6.409 -2.4181  1.9454 -2.4183
 2398TIP3   OH228608   5.250   6.100  11.270 -0.0202 -0.7305  0.6702
 2398TIP3    H128609   5.246   6.133  11.181  4.7535 -1.0616  0.1886
 2398TIP3    H228610   5.263   6.178  11.324  0.0980 -0.7813  0.7176
 2399TIP3   OH228611   0.223   1.361   0.598  0.4889 -0.1116  0.1179
 2399TIP3    H128612   0.176   1.304   0.659 -2.0492  2.6284  0.8231
 2399TIP3    H228613   0.156   1.396   0.540  2.2647  0.7069 -1.5121
 2400TIP3   OH228614   5.007   6.596  11.231 -0.3823 -0.5023 -0.0982
 2400TIP3    H128615   4.945   6.529  11.261 -0.6640 -0.3839 -0.4093
 2400TIP3    H228616   5.064   6.611  11.306  0.7271 -2.2727 -0.5507
 2401TIP3   OH228617   5.633   3.378   0.051  0.0076 -0.0266 -0.2635
 2401TIP3    H128618   5.548   3.413   0.079 -1.7631 -5.6163  2.1475
 2401TIP3    H228619   5.681   3.364   0.132  2.3468  0.8357 -1.4576
 2402TIP3   OH228620   2.554   1.984  17.147  0.2003 -0.3528  0.5351
 2402TIP3    H128621   2.587   1.946  17.229 -0.1792 -1.0725  0.3561
 2402TIP3    H228622   2.473   2.028  17.172  0.1172 -0.5200  0.5637
 2403TIP3   OH228623   4.775   3.117   3.082  0.4228  0.1072 -0.3377
 2403TIP3    H128624   4.822   3.192   3.046  0.7572  0.5406  0.9856
 2403TIP3    H228625   4.704   3.155   3.133  3.1153 -0.2697  3.9558
 2404TIP3   OH228626   4.731   6.438   4.633  0.0552  0.1028  0.1773
 2404TIP3    H128627   4.672   6.363   4.628  0.4066 -0.0423 -2.0536
 2404TIP3    H228628   4.675   6.511   4.660 -1.8284  0.6423 -4.7433
 2405TIP3   OH228629   2.968   3.234   5.251 -0.3941 -0.3982  0.0392
 2405TIP3    H128630   3.038   3.298   5.237 -1.5158  0.6725 -0.7319
 2405TIP3    H228631   2.954   3.236   5.346  1.3159 -1.3874  0.3414
 2406TIP3   OH228632   2.025   2.048  11.071 -0.4582  0.0729  0.0623
 2406TIP3    H128633   2.109   2.027  11.029  0.0290  0.1696  0.9876
 2406TIP3    H228634   2.040   2.033  11.164 -2.0445 -1.7946  0.0450
 2407TIP3   OH228635   2.858   2.786  11.189  0.7463  0.3468  0.0607
 2407TIP3    H128636   2.848   2.693  11.206  1.3497  0.5439  1.6511
 2407TIP3    H228637   2.820   2.800  11.102 -1.4893 -0.9676  0.7819
 2408TIP3   OH228638   0.261   2.996  15.305 -0.6249  0.1827 -0.5121
 2408TIP3    H128639   0.275   3.080  15.349  2.6780 -1.9894  2.8844
 2408TIP3    H228640   0.185   2.958  15.349 -0.4791  0.2284 -0.2205
 2409TIP3   OH228641   3.868   5.610   1.724 -0.0639  0.6377 -0.5107
 2409TIP3    H128642   3.799   5.544   1.728  0.5036  0.1092  0.7273
 2409TIP3    H228643   3.843   5.666   1.650 -1.7468  0.4000 -0.1392
 2410TIP3   OH228644   6.332   6.681  14.797  0.3874  0.6284 -0.1361
 2410TIP3    H128645   6.330   6.603  14.853 -2.5495 -0.6562 -1.9440
 2410TIP3    H228646   6.374   6.651  14.717  0.9355  1.4167 -0.1445
 2411TIP3   OH228647   4.805   3.978   0.676  0.5231  0.5607  0.1489
 2411TIP3    H128648   4.842   4.004   0.592 -2.8706  0.7700 -1.3593
 2411TIP3    H228649   4.804   4.058   0.728  0.8460  0.8474 -0.2892
 2412TIP3   OH228650   1.012   3.294  15.684 -0.1566 -0.8353  0.3606
 2412TIP3    H128651   1.000   3.203  15.710 -0.6468 -0.9806 -0.3483
 2412TIP3    H228652   1.094   3.321  15.727 -0.4066 -1.3708  1.1866
 2413TIP3   OH228653   5.997   5.875   1.531  0.2046 -0.4315  0.8028
 2413TIP3    H128654   6.056   5.872   1.607 -0.9332 -3.1623  1.6180
 2413TIP3    H228655   6.026   5.952   1.482  1.9745  0.4878  3.1809
 2414TIP3   OH228656   4.372   2.727  12.577 -0.2095  0.1155  0.2866
 2414TIP3    H128657   4.416   2.726  12.662 -1.4427 -0.3384  0.9332
 2414TIP3    H228658   4.382   2.817  12.545  0.9343  0.0807  0.5501
 2415TIP3   OH228659   3.205   4.231  11.877 -0.3501 -0.1612  0.0750
 2415TIP3    H128660   3.247   4.161  11.826 -2.1648 -1.4769  0.3496
 2415TIP3    H228661   3.181   4.190  11.960 -3.3152  0.1693 -0.5543
 2416TIP3   OH228662   0.026   2.399   5.280 -0.2630 -0.7359  0.3611
 2416TIP3    H128663   0.046   2.386   5.372 -1.2071 -0.9181  0.5501
 2416TIP3    H228664   0.105   2.437   5.242  0.1856 -0.8373  1.2074
 2417TIP3   OH228665   3.077   2.198  14.904  0.5408  0.3099  0.8865
 2417TIP3    H128666   3.057   2.149  14.984 -0.3714  0.2886  0.6532
 2417TIP3    H228667   3.114   2.281  14.934 -0.2748  0.5110  1.3440
 2418TIP3   OH228668   4.915   5.885  17.098  0.1698  1.1236 -0.0015
 2418TIP3    H128669   4.978   5.850  17.035  0.0370  0.8933 -0.0028
 2418TIP3    H228670   4.949   5.859  17.184 -0.4595  0.1180 -0.0465
 2419TIP3   OH228671   0.808   3.174   4.075  0.0471  0.0371 -0.7899
 2419TIP3    H128672   0.893   3.139   4.049  0.8977  0.2004  1.6290
 2419TIP3    H228673   0.817   3.269   4.068  0.0844  0.0580 -0.4567
 2420TIP3   OH228674   0.540   3.905  12.989 -0.1924 -0.0685 -0.1499
 2420TIP3    H128675   0.452   3.928  13.017  0.4081 -0.2091  1.9391
 2420TIP3    H228676   0.573   3.983  12.945 -1.1767  0.1592 -0.4771
 2421TIP3   OH228677   5.007   1.380   3.709 -0.8245  0.5384  0.3116
 2421TIP3    H128678   4.946   1.341   3.645 -0.5291 -0.1644  0.4584
 2421TIP3    H228679   4.969   1.466   3.728 -1.2004  0.5390 -0.4099
 2422TIP3   OH228680   6.737   1.624  13.210 -0.4706  0.1072  0.0643
 2422TIP3    H128681   6.724   1.707  13.164  0.6387  1.7527  2.6013
 2422TIP3    H228682   6.656   1.609  13.257 -1.0268 -0.7858 -1.1345
 2423TIP3   OH228683   1.691   5.660  14.170 -0.0417  0.3570 -0.2938
 2423TIP3    H128684   1.648   5.704  14.243  1.3855  1.3129 -0.0106
 2423TIP3    H228685   1.619   5.636  14.111 -1.2100 -0.4574  1.4101
 2424TIP3   OH228686   2.067   6.195   1.442 -0.3665 -0.1673  0.2017
 2424TIP3    H128687   2.132   6.251   1.400 -0.3771 -0.8777 -0.7832
 2424TIP3    H228688   2.116   6.147   1.508 -0.1999  0.4195  0.5074
 2425TIP3   OH228689   1.622   1.335  16.005  0.4205  0.2269 -0.4666
 2425TIP3    H128690   1.566   1.274  16.052  2.7530 -1.7036 -0.0478
 2425TIP3    H228691   1.655   1.394  16.072  3.3443 -2.2129  0.3707
 2426TIP3   OH228692   0.457   4.737  11.410 -0.2274 -0.0268 -0.3699
 2426TIP3    H128693   0.489   4.819  11.447 -0.5378  0.8426 -1.9851
 2426TIP3    H228694   0.525   4.673  11.431  0.6559  0.9370 -0.2540
 2427TIP3   OH228695   2.480   3.552  16.347  0.5716 -0.1916 -0.8084
 2427TIP3    H128696   2.422   3.584  16.417  0.2039  0.6827 -1.5020
 2427TIP3    H228697   2.519   3.473  16.383  1.1497  0.7905  0.7697
 2428TIP3   OH228698   1.149   0.064   3.119  0.0699 -1.1124  0.6825
 2428TIP3    H128699   1.066   0.017   3.108  0.3032 -1.2416 -0.5877
 2428TIP3    H228700   1.125   0.146   3.163 -0.9709 -0.4314 -1.1022
 2429TIP3   OH228701   2.277   4.987   1.567  0.1883 -0.3591 -0.5915
 2429TIP3    H128702   2.307   4.897   1.578 -0.2716 -0.4319  0.1121
 2429TIP3    H228703   2.268   4.999   1.472  1.8793 -0.5129 -0.7854
 2430TIP3   OH228704   4.608   3.703   2.363  0.3151  0.4924  0.0048
 2430TIP3    H128705   4.593   3.713   2.457  0.4932  0.3474  0.0500
 2430TIP3    H228706   4.524   3.672   2.328  0.8628 -1.5794  0.4559
 2431TIP3   OH228707   2.522   0.832  17.055 -0.1816 -0.1547 -0.0322
 2431TIP3    H128708   2.577   0.801  16.983  2.7627  0.8931  1.6512
 2431TIP3    H228709   2.501   0.753  17.105  1.4077 -0.3466  0.3500
 2432TIP3   OH228710   3.985   5.245   3.089 -0.0212  0.6430  0.5964
 2432TIP3    H128711   3.908   5.301   3.082 -0.7103 -0.3254  0.3272
 2432TIP3    H228712   3.995   5.230   3.183  1.1398  2.5291  0.7987
 2433TIP3   OH228713   2.493   0.337   3.994 -0.4279 -0.0020 -0.1858
 2433TIP3    H128714   2.447   0.408   4.038  1.1351  1.4581 -0.8589
 2433TIP3    H228715   2.522   0.280   4.065 -1.3369  0.2437  0.3901
 2434TIP3   OH228716   2.377   5.050   4.332  0.6176  0.1721  0.2209
 2434TIP3    H128717   2.341   5.137   4.312 -2.5663 -0.5261  2.4080
 2434TIP3    H228718   2.333   4.991   4.270 -0.3311 -0.3802  1.3899
 2435TIP3   OH228719   2.264   4.900  11.423 -0.3236  0.4876 -0.2502
 2435TIP3    H128720   2.335   4.962  11.406  0.1691 -0.2589 -0.9098
 2435TIP3    H228721   2.306   4.814  11.423 -0.6040  0.2665  2.8750
 2436TIP3   OH228722   5.318   5.193   4.753  0.1752 -0.1382  0.4499
 2436TIP3    H128723   5.264   5.247   4.811 -0.2341 -2.1292  1.9818
 2436TIP3    H228724   5.257   5.161   4.686 -0.3911 -1.6071  1.6303
 2437TIP3   OH228725   2.030   2.838  12.825  0.1373 -0.2716  0.4547
 2437TIP3    H128726   2.031   2.746  12.851  1.0640 -0.2947  0.3763
 2437TIP3    H228727   2.122   2.864  12.827 -0.1112  0.6318  0.3939
 2438TIP3   OH228728   0.451   6.353  14.442 -0.1838 -0.1756  0.3394
 2438TIP3    H128729   0.434   6.343  14.349  0.1647 -1.1993  0.3839
 2438TIP3    H228730   0.384   6.414  14.472 -1.3805 -1.1900 -0.2366
 2439TIP3   OH228731   5.340   0.816   3.434 -0.4689  0.1768  0.0087
 2439TIP3    H128732   5.264   0.870   3.457 -0.5234  0.6265 -1.2031
 2439TIP3    H228733   5.416   0.868   3.463 -0.5736  0.3069  0.0502
 2440TIP3   OH228734   3.855   2.696   2.174  0.0303  0.1990 -0.3407
 2440TIP3    H128735   3.835   2.681   2.082  0.3055  0.5021 -0.4502
 2440TIP3    H228736   3.926   2.635   2.195 -0.1441  0.0140 -0.2842
 2441TIP3   OH228737   1.206   4.063   5.208 -0.0892  0.4305 -0.1608
 2441TIP3    H128738   1.283   4.064   5.151 -0.6104 -0.6846 -0.8984
 2441TIP3    H228739   1.242   4.052   5.296  0.7378  2.4464 -0.2157
 2442TIP3   OH228740   2.533   0.855  11.637 -0.0809 -0.0585  0.2607
 2442TIP3    H128741   2.555   0.922  11.572  1.4158  0.5562  1.3833
 2442TIP3    H228742   2.538   0.900  11.721  1.9565 -1.7797  1.1256
 2443TIP3   OH228743   0.109   4.884  16.812  0.5666  0.1361  0.3124
 2443TIP3    H128744   0.064   4.807  16.777  1.8781 -0.5664  0.1560
 2443TIP3    H228745   0.050   4.917  16.879 -1.7522  1.1741 -2.1285
 2444TIP3   OH228746   3.780   4.024   2.461 -0.5683 -0.0835  0.5974
 2444TIP3    H128747   3.831   4.099   2.491  0.0086  0.6116 -1.9584
 2444TIP3    H228748   3.689   4.050   2.473 -0.3672  0.8736  0.1199
 2445TIP3   OH228749   4.449   3.643   4.677  0.1774  0.7236 -0.1208
 2445TIP3    H128750   4.474   3.702   4.748  1.9595  1.6505 -1.4838
 2445TIP3    H228751   4.496   3.562   4.696  0.2417  0.7979  0.0372
 2446TIP3   OH228752   0.194   4.479  13.617  0.0710 -0.3149  0.1463
 2446TIP3    H128753   0.251   4.514  13.686  0.1692  0.8522 -0.5150
 2446TIP3    H228754   0.109   4.467  13.660  0.1276  0.4275  0.4701
 2447TIP3   OH228755   5.741   6.393  13.635  0.8844  0.2002  0.4299
 2447TIP3    H128756   5.658   6.369  13.593  1.3548 -0.8134  0.0487
 2447TIP3    H228757   5.719   6.468  13.690  0.2077  1.4025 -1.4447
 2448TIP3   OH228758   3.915   3.140  11.858 -0.1038 -0.3964  0.1110
 2448TIP3    H128759   3.924   3.210  11.923  0.3660  0.0927 -0.4661
 2448TIP3    H228760   3.999   3.140  11.812 -0.0403 -1.4626  0.2205
 2449TIP3   OH228761   1.515   2.429   4.544  0.1099 -0.4085  0.3064
 2449TIP3    H128762   1.592   2.373   4.549 -0.7189 -1.8174 -2.1589
 2449TIP3    H228763   1.463   2.404   4.621  1.1723 -0.8299  0.8975
 2450TIP3   OH228764   6.547   1.396   4.989 -0.2001  0.5333  0.2681
 2450TIP3    H128765   6.625   1.441   4.958 -0.3367 -0.6720 -1.9777
 2450TIP3    H228766   6.577   1.308   5.011 -0.6270  0.5459  0.9137
 2451TIP3   OH228767   4.838   5.020  12.118  0.0031  0.2867 -0.4749
 2451TIP3    H128768   4.744   5.011  12.131 -0.3329  1.6269 -1.8194
 2451TIP3    H228769   4.862   4.944  12.064  0.2463 -1.6144  2.1618
 2452TIP3   OH228770   1.233   1.498   4.286 -0.1710 -0.4175 -0.1624
 2452TIP3    H128771   1.325   1.526   4.290 -0.2125 -0.0506 -1.6509
 2452TIP3    H228772   1.187   1.571   4.244 -0.9113 -1.1502 -0.6351
 2453TIP3   OH228773   2.196   3.422   5.431  0.4387  0.4043 -0.0405
 2453TIP3    H128774   2.271   3.445   5.486  0.3565 -0.8541  0.6280
 2453TIP3    H228775   2.228   3.350   5.376 -0.2468 -0.0796  0.1868
 2454TIP3   OH228776   5.482   4.847  14.602 -0.1264  0.8538 -0.0580
 2454TIP3    H128777   5.396   4.821  14.633  0.4653  0.0016  0.8937
 2454TIP3    H228778   5.477   4.943  14.595 -0.7820  0.9040  1.0748
 2455TIP3   OH228779   6.085   5.156  11.017 -0.7618 -0.2138  0.3988
 2455TIP3    H128780   6.087   5.061  11.033 -0.7963 -0.2567  0.1683
 2455TIP3    H228781   5.993   5.180  11.030 -1.1260 -0.5536 -1.3724
 2456TIP3   OH228782   0.861   4.477  11.723 -0.5385  0.9634  0.2207
 2456TIP3    H128783   0.822   4.510  11.642 -1.1382  1.9728  0.9046
 2456TIP3    H228784   0.944   4.523  11.731 -0.4780  0.8620  0.1691
 2457TIP3   OH228785   4.791   2.358   0.815 -0.0848 -0.2605 -0.7575
 2457TIP3    H128786   4.791   2.268   0.850  1.1592 -0.1015 -0.3056
 2457TIP3    H228787   4.699   2.381   0.809 -0.5217 -2.4610 -3.2153
 2458TIP3   OH228788   2.171   3.658  14.595  0.2116  0.2370 -0.0572
 2458TIP3    H128789   2.193   3.703  14.676  0.9267 -1.9187  0.9848
 2458TIP3    H228790   2.213   3.572  14.603 -0.4048 -0.3190 -2.3430
 2459TIP3   OH228791   5.659   0.199  12.997 -0.4004 -0.4636 -0.4831
 2459TIP3    H128792   5.619   0.190  13.083  2.0512 -1.1037  0.6217
 2459TIP3    H228793   5.704   0.116  12.982 -0.3570 -0.1674 -2.1669
 2460TIP3   OH228794   4.394   2.051   5.428 -0.5951 -0.7151 -0.5749
 2460TIP3    H128795   4.464   2.019   5.485 -1.4885 -0.7658  0.5018
 2460TIP3    H228796   4.392   2.145   5.444 -1.5415 -0.8716  0.2678
 2461TIP3   OH228797   1.490   3.950  16.194 -0.4832  0.5205 -0.4567
 2461TIP3    H128798   1.585   3.953  16.187 -0.3580 -1.0552  0.2127
 2461TIP3    H228799   1.469   4.016  16.260  0.2690 -0.0483  0.3619
 2462TIP3   OH228800   3.627   3.253  15.754 -0.1105 -0.2214 -0.0804
 2462TIP3    H128801   3.612   3.279  15.663  1.1154 -0.3997 -0.3504
 2462TIP3    H228802   3.705   3.197  15.750 -2.7412 -4.0699  0.4695
 2463TIP3   OH228803   0.952   2.232   2.858  0.0747 -0.1301 -0.0814
 2463TIP3    H128804   0.920   2.321   2.877 -1.5273 -0.4966 -0.9728
 2463TIP3    H228805   0.964   2.192   2.944  0.0177  0.6835  0.3062
 2464TIP3   OH228806   5.758   5.484   2.076 -0.1632 -0.5577  0.1680
 2464TIP3    H128807   5.835   5.497   2.021 -0.3148  3.6511  0.8331
 2464TIP3    H228808   5.685   5.478   2.014  0.5769 -4.2281 -0.4441
 2465TIP3   OH228809   2.581   2.777   4.344  0.5139 -0.4005  0.1981
 2465TIP3    H128810   2.667   2.783   4.302  0.5082  0.3203  0.2852
 2465TIP3    H228811   2.601   2.763   4.437  0.5367 -0.0544  0.2451
 2466TIP3   OH228812   2.914   4.006   0.346  0.2044 -0.3003 -0.8292
 2466TIP3    H128813   2.978   4.042   0.285  0.8961 -1.0641 -0.5687
 2466TIP3    H228814   2.830   4.043   0.317  0.5547 -0.4401 -2.0747
 2467TIP3   OH228815   5.196   0.821  11.871  0.1728  0.1801  0.0310
 2467TIP3    H128816   5.144   0.890  11.832 -1.0821  0.0645  1.4693
 2467TIP3    H228817   5.287   0.847  11.855 -0.3052  1.1652 -1.1174
 2468TIP3   OH228818   2.317   2.650   4.444 -0.4830  0.2794 -0.2618
 2468TIP3    H128819   2.288   2.631   4.355  0.9236 -1.2033 -0.4396
 2468TIP3    H228820   2.270   2.730   4.469 -1.1928  0.4770 -2.1696
 2469TIP3   OH228821   3.503   6.069   4.778  0.0659  0.0930  0.3524
 2469TIP3    H128822   3.521   6.163   4.769 -0.7735  0.3631  1.4215
 2469TIP3    H228823   3.498   6.037   4.688 -0.8152  1.3059 -0.0414
 2470TIP3   OH228824   1.884   1.113   3.362  0.3814  0.0951  0.2278
 2470TIP3    H128825   1.948   1.181   3.383  1.4844 -1.4533  2.0649
 2470TIP3    H228826   1.802   1.160   3.348  1.4446  1.9128 -0.0112
 2471TIP3   OH228827   3.703   6.422  17.118 -0.5203 -0.1992 -0.5346
 2471TIP3    H128828   3.626   6.417  17.061 -0.7767  0.3801 -0.2537
 2471TIP3    H228829   3.777   6.423  17.057 -0.7996  0.6424 -0.8880
 2472TIP3   OH228830   5.047   2.963  12.907 -0.0747  0.4105 -0.5703
 2472TIP3    H128831   5.080   3.053  12.910 -0.1747  0.3888  1.3448
 2472TIP3    H228832   5.115   2.911  12.950 -0.5470 -0.2662 -0.6297
 2473TIP3   OH228833   5.680   0.679   3.543 -0.2833  0.0876  0.0536
 2473TIP3    H128834   5.657   0.673   3.636 -1.2529  0.0231 -0.1850
 2473TIP3    H228835   5.693   0.772   3.527 -0.6617  0.1534  0.1270
 2474TIP3   OH228836   4.891   1.752  13.010 -0.4502  0.7214  0.1081
 2474TIP3    H128837   4.911   1.698  13.086  0.8711 -1.3859 -1.6586
 2474TIP3    H228838   4.966   1.811  13.002  0.0768  0.0011 -0.3452
 2475TIP3   OH228839   6.178   6.032   1.174  0.3804  0.4533  0.3687
 2475TIP3    H128840   6.101   6.002   1.127  1.4905  1.3357 -2.0646
 2475TIP3    H228841   6.241   5.961   1.166  0.5096  0.5274  0.6997
 2476TIP3   OH228842   0.746   2.549  16.860  0.0319  0.2279  0.2231
 2476TIP3    H128843   0.765   2.459  16.885  0.1773 -0.6008 -2.6517
 2476TIP3    H228844   0.651   2.550  16.845  0.3065 -0.0247 -1.7214
 2477TIP3   OH228845   1.265   5.106  15.929 -0.7019  0.2833  0.2315
 2477TIP3    H128846   1.360   5.099  15.941 -1.0098  0.3147  2.8777
 2477TIP3    H228847   1.247   5.051  15.852  1.1339 -1.7313  1.1829
 2478TIP3   OH228848   5.228   0.280   5.743  0.4217 -0.0469  0.4065
 2478TIP3    H128849   5.135   0.294   5.762  0.1488 -0.2790 -0.7241
 2478TIP3    H228850   5.245   0.191   5.772 -0.9246 -1.7794 -3.7383
 2479TIP3   OH228851   2.571   0.841   5.554 -0.5741 -0.1559 -0.6995
 2479TIP3    H128852   2.662   0.861   5.534 -0.3381 -0.6029 -0.0911
 2479TIP3    H228853   2.569   0.746   5.561 -0.8980 -0.0783  0.2153
 2480TIP3   OH228854   2.188   3.812  12.398  0.5328  0.0389 -0.4282
 2480TIP3    H128855   2.200   3.776  12.310  0.6652  0.0481 -0.4153
 2480TIP3    H228856   2.111   3.768  12.432  1.3504 -1.0519  0.0164
 2481TIP3   OH228857   6.146   1.443  13.925 -0.2584 -0.3942 -0.4151
 2481TIP3    H128858   6.150   1.355  13.962  0.8277  0.0727  0.6194
 2481TIP3    H228859   6.057   1.474  13.944 -0.4650 -1.0558 -0.3039
 2482TIP3   OH228860   3.621   5.728  15.015 -0.3102  0.4184 -0.1945
 2482TIP3    H128861   3.712   5.700  15.013 -0.7217 -0.9160 -1.9223
 2482TIP3    H228862   3.624   5.823  15.001  0.8364  0.4718  0.3830
 2483TIP3   OH228863   4.603   1.818   3.297 -0.4022  0.4301  0.0464
 2483TIP3    H128864   4.617   1.828   3.391  0.9082  0.8417 -0.1753
 2483TIP3    H228865   4.572   1.903   3.267  0.4933  0.7040 -0.1109
 2484TIP3   OH228866   5.082   0.758   2.825  0.2280 -0.0514  0.0570
 2484TIP3    H128867   5.162   0.764   2.876  0.5749  1.9094 -0.6798
 2484TIP3    H228868   5.014   0.792   2.882  0.3299  0.5458 -0.1763
 2485TIP3   OH228869   4.111   0.610   2.722  0.2382 -0.0147  0.5680
 2485TIP3    H128870   4.036   0.670   2.723 -0.1829 -0.5158 -0.6932
 2485TIP3    H228871   4.175   0.652   2.664 -0.7126 -1.5579 -1.6506
 2486TIP3   OH228872   3.289   2.396   5.874  0.3896  0.3278 -0.7052
 2486TIP3    H128873   3.280   2.468   5.937  0.2321 -0.7447  0.5303
 2486TIP3    H228874   3.291   2.439   5.788  2.7477  2.0174  0.1215
 2487TIP3   OH228875   0.230   1.481  17.234 -0.3302  0.7959  0.0849
 2487TIP3    H128876   0.289   1.527  17.294 -0.8622  2.1894 -0.4417
 2487TIP3    H228877   0.169   1.435  17.291  0.4948  0.3474  0.6221
 2488TIP3   OH228878   5.260   3.887   3.489 -0.2280  0.1411  0.4173
 2488TIP3    H128879   5.335   3.828   3.497  0.8005  1.4001  0.2917
 2488TIP3    H228880   5.240   3.888   3.395  0.1456  0.4626  0.3402
 2489TIP3   OH228881   2.282   6.588   0.512 -0.5796 -0.8668 -0.0453
 2489TIP3    H128882   2.301   6.680   0.498 -2.8342 -0.4300 -0.3978
 2489TIP3    H228883   2.368   6.546   0.518  0.4657  1.3081  0.5750
 2490TIP3   OH228884   0.437   4.113   3.006  0.1444  0.1799  0.3502
 2490TIP3    H128885   0.498   4.139   2.937 -0.8722  0.0872 -0.6040
 2490TIP3    H228886   0.488   4.055   3.063  0.4846 -1.3122 -1.4047
 2491TIP3   OH228887   4.144   1.614   4.736  0.3058  0.5348  0.2453
 2491TIP3    H128888   4.075   1.587   4.797 -1.0875  1.8972 -0.6940
 2491TIP3    H228889   4.125   1.706   4.718  2.4125  0.9499  0.0061
 2492TIP3   OH228890   6.329   2.232  11.341 -0.1782  0.1165  0.1479
 2492TIP3    H128891   6.315   2.148  11.296  0.2308  0.9107 -1.5189
 2492TIP3    H228892   6.250   2.245  11.394 -1.1384 -0.3786 -1.1337
 2493TIP3   OH228893   4.204   2.120   0.949 -0.1419 -0.4059  0.4891
 2493TIP3    H128894   4.177   2.210   0.928 -0.3164 -0.5732 -0.0258
 2493TIP3    H228895   4.254   2.128   1.030 -0.6039  0.0888  0.7293
 2494TIP3   OH228896   4.902   3.921  14.293  0.2430  0.8797 -0.4349
 2494TIP3    H128897   4.875   3.849  14.350  0.2856  0.7481 -0.5834
 2494TIP3    H228898   4.959   3.881  14.228  0.5198  1.0986 -0.3298
 2495TIP3   OH228899   1.608   1.153  16.555  0.2465 -0.1721  0.4034
 2495TIP3    H128900   1.690   1.175  16.598  0.1983 -1.9333  1.4360
 2495TIP3    H228901   1.628   1.156  16.461  1.3518 -0.1257  0.6349
 2496TIP3   OH228902   6.770   0.263  15.277 -0.0408 -0.4007  0.0347
 2496TIP3    H128903   6.796   0.171  15.281 -0.9044 -0.6007  1.6451
 2496TIP3    H228904   6.715   0.275  15.355 -2.2134  0.7644 -1.6409
 2497TIP3   OH228905   0.245   4.610  14.264 -0.4087  0.8498  0.0609
 2497TIP3    H128906   0.299   4.676  14.221  4.2441 -1.2697  2.2818
 2497TIP3    H228907   0.180   4.660  14.314  0.4780  3.5844 -1.4571
 2498TIP3   OH228908   2.868   4.335   5.524  0.0470 -0.0294  0.0759
 2498TIP3    H128909   2.867   4.417   5.475 -3.1190 -1.4853 -2.4359
 2498TIP3    H228910   2.789   4.339   5.578 -0.2712 -1.5243 -0.2704
 2499TIP3   OH228911   3.998   5.504   2.386 -0.4305 -0.2442 -0.5125
 2499TIP3    H128912   4.084   5.528   2.350  0.0959  0.4511  1.1835
 2499TIP3    H228913   3.945   5.583   2.377 -1.5635 -1.2584 -3.4219
 2500TIP3   OH228914   2.488   1.577   0.918 -0.1450  0.4255 -0.3549
 2500TIP3    H128915   2.477   1.597   0.825  0.3212  2.3497 -0.0156
 2500TIP3    H228916   2.503   1.662   0.960  0.8100 -0.5316  1.3281
 2501TIP3   OH228917   0.614   1.138  16.828  0.2674  0.1392 -0.1786
 2501TIP3    H128918   0.683   1.084  16.789  0.9257 -1.0911  2.5176
 2501TIP3    H228919   0.657   1.221  16.848  0.3418  0.2250 -0.7107
 2502TIP3   OH228920   5.088   2.680  11.086 -0.1227 -0.1031 -0.0792
 2502TIP3    H128921   5.037   2.665  11.006 -0.7656 -1.7086  0.6086
 2502TIP3    H228922   5.159   2.739  11.059 -0.6777 -0.1614 -1.7005
 2503TIP3   OH228923   3.996   0.075  17.181  0.2203 -0.6654  0.1863
 2503TIP3    H128924   3.980   0.145  17.245  0.4352 -2.1347  1.8754
 2503TIP3    H228925   3.915   0.069  17.131 -0.4731 -0.4540  1.2649
 2504TIP3   OH228926   3.357   3.889  15.487  0.1417 -0.7362  0.0903
 2504TIP3    H128927   3.306   3.808  15.490 -1.5966  0.3452  0.5712
 2504TIP3    H228928   3.320   3.938  15.413 -1.4893  1.2897  2.1539
 2505TIP3   OH228929   2.505   6.254  15.991 -0.4060 -0.7027 -0.0130
 2505TIP3    H128930   2.468   6.318  15.930  0.1731 -0.1844  0.1768
 2505TIP3    H228931   2.434   6.235  16.052 -0.4473  0.0859  0.1863
 2506TIP3   OH228932   5.579   4.432   2.439  0.4198  0.0278 -0.3898
 2506TIP3    H128933   5.579   4.386   2.523  0.9234 -0.4811 -0.6643
 2506TIP3    H228934   5.667   4.419   2.405  0.2940  0.4553 -0.8781
 2507TIP3   OH228935   5.121   0.515   6.204  0.8216  0.1328 -0.2949
 2507TIP3    H128936   5.206   0.489   6.167  1.4502 -1.1155  1.9401
 2507TIP3    H228937   5.143   0.566   6.282 -0.4850  0.9912 -0.4715
 2508TIP3   OH228938   1.572   0.330  12.665  0.8472  0.4242  0.2904
 2508TIP3    H128939   1.566   0.418  12.702  0.8009  0.8169 -0.6460
 2508TIP3    H228940   1.500   0.282  12.706 -1.0265  1.6638 -1.4752
 2509TIP3   OH228941   1.012   1.478  15.511 -0.4523  0.0575 -0.4888
 2509TIP3    H128942   0.961   1.401  15.538 -1.2019  0.6932 -0.0911
 2509TIP3    H228943   1.042   1.517  15.593  0.6318 -0.2665 -0.7131
 2510TIP3   OH228944   4.353   1.747   0.407  0.2459 -0.1672  0.3951
 2510TIP3    H128945   4.431   1.795   0.379 -0.8535  1.1094 -0.5597
 2510TIP3    H228946   4.355   1.666   0.356  1.3446 -0.5058  0.9507
 2511TIP3   OH228947   1.319   3.840  16.666 -0.6747  0.0320  0.1323
 2511TIP3    H128948   1.349   3.827  16.576  0.8305 -1.6560  0.8412
 2511TIP3    H228949   1.226   3.815  16.664 -1.0800  1.5514 -1.2629
 2512TIP3   OH228950   2.791   1.914   1.572 -0.0547 -0.3428 -0.0790
 2512TIP3    H128951   2.804   1.820   1.587 -0.6821 -0.3533  0.4414
 2512TIP3    H228952   2.699   1.929   1.593  0.0931  0.4267  0.0381
 2513TIP3   OH228953   4.092   5.568   3.079 -0.0614  0.0802 -0.0973
 2513TIP3    H128954   4.044   5.576   2.996  0.2858  0.9098 -0.2275
 2513TIP3    H228955   4.165   5.629   3.070 -0.1602  0.3594  0.9110
 2514TIP3   OH228956   0.955   0.117  10.692 -0.2645  0.2616 -0.1676
 2514TIP3    H128957   1.043   0.139  10.664 -0.6788  0.7352 -1.1062
 2514TIP3    H228958   0.905   0.198  10.683 -1.3282 -0.5449 -1.7836
 2515TIP3   OH228959   6.510   0.855  15.517  0.1542  0.4245 -0.1055
 2515TIP3    H128960   6.484   0.901  15.437  1.0252  0.1878 -0.5371
 2515TIP3    H228961   6.603   0.874  15.525 -0.2443  1.6751  1.6851
 2516TIP3   OH228962   4.984   0.289  11.755  0.6655 -0.2947  0.0140
 2516TIP3    H128963   4.968   0.379  11.728  1.5075  0.2018  1.1008
 2516TIP3    H228964   5.021   0.246  11.678  1.1738  0.5520 -0.2149
 2517TIP3   OH228965   0.830   3.743   2.191  0.3019  0.4395  0.6906
 2517TIP3    H128966   0.741   3.741   2.225 -0.0933 -1.8017 -0.3508
 2517TIP3    H228967   0.843   3.657   2.152  2.5857  1.0723 -0.0709
 2518TIP3   OH228968   2.233   4.112   2.936 -0.0811 -0.6529 -0.3650
 2518TIP3    H128969   2.145   4.145   2.954  0.0063 -0.8494  0.4618
 2518TIP3    H228970   2.224   4.065   2.853 -1.0668 -1.8353  0.3841
 2519TIP3   OH228971   1.300   1.192   0.855  0.1846  0.4881 -0.6774
 2519TIP3    H128972   1.291   1.120   0.793 -1.8933 -0.1645  0.3217
 2519TIP3    H228973   1.336   1.264   0.804  0.4043 -0.6410 -2.1466
 2520TIP3   OH228974   2.347   1.283   1.061 -0.0662  0.1097  0.1462
 2520TIP3    H128975   2.325   1.326   0.979 -1.2601 -2.6462 -1.0360
 2520TIP3    H228976   2.439   1.306   1.076  0.4731 -0.1464 -2.4938
 2521TIP3   OH228977   1.586   5.013   1.231  0.0425  0.9863  0.1944
 2521TIP3    H128978   1.658   4.962   1.266  0.8115  0.4738 -2.0545
 2521TIP3    H228979   1.610   5.104   1.247  0.2077  0.7522  1.2777
 2522TIP3   OH228980   3.725   3.624   3.120  0.4336 -0.0914  0.7559
 2522TIP3    H128981   3.783   3.563   3.075 -0.0471  0.0319 -0.0555
 2522TIP3    H228982   3.730   3.600   3.212  0.9996 -0.7199  0.5621
 2523TIP3   OH228983   3.043   6.700  13.131  0.1156  0.5213 -0.0344
 2523TIP3    H128984   2.961   6.748  13.130  0.8600  1.8949  1.8870
 2523TIP3    H228985   3.086   6.724  13.049 -1.4541 -0.3467 -1.1326
 2524TIP3   OH228986   5.147   6.097   0.038 -0.7158  1.0056 -0.3271
 2524TIP3    H128987   5.083   6.038   0.077  0.0286  0.4683  0.1094
 2524TIP3    H228988   5.123   6.184   0.070 -2.7809  1.1831 -2.2446
 2525TIP3   OH228989   6.426   3.062   1.128  0.0028 -0.2584 -0.0008
 2525TIP3    H128990   6.473   3.103   1.201  0.8762  0.1679 -0.7986
 2525TIP3    H228991   6.415   2.971   1.156 -0.0073 -0.0056  0.8287
 2526TIP3   OH228992   6.463   2.985   5.276  0.4301  0.8095  0.0267
 2526TIP3    H128993   6.453   2.896   5.242 -0.5391  0.8062  0.2854
 2526TIP3    H228994   6.398   3.037   5.227 -0.4432  0.9555  1.3000
 2527TIP3   OH228995   5.905   0.167  16.519 -0.1637 -0.6282  0.3903
 2527TIP3    H128996   5.910   0.119  16.601 -0.0060 -0.2918  0.5821
 2527TIP3    H228997   5.997   0.184  16.496 -0.1564 -1.8438 -0.5272
 2528TIP3   OH228998   2.583   2.515   2.577  0.1858  0.0612  0.3807
 2528TIP3    H128999   2.605   2.432   2.535  0.3963 -0.8037  2.1538
 2528TIP3    H229000   2.491   2.529   2.554  0.0770 -0.7846  0.2822
 2529TIP3   OH229001   0.029   2.437   3.654  0.3415  0.1962 -0.0745
 2529TIP3    H129002  -0.065   2.420   3.665  0.0780 -0.4216 -2.8518
 2529TIP3    H229003   0.042   2.525   3.689 -1.0656 -0.1067  1.2674
 2530TIP3   OH229004   4.471   0.308  12.915  0.3728 -0.2496  0.0621
 2530TIP3    H129005   4.428   0.337  12.996  0.4548 -1.4098  0.5285
 2530TIP3    H229006   4.411   0.335  12.845 -0.0253  0.1478  0.5571
 2531TIP3   OH229007   2.321   5.469   1.570  0.2262 -0.2977 -0.3134
 2531TIP3    H129008   2.390   5.527   1.602  0.6202  0.2427 -2.0926
 2531TIP3    H229009   2.304   5.409   1.643 -0.5837  2.3747  1.7536
 2532TIP3   OH229010   6.143   0.035  14.667 -0.3525  0.3454  0.0989
 2532TIP3    H129011   6.080   0.055  14.736  0.4734  3.2150  0.1126
 2532TIP3    H229012   6.210  -0.018  14.711 -1.3340 -0.3542  0.7699
 2533TIP3   OH229013   4.475   3.919   3.999 -0.1863 -0.2570  0.1446
 2533TIP3    H129014   4.417   3.978   3.952 -1.1888 -3.3130 -2.6669
 2533TIP3    H229015   4.420   3.843   4.019  2.0507 -1.9413  0.0912
 2534TIP3   OH229016   4.276   3.844  16.493 -0.0517  0.0740  0.1814
 2534TIP3    H129017   4.258   3.930  16.455 -4.4371 -0.1195  1.5964
 2534TIP3    H229018   4.286   3.861  16.586  0.3705 -0.7913  0.2942
 2535TIP3   OH229019   6.152   0.952   5.054 -0.5349 -0.6044 -0.2244
 2535TIP3    H129020   6.138   0.935   4.961 -0.9098 -0.6774 -0.1533
 2535TIP3    H229021   6.247   0.962   5.062 -0.7171  3.1391 -1.2973
 2536TIP3   OH229022   2.448   0.959   3.507 -0.1505 -0.2471 -0.2331
 2536TIP3    H129023   2.359   0.940   3.537  1.1625 -1.1804  3.3304
 2536TIP3    H229024   2.445   1.050   3.480 -1.8294  0.2071  1.3393
 2537TIP3   OH229025   5.979   0.608  10.805  0.0208  0.2233 -0.1202
 2537TIP3    H129026   6.026   0.686  10.776  1.3868 -1.0646 -1.5003
 2537TIP3    H229027   5.920   0.587  10.733 -1.3326  0.7336  0.8139
 2538TIP3   OH229028   2.338   5.747   3.209  0.2898 -0.2268  0.1757
 2538TIP3    H129029   2.314   5.683   3.141  1.3782 -0.4383 -0.0222
 2538TIP3    H229030   2.257   5.764   3.255 -0.5642  0.2396 -1.4550
 2539TIP3   OH229031   5.744   6.211  15.397  0.2148 -0.3980 -0.1577
 2539TIP3    H129032   5.671   6.164  15.356  1.0189  0.1304 -2.2135
 2539TIP3    H229033   5.800   6.141  15.433 -0.0651 -0.8951 -0.6806
 2540TIP3   OH229034   3.399   2.336   4.179  0.0219 -0.3793  0.1010
 2540TIP3    H129035   3.329   2.321   4.243 -1.7024  1.5954 -1.2830
 2540TIP3    H229036   3.424   2.248   4.150 -3.7360 -1.0468 -1.3569
 2541TIP3   OH229037   1.291   5.945  11.597 -0.3100  0.0712  0.2702
 2541TIP3    H129038   1.259   6.035  11.591  0.6530  0.3681 -0.4066
 2541TIP3    H229039   1.277   5.909  11.509 -0.4573 -0.3698  0.4697
 2542TIP3   OH229040   1.824   0.275  16.120 -0.0677 -0.1863  0.0377
 2542TIP3    H129041   1.850   0.346  16.061 -1.3997  1.5519  1.4957
 2542TIP3    H229042   1.869   0.198  16.085  0.9504  1.2388 -1.9213
 2543TIP3   OH229043   5.251   4.015  15.267 -0.0791  0.0474  0.5695
 2543TIP3    H129044   5.177   4.068  15.295 -1.1845 -0.0586 -2.0357
 2543TIP3    H229045   5.316   4.079  15.237  0.5826  0.1090  2.1164
 2544TIP3   OH229046   2.922   2.018   5.065 -0.5035 -0.2098 -0.0973
 2544TIP3    H129047   2.859   2.016   5.136 -1.6533  0.8325 -1.0655
 2544TIP3    H229048   2.971   2.100   5.078  0.4081 -0.8225  0.4272
 2545TIP3   OH229049   6.211   4.547  15.408  0.3987 -0.7652 -0.4238
 2545TIP3    H129050   6.136   4.602  15.428 -0.8697 -2.6415  0.0502
 2545TIP3    H229051   6.241   4.577  15.322 -0.5836  0.3051 -0.3915
 2546TIP3   OH229052   3.418   2.527   1.348 -0.3169  0.0076 -0.0572
 2546TIP3    H129053   3.343   2.566   1.393  0.0252  0.7692 -0.1437
 2546TIP3    H229054   3.415   2.564   1.260  0.9212  1.0796  0.3321
 2547TIP3   OH229055   2.115   4.223  14.194  0.5781  0.1462 -0.2877
 2547TIP3    H129056   2.050   4.175  14.142 -0.4492  0.3830  0.7518
 2547TIP3    H229057   2.192   4.227  14.138 -0.3898  0.0883 -1.6604
 2548TIP3   OH229058   6.571   4.398   1.652  0.1305 -0.1958 -0.2288
 2548TIP3    H129059   6.539   4.330   1.593  1.6094 -1.4417  0.3773
 2548TIP3    H229060   6.666   4.388   1.652  0.3662  1.7542  0.0172
 2549TIP3   OH229061   0.476   5.353  13.415 -0.3196  0.1290 -0.4592
 2549TIP3    H129062   0.451   5.267  13.449 -1.1232  0.1170 -1.0597
 2549TIP3    H229063   0.570   5.360  13.435 -0.3794 -0.6327  0.1260
 2550TIP3   OH229064   6.295   0.488  16.382 -0.2198  0.0854 -0.1396
 2550TIP3    H129065   6.325   0.577  16.366 -1.9298  0.9969  1.6225
 2550TIP3    H229066   6.364   0.433  16.345  1.0570  2.1175 -0.8583
 2551TIP3   OH229067   4.956   5.378   0.262 -0.6336 -0.2264  0.2573
 2551TIP3    H129068   5.051   5.374   0.277 -0.9452 -1.0083  2.2029
 2551TIP3    H229069   4.919   5.323   0.331 -2.6145  1.4493  0.5716
 2552TIP3   OH229070   1.505   0.669  11.982  0.0977 -0.0376  0.2756
 2552TIP3    H129071   1.415   0.683  12.011 -1.0810 -1.8481 -2.2830
 2552TIP3    H229072   1.546   0.756  11.985 -2.0407  0.9794  0.4912
 2553TIP3   OH229073   5.659   2.024   0.140  0.0222 -0.0231 -0.4627
 2553TIP3    H129074   5.601   2.061   0.074 -1.2264 -0.9821  0.0814
 2553TIP3    H229075   5.747   2.047   0.109 -0.5501 -0.1668 -2.2961
 2554TIP3   OH229076   6.128   0.625  13.570  0.1439  0.7302 -0.2665
 2554TIP3    H129077   6.081   0.697  13.529  0.0956  0.8940  0.0748
 2554TIP3    H229078   6.101   0.547  13.521  0.2604  0.9572 -0.6846
 2555TIP3   OH229079   1.885   0.348   2.855  0.2078  0.2589  0.2080
 2555TIP3    H129080   1.805   0.311   2.892 -0.3808  0.6298 -0.6854
 2555TIP3    H229081   1.934   0.382   2.931  0.0374 -0.9581  0.8626
 2556TIP3   OH229082   2.439   2.673   3.928  0.0968  0.4497 -0.0097
 2556TIP3    H129083   2.353   2.659   3.888  0.5436 -0.7417 -0.5621
 2556TIP3    H229084   2.454   2.595   3.980  2.4032 -1.0167 -2.7225
 2557TIP3   OH229085   3.969   3.329  13.990 -0.5399  0.9179 -0.3544
 2557TIP3    H129086   3.921   3.332  14.073 -0.1453  1.0474 -0.1279
 2557TIP3    H229087   4.049   3.379  14.007  0.1782 -0.1890 -0.4021
 2558TIP3   OH229088   6.064   5.488   3.687  0.1682 -0.0355 -0.0860
 2558TIP3    H129089   6.084   5.557   3.623  0.1578  0.5715  0.5615
 2558TIP3    H229090   5.993   5.525   3.741 -0.7925 -1.0883 -0.6024
 2559TIP3   OH229091   0.066   3.461   4.107 -0.1639  0.2687 -0.0108
 2559TIP3    H129092   0.109   3.414   4.036 -1.7389 -0.5785 -0.4309
 2559TIP3    H229093   0.055   3.550   4.074  2.6781  0.9276  0.7220
 2560TIP3   OH229094   3.467   3.380  15.930 -0.3461  0.2678  0.3633
 2560TIP3    H129095   3.542   3.352  15.878  1.3769  2.5709  1.4829
 2560TIP3    H229096   3.506   3.431  16.001 -2.9581  0.9923  1.3156
 2561TIP3   OH229097   3.960   1.831   4.511 -0.3675  0.5043 -0.0079
 2561TIP3    H129098   3.918   1.865   4.432  0.1148  1.0121 -0.0464
 2561TIP3    H229099   3.991   1.744   4.486  1.2094  1.2962 -0.8772
 2562TIP3   OH229100   4.016   3.211  13.550  0.7125  0.3670 -0.1161
 2562TIP3    H129101   4.098   3.209  13.599  0.7074  1.9428 -0.0296
 2562TIP3    H229102   4.039   3.249  13.466  0.2498 -0.0730 -0.4475
 2563TIP3   OH229103   5.769   3.496  11.419  0.1508 -0.0087 -0.8145
 2563TIP3    H129104   5.835   3.433  11.391 -0.8438 -1.7935  0.7128
 2563TIP3    H229105   5.812   3.546  11.489 -0.1009 -1.2521  0.2682
 2564TIP3   OH229106   1.519   3.005   5.858  0.4140  0.1803  0.3322
 2564TIP3    H129107   1.474   3.020   5.941 -0.2320 -0.8695  0.1738
 2564TIP3    H229108   1.489   3.077   5.802 -1.1314 -0.5553  0.2074
 2565TIP3   OH229109   6.275   6.622   5.357 -0.0911  0.1880  0.1193
 2565TIP3    H129110   6.316   6.708   5.342  1.7301 -0.9445 -1.6326
 2565TIP3    H229111   6.337   6.559   5.319 -2.2882 -1.7597 -0.3248
 2566TIP3   OH229112   0.729   4.028   3.324  0.5938 -0.0442  0.3689
 2566TIP3    H129113   0.699   3.938   3.316  0.5221  0.0230 -0.1293
 2566TIP3    H229114   0.692   4.073   3.248  0.1264  0.5450  0.9249
 2567TIP3   OH229115   5.160   5.133   4.554  0.1038  0.1331  0.0607
 2567TIP3    H129116   5.086   5.163   4.501 -0.8177 -0.9340  0.7039
 2567TIP3    H229117   5.180   5.046   4.520  1.9595  0.9292 -0.9843
 2568TIP3   OH229118   2.731   4.977  15.975 -0.1484  0.0693 -0.4889
 2568TIP3    H129119   2.638   4.980  15.953  0.0337 -1.2359 -1.4936
 2568TIP3    H229120   2.776   5.002  15.894  0.4394 -1.8034 -0.7616
 2569TIP3   OH229121   2.721   1.346  13.067  0.2772  0.2025  0.4089
 2569TIP3    H129122   2.677   1.333  13.151 -2.2262  3.6597 -0.2381
 2569TIP3    H229123   2.752   1.436  13.070  1.8390 -0.2244 -1.6625
 2570TIP3   OH229124   6.392   1.169   5.697 -0.0804 -0.3420 -0.2984
 2570TIP3    H129125   6.479   1.170   5.737 -1.0815  1.9794  1.9244
 2570TIP3    H229126   6.409   1.144   5.606  3.0055  0.6066 -0.0723
 2571TIP3   OH229127   1.384   6.611   2.338 -0.3586 -0.1652  0.1779
 2571TIP3    H129128   1.401   6.530   2.386  1.3277  0.2914  0.3751
 2571TIP3    H229129   1.328   6.662   2.396 -0.9855 -0.9696  0.2817
 2572TIP3   OH229130   2.035   2.466  15.638  0.2375 -0.0772  0.3050
 2572TIP3    H129131   1.952   2.508  15.662  0.7172  0.5045  0.9515
 2572TIP3    H229132   2.013   2.373  15.633  0.0659 -0.2188  2.8994
 2573TIP3   OH229133   1.235   5.555   2.056  0.0010 -0.9171 -0.2676
 2573TIP3    H129134   1.291   5.494   2.104  0.3648 -0.4319 -0.0687
 2573TIP3    H229135   1.169   5.582   2.120  0.6466 -0.0637  0.0400
 2574TIP3   OH229136   1.871   5.692   1.055  0.7184 -0.3282  0.6352
 2574TIP3    H129137   1.867   5.641   1.136  2.5181 -3.1248 -0.9617
 2574TIP3    H229138   1.804   5.653   1.000 -0.8475  1.8991  0.8981
 2575TIP3   OH229139   3.318   1.065  13.823  0.2409 -0.7453  0.0558
 2575TIP3    H129140   3.263   1.095  13.751  2.4111 -1.1480 -1.8331
 2575TIP3    H229141   3.274   0.987  13.857 -1.5924  0.3244  0.2115
 2576TIP3   OH229142   3.101   5.443  11.594 -0.8169 -0.1675  0.0246
 2576TIP3    H129143   3.026   5.490  11.558  0.1261  0.3193 -1.3673
 2576TIP3    H229144   3.150   5.509  11.643 -1.5140 -0.5842  1.3114
 2577TIP3   OH229145   1.146   6.369   1.388 -0.0577  0.2697  0.1656
 2577TIP3    H129146   1.141   6.437   1.321  0.9877 -0.1436 -0.3438
 2577TIP3    H229147   1.217   6.311   1.359  0.6861  0.3046  1.8133
 2578TIP3   OH229148   6.766   1.458  15.986 -0.0534  0.3057 -0.5042
 2578TIP3    H129149   6.684   1.408  15.980 -0.3354  0.7508 -0.3461
 2578TIP3    H229150   6.820   1.424  15.915  0.3478 -1.3304  0.5629
 2579TIP3   OH229151   3.121   6.278  14.351  0.3672 -0.3827 -0.0521
 2579TIP3    H129152   3.039   6.246  14.313  0.2930 -0.1033 -0.1296
 2579TIP3    H229153   3.107   6.273  14.446 -0.7925  2.3112 -0.0461
 2580TIP3   OH229154   6.151   4.313   5.898 -0.3365 -0.1825  0.1479
 2580TIP3    H129155   6.233   4.289   5.940 -0.3423 -0.0056  0.2602
 2580TIP3    H229156   6.097   4.235   5.903  0.6788 -1.0835 -2.0341
 2581TIP3   OH229157   2.780   0.065   1.415  0.1550 -0.4959 -0.2970
 2581TIP3    H129158   2.813  -0.017   1.377 -0.6023  0.0850 -2.2671
 2581TIP3    H229159   2.858   0.121   1.421  0.4709 -0.9587  0.0095
 2582TIP3   OH229160   0.968   2.562   2.712  0.3308 -0.4870  0.7613
 2582TIP3    H129161   1.061   2.540   2.701  0.5091  0.1136  1.0472
 2582TIP3    H229162   0.922   2.500   2.656  1.0246  0.5258 -0.9500
 2583TIP3   OH229163   4.950   4.338   2.717  0.1134 -0.1768  0.3867
 2583TIP3    H129164   4.916   4.408   2.661  0.5472 -0.8549 -0.7576
 2583TIP3    H229165   4.971   4.268   2.656 -0.6350 -1.4356  1.5592
 2584TIP3   OH229166   3.304   0.232   2.537  0.1501 -0.6274  0.0492
 2584TIP3    H129167   3.325   0.139   2.549  0.1398 -0.8678 -1.7145
 2584TIP3    H229168   3.208   0.234   2.534  0.1134 -0.4147  1.1320
 2585TIP3   OH229169   4.624   1.772  11.489 -1.1176 -1.1342  0.9914
 2585TIP3    H129170   4.563   1.814  11.550  0.1692 -0.1761  1.6412
 2585TIP3    H229171   4.657   1.844  11.435  1.2397 -1.2282  2.2285
 2586TIP3   OH229172   3.453   6.032   5.630 -0.3560 -0.0281 -0.1498
 2586TIP3    H129173   3.391   5.959   5.624 -1.6155  0.9235  0.9666
 2586TIP3    H229174   3.443   6.080   5.548 -1.7622  0.6191  0.3802
 2587TIP3   OH229175   2.829   2.567   3.139 -0.2673 -0.1743  1.0326
 2587TIP3    H129176   2.825   2.586   3.045  1.7587 -0.3453  0.8864
 2587TIP3    H229177   2.764   2.625   3.178 -0.2544  0.7959 -0.3465
 2588TIP3   OH229178   2.254   0.848   2.116  0.1878  0.1197  0.2567
 2588TIP3    H129179   2.257   0.876   2.025 -0.8600 -1.5971 -0.3188
 2588TIP3    H229180   2.343   0.866   2.149  0.9509 -0.4052 -1.4473
 2589TIP3   OH229181   4.903   1.852  12.053 -0.8223 -0.4734  0.2038
 2589TIP3    H129182   4.934   1.925  12.000 -0.0980 -1.9350 -1.4292
 2589TIP3    H229183   4.977   1.791  12.057 -2.3844 -2.5367 -1.0768
 2590TIP3   OH229184   1.751   1.894   6.619  0.3618 -0.2319  0.3349
 2590TIP3    H129185   1.728   1.804   6.642 -0.1223 -0.1743  0.0661
 2590TIP3    H229186   1.841   1.904   6.652 -0.0259 -0.4161  1.4782
 2591TIP3   OH229187   2.671   6.210   0.576  0.7997  0.2045  0.4695
 2591TIP3    H129188   2.636   6.267   0.645 -0.1384  1.4032 -0.9676
 2591TIP3    H229189   2.757   6.247   0.557  0.6986  0.4042  0.3935
 2592TIP3   OH229190   0.143   3.602   3.618  0.1774  0.1000  0.5141
 2592TIP3    H129191   0.103   3.632   3.699 -2.1265 -0.2300 -0.4570
 2592TIP3    H229192   0.073   3.555   3.573  0.8967  1.7543 -2.4642
 2593TIP3   OH229193   1.764   0.588  14.756  0.6862 -0.2218  0.9473
 2593TIP3    H129194   1.705   0.541  14.814  0.2646 -0.8566  0.0004
 2593TIP3    H229195   1.738   0.562  14.668 -0.0622  2.3411  0.3556
 2594TIP3   OH229196   0.885   2.188  11.670 -0.5625  0.2314 -0.4998
 2594TIP3    H129197   0.837   2.190  11.753 -0.4843 -0.5145 -0.4312
 2594TIP3    H229198   0.817   2.182  11.603 -0.5736 -1.4729 -0.3747
 2595TIP3   OH229199   0.953   0.240   3.671  0.3839  0.4955  0.0070
 2595TIP3    H129200   1.023   0.236   3.736  0.3046 -0.9831  0.0149
 2595TIP3    H229201   0.918   0.329   3.678  2.0176  1.1313  0.2566
 2596TIP3   OH229202   1.971   2.139   0.614  0.1206 -0.1184  0.1198
 2596TIP3    H129203   1.995   2.172   0.528 -1.6423  1.0136  0.0346
 2596TIP3    H229204   1.918   2.209   0.653  0.6624 -0.7239  2.0178
 2597TIP3   OH229205   2.447   1.951  11.591 -0.2320  0.3568  0.2064
 2597TIP3    H129206   2.538   1.941  11.566 -0.0483  2.7138 -0.1747
 2597TIP3    H229207   2.398   1.944  11.509 -0.3363 -0.2092  0.3166
 2598TIP3   OH229208   6.226   5.957  14.756  0.1081 -0.4690 -0.1146
 2598TIP3    H129209   6.177   5.995  14.684  0.2009  2.5733  1.3785
 2598TIP3    H229210   6.273   5.883  14.717 -1.3268 -0.0385 -2.7247
 2599TIP3   OH229211   5.052   3.290   2.499  0.0848  0.0494 -0.6594
 2599TIP3    H129212   5.086   3.210   2.459 -1.9403 -0.1077 -2.0927
 2599TIP3    H229213   5.085   3.361   2.444  0.0533  0.0574 -0.6683
 2600TIP3   OH229214   0.426   0.620   0.673  0.6567  0.3832 -0.1330
 2600TIP3    H129215   0.360   0.682   0.703  0.3527 -0.7048  1.5078
 2600TIP3    H229216   0.507   0.650   0.714  0.9801  1.0665 -1.2503
 2601TIP3   OH229217   3.236   0.374   5.086 -0.1545 -0.1307  0.0452
 2601TIP3    H129218   3.299   0.436   5.122 -0.1903 -0.3919  0.5658
 2601TIP3    H229219   3.186   0.424   5.021  0.8857 -0.0423 -0.6917
 2602TIP3   OH229220   2.636   2.032   4.457  0.5169 -0.0488 -0.0747
 2602TIP3    H129221   2.610   1.955   4.507  2.3798 -0.2490  0.6277
 2602TIP3    H229222   2.698   2.077   4.514  2.9254 -0.4271 -2.3117
 2603TIP3   OH229223   2.695   3.030  13.751  0.1930 -0.7001  0.7476
 2603TIP3    H129224   2.679   3.030  13.657 -0.5715 -1.0616  0.8696
 2603TIP3    H229225   2.780   2.986  13.761  0.3254 -0.5640  0.2236
 2604TIP3   OH229226   0.586   5.627  15.307  0.3929  0.2607 -0.2110
 2604TIP3    H129227   0.622   5.702  15.259  1.1027  1.4123  2.0842
 2604TIP3    H229228   0.494   5.650  15.322 -0.0819 -0.5187 -1.7844
 2605TIP3   OH229229   3.327   3.468   3.996 -0.1956 -0.1825  0.1589
 2605TIP3    H129230   3.274   3.538   4.033  0.7053  0.3818  0.4066
 2605TIP3    H229231   3.363   3.505   3.915 -0.3320 -0.6245 -0.1087
 2606TIP3   OH229232   6.531   1.417   6.721  0.2507  0.2399  0.9306
 2606TIP3    H129233   6.542   1.356   6.648  2.6734  0.8730  0.7487
 2606TIP3    H229234   6.458   1.380   6.772 -1.6600 -0.0559 -1.9228
 2607TIP3   OH229235   1.667   1.921   1.794 -0.1315 -0.4741  0.3645
 2607TIP3    H129236   1.697   2.004   1.757 -1.3242  0.5153  1.5576
 2607TIP3    H229237   1.713   1.914   1.877 -2.2997  0.5136  1.6890
 2608TIP3   OH229238   0.479   6.060   4.183  0.2869 -0.2332  0.0053
 2608TIP3    H129239   0.425   6.023   4.253  1.0223 -0.2780  0.5559
 2608TIP3    H229240   0.517   6.139   4.222  0.6201 -0.2055 -0.3746
 2609TIP3   OH229241   3.038   5.186   5.863  0.7536 -0.6008  0.0882
 2609TIP3    H129242   2.961   5.129   5.858  0.1859  0.0169  1.3590
 2609TIP3    H229243   3.053   5.214   5.773 -1.3350  0.3167 -0.0227
 2610TIP3   OH229244   1.809   0.450  15.866  0.0611 -0.2689 -0.1631
 2610TIP3    H129245   1.765   0.516  15.919 -0.9359  0.6305 -2.0291
 2610TIP3    H229246   1.822   0.493  15.781  1.3316 -1.7580 -0.7462
 2611TIP3   OH229247   3.815   0.308  10.622 -0.4020  0.6269  0.0668
 2611TIP3    H129248   3.892   0.253  10.613  0.2549  1.6635 -0.7658
 2611TIP3    H229249   3.787   0.326  10.533 -1.5044  0.4173  0.3597
 2612TIP3   OH229250   4.111   0.786   4.867  0.2449 -0.3411 -0.5041
 2612TIP3    H129251   4.024   0.751   4.889  1.0728 -0.5224  2.8286
 2612TIP3    H229252   4.094   0.871   4.827 -1.4423  0.4465  1.8036
 2613TIP3   OH229253   1.439   5.622   4.778  0.3035  0.4906  0.6641
 2613TIP3    H129254   1.398   5.610   4.863 -0.8934  1.4286  0.2421
 2613TIP3    H229255   1.369   5.602   4.715  1.3608 -0.8359 -0.0970
 2614TIP3   OH229256   4.665   2.407   5.341 -0.6554  0.0289  0.3241
 2614TIP3    H129257   4.703   2.433   5.425 -2.2666 -0.2736  1.1542
 2614TIP3    H229258   4.585   2.360   5.365 -1.2443  0.1553 -1.4023
 2615TIP3   OH229259   2.194   5.772   1.702  0.5622 -0.1334 -0.1183
 2615TIP3    H129260   2.146   5.708   1.755  0.9207 -0.8851 -0.7026
 2615TIP3    H229261   2.235   5.830   1.766 -0.5440  0.0892  0.4025
 2616TIP3   OH229262   0.381   1.518  15.749  0.2701  0.2998 -0.4945
 2616TIP3    H129263   0.295   1.557  15.766  0.1629 -0.2464  0.2169
 2616TIP3    H229264   0.389   1.521  15.654 -1.8280 -2.3444 -0.8183
 2617TIP3   OH229265   5.781   0.931   3.466 -0.2186 -0.1257  0.0284
 2617TIP3    H129266   5.734   0.991   3.408  0.6090  1.1900  0.6827
 2617TIP3    H229267   5.757   0.959   3.554 -1.4164 -2.0702  0.3447
 2618TIP3   OH229268   2.142   5.659   1.470  0.0152 -0.0542  0.3556
 2618TIP3    H129269   2.139   5.710   1.551 -1.7834 -0.6820  0.7084
 2618TIP3    H229270   2.203   5.588   1.489  0.4116  0.3926  0.7941
 2619TIP3   OH229271   0.564   2.303   1.774  0.1063  0.2946  0.1354
 2619TIP3    H129272   0.580   2.295   1.868  2.1362  0.0423 -0.1971
 2619TIP3    H229273   0.475   2.336   1.767 -0.6610 -1.3063  2.0971
 2620TIP3   OH229274   1.983   0.023   2.006  0.4047 -0.0342  0.0018
 2620TIP3    H129275   1.938   0.025   2.090  1.1820 -2.4890  0.5072
 2620TIP3    H229276   2.076   0.017   2.028  0.7687  1.3693 -1.0483
 2621TIP3   OH229277   4.594   1.297  11.045 -0.0115 -0.1623  0.3485
 2621TIP3    H129278   4.630   1.223  10.996 -0.9115 -0.0683 -0.4648
 2621TIP3    H229279   4.619   1.374  10.994 -0.9330 -0.0632  0.0408
 2622TIP3   OH229280   0.425   5.113  13.508 -0.0055 -0.1651 -0.2285
 2622TIP3    H129281   0.436   5.102  13.603 -0.0992  0.0505 -0.1912
 2622TIP3    H229282   0.375   5.037  13.481 -0.7172  0.2020  0.0343
 2623TIP3   OH229283   1.109   2.433  15.267  0.4488 -0.2593 -0.1803
 2623TIP3    H129284   1.027   2.414  15.221 -0.0476 -0.0071  0.5894
 2623TIP3    H229285   1.170   2.460  15.198 -0.1455 -0.3575 -0.7434
 2624TIP3   OH229286   1.220   4.217   1.301  0.2018 -0.7914 -0.2839
 2624TIP3    H129287   1.149   4.154   1.287 -2.0350  1.5376  0.3509
 2624TIP3    H229288   1.261   4.226   1.215 -1.1472 -1.1370 -0.9834
 2625TIP3   OH229289   6.144   3.890  11.033  0.2948  0.1104 -0.2547
 2625TIP3    H129290   6.144   3.906  10.939 -0.0301  1.8771  0.0124
 2625TIP3    H229291   6.213   3.826  11.048  0.4438 -0.0623 -1.6722
 2626TIP3   OH229292   5.893   4.147  13.944  0.2607 -0.1628  0.4341
 2626TIP3    H129293   5.837   4.179  14.014  0.0618 -1.5773  0.9258
 2626TIP3    H229294   5.883   4.052  13.946  3.5776 -0.5431  1.2968
 2627TIP3   OH229295   6.061   1.239  11.141 -0.1274 -0.4914  0.1568
 2627TIP3    H129296   6.054   1.224  11.235  0.5020  0.7792  0.4092
 2627TIP3    H229297   6.003   1.313  11.124  0.6787  0.0493 -0.2652
 2628TIP3   OH229298   3.260   3.428   0.741  0.5158 -0.9211  0.0032
 2628TIP3    H129299   3.192   3.415   0.807 -0.7395 -1.3229 -1.3617
 2628TIP3    H229300   3.320   3.491   0.781 -1.3056  0.3852  0.7439
 2629TIP3   OH229301   2.494   6.461  12.075 -0.2979 -0.3240 -0.6849
 2629TIP3    H129302   2.538   6.405  12.139 -0.3118 -1.8957 -2.0106
 2629TIP3    H229303   2.526   6.549  12.093 -0.3721 -0.7300  1.5284
 2630TIP3   OH229304   2.363   5.275  14.585 -0.3565  0.2271 -0.8177
 2630TIP3    H129305   2.289   5.248  14.639  1.3144 -0.7444  1.0475
 2630TIP3    H229306   2.387   5.195  14.537 -0.7498  0.6356 -1.6974
 2631TIP3   OH229307   6.021   6.365   3.068  0.9371  0.0428 -0.1791
 2631TIP3    H129308   6.111   6.398   3.061  0.1993  1.9522 -1.0059
 2631TIP3    H229309   5.991   6.358   2.977 -0.1204  0.5078  0.1286
 2632TIP3   OH229310   0.636   0.012  10.892 -0.0055  0.9651  0.0040
 2632TIP3    H129311   0.549   0.035  10.925 -0.0090  0.8993  0.0408
 2632TIP3    H229312   0.632   0.033  10.799  0.2085  1.7550  0.1634
 2633TIP3   OH229313   5.794   0.053  11.870 -0.0626  0.3242 -0.1714
 2633TIP3    H129314   5.887   0.034  11.854  0.1098  0.6987  0.3642
 2633TIP3    H229315   5.791   0.084  11.960 -0.9690 -1.3228  0.3776
 2634TIP3   OH229316   4.794   3.238   1.383 -0.4033  0.1654  0.2299
 2634TIP3    H129317   4.733   3.311   1.376  0.7953  0.9798 -2.5042
 2634TIP3    H229318   4.750   3.166   1.336  0.7422  0.7767 -1.8093
 2635TIP3   OH229319   1.635   1.173  11.821  0.0458 -0.2792 -0.4034
 2635TIP3    H129320   1.572   1.111  11.785  0.7466 -1.0631 -0.3205
 2635TIP3    H229321   1.663   1.226  11.747  1.2935 -1.7182 -0.9954
 2636TIP3   OH229322   1.917   0.835   3.401 -0.2380  0.2966 -0.1915
 2636TIP3    H129323   1.885   0.925   3.393 -1.3054 -0.0339  0.3586
 2636TIP3    H229324   1.961   0.818   3.317  0.6890  1.6109  0.0171
 2637TIP3   OH229325   5.818   6.342   4.778  0.0770  0.8637  0.4422
 2637TIP3    H129326   5.850   6.252   4.784  0.5983  1.1251  1.6277
 2637TIP3    H229327   5.848   6.384   4.858 -1.2322  1.7540  0.4898
 2638TIP3   OH229328   3.263   6.554  11.728  0.0227  0.5110 -0.1867
 2638TIP3    H129329   3.174   6.588  11.721 -0.0635  0.1895 -0.6982
 2638TIP3    H229330   3.317   6.622  11.687 -0.2421 -0.3379 -1.9973
 2639TIP3   OH229331   0.321   5.856   2.045  0.0614  0.1226 -0.1934
 2639TIP3    H129332   0.395   5.854   1.984  0.7194 -0.3594  0.6217
 2639TIP3    H229333   0.350   5.914   2.115 -0.1594 -0.4306  0.3569
 2640TIP3   OH229334   4.128   6.184  12.882 -0.0609  0.0389  0.0191
 2640TIP3    H129335   4.128   6.250  12.952 -2.2022 -1.1232  1.1476
 2640TIP3    H229336   4.184   6.114  12.915  1.5682  0.9008 -0.8456
 2641TIP3   OH229337   1.566   4.708   6.007 -0.3149  0.0242  0.0643
 2641TIP3    H129338   1.595   4.793   5.975 -1.7893  0.6355  0.3072
 2641TIP3    H229339   1.611   4.697   6.091  2.0711 -0.7202 -1.2799
 2642TIP3   OH229340   2.846   2.460  15.240 -0.7389  0.3320  0.3142
 2642TIP3    H129341   2.935   2.430  15.257 -1.6122 -2.9374 -0.4454
 2642TIP3    H229342   2.847   2.487  15.148 -0.7868 -0.9180 -0.0716
 2643TIP3   OH229343   6.550   6.005  12.668  0.3973  0.3057 -0.7100
 2643TIP3    H129344   6.607   5.937  12.702 -0.2329  0.4074  0.5783
 2643TIP3    H229345   6.468   5.995  12.717  0.1338  1.6715 -0.8489
 2644TIP3   OH229346   2.517   5.448  17.011 -0.2622  0.1642  0.2594
 2644TIP3    H129347   2.511   5.380  16.945 -0.6158 -0.9511  1.4242
 2644TIP3    H229348   2.573   5.515  16.972 -0.1607 -0.6549 -1.0064
 2645TIP3   OH229349   3.455   2.836   5.694  0.1507  0.2136 -0.2163
 2645TIP3    H129350   3.365   2.806   5.706  0.5591 -1.9606 -2.2442
 2645TIP3    H229351   3.480   2.805   5.606  2.7704  1.0081  0.1874
 2646TIP3   OH229352   1.444   3.019  16.654 -0.4008  0.1179  0.5935
 2646TIP3    H129353   1.388   2.968  16.596 -0.2073 -0.7045  1.1220
 2646TIP3    H229354   1.483   2.954  16.714  1.8191  0.5314 -0.3390
 2647TIP3   OH229355   1.105   6.188   2.739  0.3084 -0.4953  0.5011
 2647TIP3    H129356   1.017   6.181   2.776  0.3267 -0.8154  0.4838
 2647TIP3    H229357   1.120   6.282   2.731 -0.8681 -0.4665 -1.5082
 2648TIP3   OH229358   3.256   5.968   1.133  0.1015  0.3700  0.2138
 2648TIP3    H129359   3.195   5.901   1.164 -0.0665  0.5835  0.3466
 2648TIP3    H229360   3.335   5.954   1.185 -1.1068  2.4915  2.7786
 2649TIP3   OH229361   5.263   3.416   2.353 -0.3966  0.0583 -0.1483
 2649TIP3    H129362   5.221   3.372   2.279  2.0550 -0.9915 -0.9891
 2649TIP3    H229363   5.329   3.472   2.312  0.2867  0.2495  1.1899
 2650TIP3   OH229364   1.186   5.683  11.648 -1.1233 -0.2832  0.0077
 2650TIP3    H129365   1.239   5.762  11.643 -0.8258 -0.5042 -0.3675
 2650TIP3    H229366   1.104   5.712  11.688 -1.2281  0.3245 -0.6380
 2651TIP3   OH229367   0.390   6.605   1.541 -0.3013 -0.0404 -0.2335
 2651TIP3    H129368   0.330   6.643   1.478 -0.8101  0.5982  0.6284
 2651TIP3    H229369   0.417   6.522   1.502 -2.6385 -0.8915 -0.1118
 2652TIP3   OH229370   1.982   5.116  15.238 -0.3087 -0.1284  0.2951
 2652TIP3    H129371   1.989   5.054  15.311  2.1143 -0.7385 -0.4237
 2652TIP3    H229372   1.937   5.067  15.169 -1.2549 -0.0286  0.8225
 2653TIP3   OH229373   4.900   3.191   1.937  0.3141 -0.4245  0.9579
 2653TIP3    H129374   4.875   3.110   1.893 -0.2061  1.0449 -1.5214
 2653TIP3    H229375   4.877   3.260   1.876  1.1446  1.6022  2.8556
 2654TIP3   OH229376   5.621   2.828   3.872  0.3470  0.3430  0.4048
 2654TIP3    H129377   5.626   2.765   3.944 -0.6521  1.3519  1.3572
 2654TIP3    H229378   5.709   2.827   3.833  0.9627 -0.0039  1.7931
 2655TIP3   OH229379   5.235   5.192  12.141  0.0246  0.2699  0.5491
 2655TIP3    H129380   5.312   5.240  12.172  0.2425  0.6928 -0.6304
 2655TIP3    H229381   5.264   5.100  12.138  0.6006  0.4737 -0.2471
 2656TIP3   OH229382   2.137   5.438  11.749 -0.4432 -0.2367  0.5127
 2656TIP3    H129383   2.092   5.360  11.781  1.0507 -0.8523  1.1636
 2656TIP3    H229384   2.077   5.510  11.771 -1.0179 -1.0089  1.5615
 2657TIP3   OH229385   5.236   0.320  17.009 -0.0337 -0.0036 -0.0751
 2657TIP3    H129386   5.330   0.335  17.013 -0.0800  0.2382  0.0739
 2657TIP3    H229387   5.197   0.407  17.017 -0.2562 -0.0375 -0.6954
 2658TIP3   OH229388   1.520   5.248  13.070 -0.1684 -0.4060 -0.1258
 2658TIP3    H129389   1.446   5.212  13.022 -0.8236  0.1846  0.4420
 2658TIP3    H229390   1.595   5.236  13.012 -0.9895  0.4986 -1.3890
 2659TIP3   OH229391   1.014   1.526   1.128  0.0172 -0.0820  0.1836
 2659TIP3    H129392   0.999   1.537   1.222  1.2283  0.8897  0.2712
 2659TIP3    H229393   1.097   1.571   1.112 -1.3605  1.8130 -1.7908
 2660TIP3   OH229394   5.896   6.255  10.939 -0.4691 -0.0295  0.0909
 2660TIP3    H129395   5.937   6.241  10.854  0.0497  0.8823  0.1865
 2660TIP3    H229396   5.848   6.174  10.957 -0.2257 -0.3820 -0.8701
 2661TIP3   OH229397   3.637   3.031   1.068  0.4381 -0.0511  0.9706
 2661TIP3    H129398   3.614   3.008   0.978  1.7958  0.9688  0.3509
 2661TIP3    H229399   3.699   3.104   1.059  0.6263  0.0176  2.7277
 2662TIP3   OH229400   1.915   3.841  10.314 -0.3761  0.3595 -0.2748
 2662TIP3    H129401   1.951   3.759  10.345 -2.1467  0.4555  2.2319
 2662TIP3    H229402   1.826   3.819  10.285 -1.1397  1.4573  1.1231
 2663TIP3   OH229403   4.746   0.552   4.435 -0.0732 -0.0510  0.0942
 2663TIP3    H129404   4.661   0.549   4.479 -0.5390  0.8476 -0.7177
 2663TIP3    H229405   4.810   0.560   4.506 -0.5130 -2.6443  0.8131
 2664TIP3   OH229406   0.090   1.557  15.692 -0.4509  0.0708  0.0471
 2664TIP3    H129407  -0.001   1.575  15.666 -0.8831 -0.1259  1.3709
 2664TIP3    H229408   0.109   1.470  15.656  0.1713  1.2788 -2.6287
 2665TIP3   OH229409   5.448   2.675   5.473 -0.0709  0.1561  0.0849
 2665TIP3    H129410   5.430   2.655   5.381  0.2540 -1.5086  0.3803
 2665TIP3    H229411   5.365   2.658   5.518  0.4143 -1.2212  0.4502
 2666TIP3   OH229412   1.528   5.276   1.298  0.0267  0.1337 -0.0736
 2666TIP3    H129413   1.458   5.215   1.276  0.2895  0.2864 -1.4166
 2666TIP3    H229414   1.563   5.243   1.381 -0.3831 -1.0543 -0.3535
 2667TIP3   OH229415   3.085   3.567   2.120  0.3323 -0.4411  0.3745
 2667TIP3    H129416   3.044   3.584   2.035  0.7595 -0.3903  0.1786
 2667TIP3    H229417   3.130   3.649   2.141 -0.5542 -0.1299  1.0936
 2668TIP3   OH229418   2.089   0.660   0.234 -0.1801  0.3795  0.6710
 2668TIP3    H129419   2.062   0.731   0.293 -2.4230  1.1151 -1.1450
 2668TIP3    H229420   2.165   0.694   0.188  0.9955  0.1682  2.4143
 2669TIP3   OH229421   5.677   3.064  14.873 -0.3936 -0.6134  0.4525
 2669TIP3    H129422   5.731   3.142  14.887  1.2896 -1.3855 -1.3802
 2669TIP3    H229423   5.665   3.027  14.960  1.3992  0.0224  1.0075
 2670TIP3   OH229424   4.875   2.302   1.216 -0.5310 -0.3469  0.1543
 2670TIP3    H129425   4.792   2.336   1.181 -2.2008 -0.5157  3.7029
 2670TIP3    H229426   4.849   2.244   1.288  2.6781 -0.1513  1.5720
 2671TIP3   OH229427   4.193   2.101  13.103 -0.2040  0.4527 -0.2415
 2671TIP3    H129428   4.254   2.029  13.086 -0.1462  0.3098  0.5661
 2671TIP3    H229429   4.238   2.157  13.165 -0.4266  0.9692 -0.5374
 2672TIP3   OH229430   1.662   2.815  12.387  0.2044  0.2178  0.3530
 2672TIP3    H129431   1.658   2.828  12.292  0.2016 -1.7625  0.0609
 2672TIP3    H229432   1.755   2.802  12.405 -0.1367 -3.3229  0.0120
 2673TIP3   OH229433   5.153   0.355  13.937 -0.5312 -0.1338 -0.2207
 2673TIP3    H129434   5.154   0.375  13.843 -1.6463 -0.5493 -0.3251
 2673TIP3    H229435   5.074   0.303  13.950 -2.0569  2.4601  1.4770
 2674TIP3   OH229436   5.130   0.718   4.679 -0.1650 -0.5916  0.1251
 2674TIP3    H129437   5.127   0.807   4.712 -0.3688  0.4763 -2.6816
 2674TIP3    H229438   5.211   0.682   4.714  0.9931  1.4015 -0.4738
 2675TIP3   OH229439   4.547   6.105  12.365 -0.2670 -0.2517 -0.1004
 2675TIP3    H129440   4.636   6.082  12.391 -0.7360  0.0744  1.8471
 2675TIP3    H229441   4.552   6.198  12.341  0.7833 -1.2615 -4.1214
 2676TIP3   OH229442   4.472   5.647  17.138 -0.0116 -0.3912  0.2864
 2676TIP3    H129443   4.508   5.732  17.164 -0.4626 -0.4050  0.9833
 2676TIP3    H229444   4.547   5.587  17.143  0.7115  0.2801 -1.9078
 2677TIP3   OH229445   3.847   3.661   1.058  0.3697  0.0590  0.6340
 2677TIP3    H129446   3.872   3.606   0.984 -1.5258 -0.4615  0.3694
 2677TIP3    H229447   3.890   3.620   1.133 -0.7620 -1.6088  0.3865
 2678TIP3   OH229448   5.749   3.904   2.707  0.3561  0.1975 -0.2375
 2678TIP3    H129449   5.819   3.967   2.725  1.1856 -0.7074 -0.2997
 2678TIP3    H229450   5.776   3.860   2.626  0.7892 -1.6725  0.8956
 2679TIP3   OH229451   3.145   0.920   2.172  0.2502  0.1421  0.9495
 2679TIP3    H129452   3.216   0.974   2.205  0.1894  0.2686  0.8714
 2679TIP3    H229453   3.071   0.980   2.163  0.9073  0.6413 -1.6663
 2680TIP3   OH229454   4.507   0.627  14.284 -0.7015 -0.6867  0.0162
 2680TIP3    H129455   4.549   0.711  14.304 -0.9208 -0.4559 -0.4854
 2680TIP3    H229456   4.472   0.597  14.368 -2.8906  0.9594 -0.2498
 2681TIP3   OH229457   3.948   1.642  16.174 -0.5697  0.4509 -0.5098
 2681TIP3    H129458   3.939   1.736  16.185  0.1339  0.3389  1.0887
 2681TIP3    H229459   3.858   1.609  16.175 -0.8164  1.0924 -1.0707
 2682TIP3   OH229460   4.917   1.060   4.066  0.2064  0.0388 -0.3723
 2682TIP3    H129461   4.862   1.038   4.142  0.2959 -0.5053 -0.4587
 2682TIP3    H229462   4.934   1.153   4.075 -0.0081  0.0331  0.1351
 2683TIP3   OH229463   2.590   4.877   4.367 -0.3814 -0.1165 -0.1719
 2683TIP3    H129464   2.528   4.939   4.330 -0.7134  0.2061  0.9109
 2683TIP3    H229465   2.537   4.803   4.394 -0.2499 -0.0164  0.3727
 2684TIP3   OH229466   5.721   3.969   1.679  0.4195  0.2260  0.1858
 2684TIP3    H129467   5.676   3.917   1.613  3.3778 -0.6491 -1.2247
 2684TIP3    H229468   5.660   4.039   1.701 -2.1828 -1.7401 -0.5527
 2685TIP3   OH229469   6.164   3.166  12.417 -0.3908 -0.3551 -0.0274
 2685TIP3    H129470   6.236   3.140  12.474  0.2804  0.3206 -0.5693
 2685TIP3    H229471   6.205   3.188  12.334 -1.3372 -1.0168 -0.6821
 2686TIP3   OH229472   5.442   1.171  12.267  0.2199 -0.6913  0.0617
 2686TIP3    H129473   5.468   1.232  12.198  0.6469  0.7614  1.4599
 2686TIP3    H229474   5.522   1.122  12.287  0.2421 -0.7172 -0.0913
 2687TIP3   OH229475   4.540   3.775  16.834  0.0465 -0.0924  0.3664
 2687TIP3    H129476   4.598   3.727  16.774  0.1455  0.5794 -0.0745
 2687TIP3    H229477   4.599   3.828  16.888 -0.1845  0.8886 -0.3413
 2688TIP3   OH229478   3.552   3.078   5.767 -0.2171  0.0652  0.0181
 2688TIP3    H129479   3.509   2.993   5.757  0.4073 -0.4785  1.7006
 2688TIP3    H229480   3.614   3.082   5.694 -0.6105 -0.7046 -0.3665
 2689TIP3   OH229481   0.145   1.925   5.474  0.7738  0.0179 -0.2472
 2689TIP3    H129482   0.175   1.862   5.540  0.9324  1.5108  1.1108
 2689TIP3    H229483   0.226   1.962   5.438  0.6499  1.1984  0.6640
 2690TIP3   OH229484   2.761   0.571  15.801 -0.0431  0.6965  0.0840
 2690TIP3    H129485   2.792   0.492  15.757  1.1726  1.3980 -0.3471
 2690TIP3    H229486   2.668   0.556  15.814 -0.3132  0.1855 -2.1635
 2691TIP3   OH229487   0.425   3.360   4.685 -1.0064 -0.1837 -0.4652
 2691TIP3    H129488   0.444   3.359   4.592 -1.7449 -1.5603 -0.6205
 2691TIP3    H229489   0.387   3.446   4.702 -0.4715  0.2224 -1.3532
 2692TIP3   OH229490   0.610   6.119   2.255  0.0040  0.5279  0.1610
 2692TIP3    H129491   0.657   6.152   2.332  0.0511  1.1650 -0.1365
 2692TIP3    H229492   0.677   6.117   2.186  0.1692 -0.8437  0.3463
 2693TIP3   OH229493   1.958   4.212   3.014 -0.0990  0.4636 -0.2003
 2693TIP3    H129494   1.899   4.244   3.083  0.2951 -0.5383  0.6061
 2693TIP3    H229495   1.963   4.118   3.028  0.6948  0.3718 -1.0652
 2694TIP3   OH229496   2.759   5.743   0.346  0.1334 -0.4075 -0.5928
 2694TIP3    H129497   2.829   5.803   0.374  0.9032 -1.1428 -0.9238
 2694TIP3    H229498   2.710   5.725   0.426 -0.1053  0.6587 -0.4881
 2695TIP3   OH229499   6.650   6.484  12.884 -0.2657  0.1481  0.1366
 2695TIP3    H129500   6.568   6.532  12.900 -1.3682 -0.2536 -3.7855
 2695TIP3    H229501   6.622   6.395  12.866  1.4882 -1.1392  3.2988
 2696TIP3   OH229502   6.239   1.818  14.380  0.8105 -0.0811  0.2852
 2696TIP3    H129503   6.297   1.782  14.314  1.1393 -1.9882  1.5783
 2696TIP3    H229504   6.177   1.748  14.400  0.2687  0.7015  1.4789
 2697TIP3   OH229505   6.475   5.021   1.949 -0.1750 -0.0365 -0.3896
 2697TIP3    H129506   6.497   4.933   1.920  0.9076  0.4147 -0.9744
 2697TIP3    H229507   6.456   5.068   1.868 -0.5736  0.3149 -0.0919
 2698TIP3   OH229508   2.286   2.743   2.764 -0.4538 -0.0245  0.0865
 2698TIP3    H129509   2.336   2.823   2.782  1.7382 -1.0613 -1.2278
 2698TIP3    H229510   2.322   2.678   2.824  1.2821 -1.3478 -2.3438
 2699TIP3   OH229511   2.365   2.771  15.386 -0.3837  0.7024  0.0779
 2699TIP3    H129512   2.382   2.709  15.315 -1.0145  0.7899 -0.1544
 2699TIP3    H229513   2.349   2.855  15.341  0.6995  1.0854  0.3961
 2700TIP3   OH229514   3.155   0.386  12.692 -0.1451 -0.0136 -0.5036
 2700TIP3    H129515   3.071   0.432  12.696  0.0918  0.4956 -1.2013
 2700TIP3    H229516   3.215   0.441  12.743 -0.0371  0.0666 -0.7157
 2701TIP3   OH229517   6.589   3.479  16.253  0.6161 -0.7526 -0.9841
 2701TIP3    H129518   6.682   3.480  16.275  0.5188 -1.8144 -0.4822
 2701TIP3    H229519   6.568   3.570  16.233  1.3422 -0.2129  0.6405
 2702TIP3   OH229520   4.950   6.729   2.935  0.0851 -0.2232  0.7033
 2702TIP3    H129521   4.925   6.801   2.993 -1.2448 -1.5200  1.7771
 2702TIP3    H229522   4.957   6.653   2.993  0.6475 -1.1387 -0.5458
 2703TIP3   OH229523   0.748   0.359   4.504 -0.0646  0.4700  0.7067
 2703TIP3    H129524   0.708   0.356   4.417 -1.5165 -2.1554  1.4051
 2703TIP3    H229525   0.827   0.305   4.496  1.4297  2.6388  0.2967
 2704TIP3   OH229526   3.150   4.830   5.795  0.1898 -0.3666  0.5846
 2704TIP3    H129527   3.160   4.755   5.737 -1.2566  0.0831 -0.2543
 2704TIP3    H229528   3.239   4.864   5.806  0.4752 -0.4232 -1.4169
 2705TIP3   OH229529   0.184   1.611  12.565  0.4454 -0.2186 -0.3376
 2705TIP3    H129530   0.127   1.606  12.488  0.3555 -2.7941 -0.1259
 2705TIP3    H229531   0.125   1.607  12.640  0.7312 -0.5716 -0.1279
 2706TIP3   OH229532   5.738   1.894   5.574  0.5769 -0.2259 -0.2390
 2706TIP3    H129533   5.680   1.968   5.557 -0.4149 -1.0516 -0.4745
 2706TIP3    H229534   5.688   1.817   5.547  0.6099 -1.2254  2.3538
 2707TIP3   OH229535   2.316   3.413  12.901  0.0180 -0.0243  0.6787
 2707TIP3    H129536   2.336   3.319  12.891  0.8074  0.0756  1.2450
 2707TIP3    H229537   2.222   3.416  12.917 -0.2462 -0.6264 -0.7091
 2708TIP3   OH229538   1.975   1.308   4.253  0.2121 -0.5260 -1.1071
 2708TIP3    H129539   2.055   1.261   4.231  0.6217  0.1289 -1.0431
 2708TIP3    H229540   1.908   1.272   4.195  0.4076 -1.5247 -0.7170
 2709TIP3   OH229541   2.328   1.799   3.128  0.0221  0.2261  0.6985
 2709TIP3    H129542   2.309   1.738   3.057 -1.4472  1.3326  0.1285
 2709TIP3    H229543   2.339   1.743   3.205 -0.6193 -0.8175  0.0426
 2710TIP3   OH229544   4.799   2.284   0.278  0.0467 -0.7795  0.0259
 2710TIP3    H129545   4.731   2.313   0.339  0.0699  0.4037 -0.5098
 2710TIP3    H229546   4.871   2.346   0.289  1.1378 -2.1503  0.7389
 2711TIP3   OH229547   1.478   1.281   6.670 -0.1426  0.0716 -0.2097
 2711TIP3    H129548   1.429   1.346   6.621  0.5225 -0.1844 -1.2173
 2711TIP3    H229549   1.532   1.332   6.731  0.5328  0.4743 -1.1382
 2712TIP3   OH229550   5.393   2.488   3.351 -0.2378 -0.2625  0.7079
 2712TIP3    H129551   5.388   2.476   3.446  1.7644 -0.0423  0.8596
 2712TIP3    H229552   5.487   2.492   3.332 -0.6236  0.0202 -1.2449
 2713TIP3   OH229553   3.748   5.664  16.911 -0.0692 -0.5098 -0.3261
 2713TIP3    H129554   3.821   5.602  16.908 -0.2123 -0.7415  0.7987
 2713TIP3    H229555   3.712   5.663  16.822  1.0773 -0.6494 -0.8012
 2714TIP3   OH229556   1.411   0.672   1.898 -0.2270  0.0640 -0.1554
 2714TIP3    H129557   1.395   0.685   1.992  0.3218 -2.1760  0.2896
 2714TIP3    H229558   1.323   0.662   1.860 -0.3760 -2.1153  0.6564
 2715TIP3   OH229559   6.751   3.553   0.002  0.1573 -0.4384 -0.2769
 2715TIP3    H129560   6.675   3.502   0.029 -0.2488  0.5756  0.5303
 2715TIP3    H229561   6.825   3.495   0.017 -0.4514 -1.4378 -1.0730
 2716TIP3   OH229562   5.785   6.627  15.667  0.3248  0.7560  0.1970
 2716TIP3    H129563   5.718   6.574  15.623  0.0262  2.5757 -1.5965
 2716TIP3    H229564   5.792   6.706  15.614  2.3326  1.5696  1.6104
 2717TIP3   OH229565   6.486   4.953   2.222 -0.0811  0.0554 -0.5906
 2717TIP3    H129566   6.509   4.993   2.139  0.7955 -2.0060 -1.3555
 2717TIP3    H229567   6.550   4.883   2.235 -0.5753 -0.0588  1.5189
 2718TIP3   OH229568   1.542   2.682  13.816 -0.2485  0.0180  0.5079
 2718TIP3    H129569   1.474   2.722  13.870  0.7051 -0.2810  1.9442
 2718TIP3    H229570   1.559   2.597  13.857  0.6989 -0.0892 -0.0895
 2719TIP3   OH229571   0.686   6.662  15.197 -0.2849 -0.0246  0.8556
 2719TIP3    H129572   0.631   6.594  15.160  0.7081 -0.5579  0.3193
 2719TIP3    H229573   0.755   6.615  15.243  1.4214  0.5472 -1.0180
 2720TIP3   OH229574   5.500   4.367   1.464  0.1351  0.1240  0.1677
 2720TIP3    H129575   5.581   4.321   1.483  1.5383  3.0915  1.6601
 2720TIP3    H229576   5.448   4.358   1.543  0.8135  1.8758  0.8299
 2721TIP3   OH229577   1.479   6.005  13.773  0.6262 -0.2520 -0.6112
 2721TIP3    H129578   1.570   6.002  13.802  0.2438 -0.8845  0.5643
 2721TIP3    H229579   1.468   5.928  13.718  1.2010  0.6471 -2.0271
 2722TIP3   OH229580   0.725   2.244  12.759 -0.6224 -0.3218  0.4409
 2722TIP3    H129581   0.724   2.150  12.774 -0.7947 -0.0122  2.4903
 2722TIP3    H229582   0.707   2.282  12.845 -3.2404  1.5285 -0.8549
 2723TIP3   OH229583   3.813   5.789   0.074 -0.1381  0.3537 -0.7714
 2723TIP3    H129584   3.799   5.831   0.159 -0.6202 -0.6312 -0.3514
 2723TIP3    H229585   3.824   5.862   0.013  1.7296  1.0591  0.3795
 2724TIP3   OH229586   6.208   0.800   5.629 -0.5830 -0.1153  0.1719
 2724TIP3    H129587   6.225   0.715   5.589 -0.1518  0.9434 -1.9609
 2724TIP3    H229588   6.114   0.815   5.615 -0.3673  0.4020 -0.7696
 2725TIP3   OH229589   4.295   0.387  16.595 -0.2843 -0.0581  0.0881
 2725TIP3    H129590   4.384   0.407  16.568 -0.3082 -0.2707 -0.1541
 2725TIP3    H229591   4.249   0.470  16.590 -0.2239 -0.0455 -0.2808
 2726TIP3   OH229592   3.413   2.998   4.907  0.0738  0.0774 -0.3190
 2726TIP3    H129593   3.354   3.074   4.907  1.0563  0.8543 -0.1456
 2726TIP3    H229594   3.429   2.979   4.815 -0.0063  0.2055 -0.3598
 2727TIP3   OH229595   4.802   3.818  15.947  0.3862  0.3525  0.1253
 2727TIP3    H129596   4.718   3.848  15.982  0.3631  0.3093  0.1070
 2727TIP3    H229597   4.814   3.730  15.982  0.4440  0.3744  0.1624
 2728TIP3   OH229598   0.998   6.099  14.935 -0.3111 -0.5254  0.4100
 2728TIP3    H129599   0.987   6.039  14.861  0.7657  0.6762 -0.7425
 2728TIP3    H229600   0.978   6.186  14.899 -2.0243 -0.1881  2.0936
 2729TIP3   OH229601   1.728   0.773   0.887 -1.1969 -0.9311 -0.3306
 2729TIP3    H129602   1.723   0.781   0.792 -0.2159 -2.3928 -0.5266
 2729TIP3    H229603   1.642   0.802   0.918 -0.6985  1.9206 -1.4593
 2730TIP3   OH229604   2.725   5.715   5.752  0.5081 -0.0057  0.1997
 2730TIP3    H129605   2.684   5.629   5.765  0.5774 -0.0998 -0.1775
 2730TIP3    H229606   2.731   5.752   5.839  1.0548 -0.6470  0.4411
 2731TIP3   OH229607   1.188   1.669   3.578 -0.8463 -0.7266 -0.1685
 2731TIP3    H129608   1.267   1.673   3.524 -0.5610  0.5391  0.3244
 2731TIP3    H229609   1.214   1.619   3.656 -0.3389  0.2788  0.3084
 2732TIP3   OH229610   4.366   0.427  10.836 -0.0376 -0.6745 -0.0523
 2732TIP3    H129611   4.432   0.375  10.880 -0.5275 -2.9335 -1.8659
 2732TIP3    H229612   4.404   0.448  10.751 -0.3242  0.9571  0.1980
 2733TIP3   OH229613   3.112   0.677   5.825  0.4599 -0.3521 -0.5877
 2733TIP3    H129614   3.110   0.738   5.899  1.7510 -0.3424 -0.5387
 2733TIP3    H229615   3.129   0.592   5.864 -0.1482 -0.5600 -0.7674
 2734TIP3   OH229616   3.610   0.550  15.505  0.6633  0.2643 -0.0462
 2734TIP3    H129617   3.539   0.603  15.540  0.2951 -0.2391 -0.0278
 2734TIP3    H229618   3.683   0.611  15.496  0.6056  0.5243  1.1058
 2735TIP3   OH229619   1.487   6.189   5.689 -0.1231  0.2665  0.2635
 2735TIP3    H129620   1.447   6.120   5.635  2.4776 -0.5370 -0.6838
 2735TIP3    H229621   1.475   6.158   5.779  0.9686 -1.4103 -0.1540
 2736TIP3   OH229622   1.620   3.423  12.426  0.0626 -0.2770  0.1558
 2736TIP3    H129623   1.603   3.330  12.437  0.7776 -0.5327 -0.8397
 2736TIP3    H229624   1.536   3.465  12.445 -0.4061 -1.1601  0.0747
 2737TIP3   OH229625   5.728   3.458  15.281 -0.1516  0.4381  0.3521
 2737TIP3    H129626   5.775   3.516  15.221 -0.7123 -1.5471 -2.0509
 2737TIP3    H229627   5.796   3.424  15.340  1.0701 -0.5846 -1.6157
 2738TIP3   OH229628   4.086   2.404  15.669  0.5092  0.1773 -0.7530
 2738TIP3    H129629   4.175   2.434  15.685 -0.0337  0.7087  1.3596
 2738TIP3    H229630   4.089   2.310  15.682  0.4110  0.4075  1.0096
 2739TIP3   OH229631   2.552   0.019   4.970 -0.3208 -0.0453  0.3057
 2739TIP3    H129632   2.505   0.092   4.929  0.6259  0.1066 -0.5253
 2739TIP3    H229633   2.627   0.004   4.913 -1.1074 -2.4190 -0.1795
 2740TIP3   OH229634   3.489   1.262  13.928 -0.0861  0.0965 -0.5022
 2740TIP3    H129635   3.453   1.324  13.991 -1.9453  0.9736 -2.3408
 2740TIP3    H229636   3.441   1.181  13.943  0.2879 -0.0367 -0.0265
 2741TIP3   OH229637   0.628   2.993  13.680  0.3991 -0.3047  0.0270
 2741TIP3    H129638   0.567   3.007  13.607 -0.6832 -2.2374  0.5188
 2741TIP3    H229639   0.582   3.026  13.756  1.1861  0.9260 -0.0146
 2742TIP3   OH229640   2.166   5.685  10.872  0.2591  0.1725  0.1737
 2742TIP3    H129641   2.086   5.737  10.869  0.5452  0.6236  0.1741
 2742TIP3    H229642   2.137   5.594  10.867 -0.1900  0.3656 -1.0350
 2743TIP3   OH229643   3.144   2.852   5.328 -0.0503 -0.1540  0.1412
 2743TIP3    H129644   3.129   2.903   5.408 -0.5782 -0.1863  0.0666
 2743TIP3    H229645   3.056   2.825   5.301 -0.1011  1.6308 -1.6088
 2744TIP3   OH229646   1.987   3.898  14.462  0.0233  0.0782  0.4393
 2744TIP3    H129647   1.894   3.892  14.438  0.0608 -1.0868  0.5423
 2744TIP3    H229648   2.005   3.991  14.464 -0.8453  0.2894 -0.7566
 2745TIP3   OH229649   2.032   5.419   4.027 -0.0180  0.2254  0.0717
 2745TIP3    H129650   1.991   5.353   3.970 -0.3540  1.2028 -0.8575
 2745TIP3    H229651   1.959   5.476   4.052  0.2921  0.3195  0.7485
 2746TIP3   OH229652   0.760   1.133   5.402  0.6295 -0.3129 -0.1202
 2746TIP3    H129653   0.793   1.211   5.358 -0.1176 -0.5537 -1.1235
 2746TIP3    H229654   0.677   1.160   5.441 -0.6286 -1.1282 -2.1894
 2747TIP3   OH229655   4.111   5.805  14.249  0.1283 -0.4030  0.3380
 2747TIP3    H129656   4.033   5.861  14.246  0.9144  0.6443 -2.5132
 2747TIP3    H229657   4.087   5.727  14.199  1.3804  0.6447 -1.9898
 2748TIP3   OH229658   3.598   6.420   3.509  0.3583  0.2553 -0.1509
 2748TIP3    H129659   3.559   6.476   3.442  0.3602 -1.3733 -1.5402
 2748TIP3    H229660   3.562   6.333   3.491  1.1145 -0.3909  1.3732
 2749TIP3   OH229661   3.233   6.635  14.936 -0.5284  0.1275  0.3855
 2749TIP3    H129662   3.264   6.694  15.003  1.0279  0.4798 -0.6320
 2749TIP3    H229663   3.197   6.692  14.868 -0.6345 -0.1633  0.1954
 2750TIP3   OH229664   6.215   0.817  15.903  0.2677  0.2581 -0.0074
 2750TIP3    H129665   6.238   0.724  15.901  2.3638  0.6928  1.3362
 2750TIP3    H229666   6.288   0.860  15.859 -0.3336  1.3323  0.0440
 2751TIP3   OH229667   2.718   2.634   5.909  0.1315  0.8524  0.1539
 2751TIP3    H129668   2.777   2.657   5.981  0.2708  0.7349  0.0770
 2751TIP3    H229669   2.632   2.626   5.950  0.4321 -0.4944  0.5275
 2752TIP3   OH229670   0.230   1.882   2.690  0.1221  0.2322 -0.0213
 2752TIP3    H129671   0.150   1.843   2.725  0.6085 -0.8212 -0.0875
 2752TIP3    H229672   0.209   1.976   2.684 -1.3168 -0.1099 -0.6227
 2753TIP3   OH229673   3.705   4.784  13.333 -0.2267 -0.1478 -0.1403
 2753TIP3    H129674   3.614   4.783  13.364 -0.1435  1.1797  0.1724
 2753TIP3    H229675   3.709   4.857  13.272  0.5697 -0.3753 -0.3705
 2754TIP3   OH229676   1.636   1.639   6.612  0.4020 -0.2574  0.1438
 2754TIP3    H129677   1.652   1.563   6.668 -1.3281 -0.8498 -0.1400
 2754TIP3    H229678   1.590   1.604   6.536  1.1934  0.8079 -0.8513
 2755TIP3   OH229679   0.109   6.211  14.378 -0.2606  0.0623  0.9423
 2755TIP3    H129680   0.047   6.191  14.308 -0.0986 -2.2014  1.3928
 2755TIP3    H229681   0.053   6.221  14.456 -0.3607  1.6600  0.6755
 2756TIP3   OH229682   2.530   3.422   3.762 -0.1976 -0.3570  0.2923
 2756TIP3    H129683   2.544   3.511   3.731  2.1470 -0.3794  1.1727
 2756TIP3    H229684   2.595   3.369   3.716 -1.9586 -1.7532 -0.6764
 2757TIP3   OH229685   3.546   4.801  15.475 -0.6960  0.2337  0.6422
 2757TIP3    H129686   3.512   4.738  15.411 -1.5363 -0.2293  1.5357
 2757TIP3    H229687   3.641   4.800  15.461 -0.8583  0.0636 -0.5251
 2758TIP3   OH229688   1.654   5.086   0.529 -0.0634  0.0205 -0.9677
 2758TIP3    H129689   1.604   5.068   0.449  1.9456  0.3619 -2.3404
 2758TIP3    H229690   1.592   5.130   0.587 -1.5260 -0.1411 -2.3749
 2759TIP3   OH229691   1.675   5.371  17.011 -0.5108 -0.6555  0.0361
 2759TIP3    H129692   1.596   5.382  17.065 -0.7893  0.8572 -0.6321
 2759TIP3    H229693   1.676   5.278  16.988 -0.8760 -1.1302  1.8836
 2760TIP3   OH229694   2.325   1.091   0.377  0.2207  0.6027 -0.1013
 2760TIP3    H129695   2.336   1.000   0.404  1.0582  0.5446 -0.6313
 2760TIP3    H229696   2.232   1.100   0.360  0.4682 -0.8295 -2.4330
 2761TIP3   OH229697   0.135   2.906  15.951  0.0650 -0.1852 -0.0999
 2761TIP3    H129698   0.200   2.871  15.890 -0.2180 -0.7247 -0.0981
 2761TIP3    H229699   0.107   2.988  15.911  0.4115 -0.1773 -0.3322
 2762TIP3   OH229700   0.530   2.727  15.338 -0.1704  0.2644  0.0855
 2762TIP3    H129701   0.474   2.802  15.319 -0.7528  0.1876  1.4479
 2762TIP3    H229702   0.611   2.766  15.373 -0.2983  0.2711  0.3720
 2763TIP3   OH229703   4.605   4.577  12.954 -0.4624 -0.3813  0.7956
 2763TIP3    H129704   4.551   4.564  13.032  1.1802 -1.8110  1.7194
 2763TIP3    H229705   4.683   4.523  12.969  0.0705 -0.3424 -1.6478
 2764TIP3   OH229706   1.345   5.723   0.112 -0.4425 -0.2047 -0.9156
 2764TIP3    H129707   1.370   5.740   0.021 -0.4869 -0.2614 -0.9383
 2764TIP3    H229708   1.427   5.728   0.161 -0.5221  0.5131 -0.8568
 2765TIP3   OH229709   4.460   3.436  17.139 -0.0246  0.2326 -0.0411
 2765TIP3    H129710   4.450   3.531  17.145 -2.2999 -0.0831  1.5837
 2765TIP3    H229711   4.409   3.412  17.062  0.4157  0.2882 -0.3553
 2766TIP3   OH229712   3.224   3.856   5.648 -0.6975 -0.3426  0.7311
 2766TIP3    H129713   3.196   3.819   5.732 -0.3677 -0.7254  0.6755
 2766TIP3    H229714   3.176   3.939   5.641  1.9933  1.4850  2.9731
 2767TIP3   OH229715   3.891   0.651  10.776 -0.6240  0.6545 -0.1040
 2767TIP3    H129716   3.921   0.633  10.865  1.0512  3.5912 -0.0295
 2767TIP3    H229717   3.846   0.736  10.782 -2.2674 -0.0634 -1.6913
 2768TIP3   OH229718   1.130   2.407  14.772  0.1752 -0.1705  0.0589
 2768TIP3    H129719   1.085   2.478  14.726 -0.8420  0.0194  1.3488
 2768TIP3    H229720   1.095   2.327  14.732 -1.9677 -0.0533  1.6355
 2769TIP3   OH229721   2.140   4.433   5.410 -0.4631 -0.2137  0.4053
 2769TIP3    H129722   2.160   4.428   5.317 -0.4843 -1.5829  0.4594
 2769TIP3    H229723   2.201   4.498   5.444 -0.2596  0.0888 -0.5121
 2770TIP3   OH229724   3.834   4.014  15.217 -0.0607 -0.0693  0.2826
 2770TIP3    H129725   3.751   4.019  15.265 -0.9359  1.4747 -1.3560
 2770TIP3    H229726   3.809   3.986  15.129  1.0878  0.9600 -0.3883
 2771TIP3   OH229727   4.396   6.148  13.428 -0.5176 -0.1562 -0.3047
 2771TIP3    H129728   4.380   6.076  13.368  1.3610 -0.7572 -0.0874
 2771TIP3    H229729   4.473   6.122  13.478  0.5052  2.2073 -0.5720
 2772TIP3   OH229730   3.369   4.011   4.502  0.1610 -0.7165  0.7463
 2772TIP3    H129731   3.377   4.016   4.597 -0.7514 -1.0482  0.8503
 2772TIP3    H229732   3.275   4.022   4.485  0.2488 -1.1596 -0.0809
 2773TIP3   OH229733   0.022   5.929   5.675 -0.5474  0.1170 -0.1568
 2773TIP3    H129734  -0.068   5.912   5.646 -0.6679  0.8680 -0.2386
 2773TIP3    H229735   0.073   5.931   5.594 -0.2604 -1.4397 -0.0239
 2774TIP3   OH229736   2.722   4.282  13.878  0.2124 -0.1482  0.6000
 2774TIP3    H129737   2.644   4.297  13.825  0.4615  1.3900  0.6486
 2774TIP3    H229738   2.708   4.335  13.957  0.5617 -1.1580  1.3534
 2775TIP3   OH229739   1.867   4.243   4.379  0.1387  0.9247 -0.1840
 2775TIP3    H129740   1.827   4.292   4.452 -1.7079 -0.2485 -0.3620
 2775TIP3    H229741   1.804   4.253   4.308  0.3946 -0.5972 -0.6263
 2776TIP3   OH229742   3.664   5.011   5.934  0.0326 -0.2745 -0.3597
 2776TIP3    H129743   3.721   5.012   5.857  0.0878  0.9220 -0.3135
 2776TIP3    H229744   3.718   4.975   6.004  0.3110 -0.3905 -0.6320
 2777TIP3   OH229745   6.089   4.822   2.711 -0.0925 -0.4748  0.1833
 2777TIP3    H129746   6.160   4.819   2.647  0.4912 -0.1750  0.8037
 2777TIP3    H229747   6.033   4.894   2.680  1.5643  1.4041  1.3902
 2778TIP3   OH229748   1.430   1.277   5.730  0.4663  0.6181  0.2552
 2778TIP3    H129749   1.476   1.258   5.812 -1.9322  0.8145  1.6712
 2778TIP3    H229750   1.481   1.347   5.690  2.6474 -0.6486  0.7072
 2779TIP3   OH229751   1.585   6.755   3.317  0.4852 -0.2290 -0.2074
 2779TIP3    H129752   1.530   6.743   3.239  2.8291 -0.5835 -1.8615
 2779TIP3    H229753   1.525   6.743   3.391 -1.7255 -0.2294 -1.9374
 2780TIP3   OH229754   6.157   2.089  11.516  0.1611  0.1127  0.5589
 2780TIP3    H129755   6.216   2.097  11.591  1.2624 -1.5822 -0.0946
 2780TIP3    H229756   6.113   2.005  11.529  0.3543 -0.1815 -0.6983
 2781TIP3   OH229757   5.883   4.329  14.865  0.6757  0.3885 -0.2151
 2781TIP3    H129758   5.804   4.288  14.899 -0.7534  0.5127 -3.2323
 2781TIP3    H229759   5.926   4.260  14.814  0.8850  1.1717 -1.1174
 2782TIP3   OH229760   3.953   2.808  15.903 -0.5228 -0.1568  0.2926
 2782TIP3    H129761   3.892   2.862  15.954 -1.4873  0.3153 -1.3076
 2782TIP3    H229762   4.017   2.870  15.868 -3.2107  0.4557 -3.8235
 2783TIP3   OH229763   4.206   6.444  15.179 -0.4176  0.6754  0.4174
 2783TIP3    H129764   4.176   6.433  15.089 -0.9841 -2.8393  0.9454
 2783TIP3    H229765   4.188   6.535  15.200 -0.2177  1.5807 -3.0218
 2784TIP3   OH229766   5.317   6.482   4.132  0.1855 -0.0361  0.1819
 2784TIP3    H129767   5.253   6.534   4.179  0.2094  0.5576 -0.4284
 2784TIP3    H229768   5.398   6.491   4.183 -0.4579 -1.5865  1.4820
 2785TIP3   OH229769   1.966   3.508  11.653  0.4182 -0.0273 -0.6317
 2785TIP3    H129770   1.989   3.416  11.656  0.2206 -0.0633 -0.1572
 2785TIP3    H229771   1.874   3.511  11.679  0.7903  0.4278  0.6563
 2786TIP3   OH229772   2.875   4.939   6.021 -0.4955  0.0204 -0.1122
 2786TIP3    H129773   2.932   4.871   5.987 -0.3234 -0.7553  1.7110
 2786TIP3    H229774   2.853   4.911   6.110 -1.9321  1.4020  0.0007
 2787TIP3   OH229775   3.007   1.398   0.135 -0.3704 -0.5241  0.3101
 2787TIP3    H129776   2.919   1.428   0.158 -0.9393 -1.9139 -0.0327
 2787TIP3    H229777   3.064   1.469   0.165 -1.4990 -0.1496  1.6478
 2788TIP3   OH229778   2.797   5.253   2.648 -0.0442  0.4766  0.1714
 2788TIP3    H129779   2.877   5.243   2.700 -0.1587  0.2780  0.3083
 2788TIP3    H229780   2.780   5.347   2.648  0.9457  0.6724 -0.9913
 2789TIP3   OH229781   0.233   6.650   3.280  0.3449  0.1032 -0.1937
 2789TIP3    H129782   0.236   6.658   3.376  2.1437 -1.0296 -0.1353
 2789TIP3    H229783   0.271   6.565   3.262 -0.8674 -0.0985 -1.8957
 2790TIP3   OH229784   4.052   6.539   3.473 -0.3935 -0.0025 -0.0299
 2790TIP3    H129785   4.060   6.611   3.410 -0.6999  2.4328  2.5899
 2790TIP3    H229786   3.960   6.541   3.499 -0.2624 -0.9806  0.5209
 2791TIP3   OH229787   4.175   6.229  11.628 -0.6209  0.5672  0.4609
 2791TIP3    H129788   4.130   6.179  11.696  1.3046 -0.7829  0.7839
 2791TIP3    H229789   4.203   6.163  11.564  0.2425  1.4630 -0.0980
 2792TIP3   OH229790   0.544   2.920   3.770 -0.2958 -0.1595 -0.0448
 2792TIP3    H129791   0.630   2.952   3.744  0.0642 -1.3079 -0.3155
 2792TIP3    H229792   0.560   2.830   3.800 -1.3969 -0.3892 -0.1181
 2793TIP3   OH229793   3.776   3.041   6.487 -0.0503 -0.1606  0.5332
 2793TIP3    H129794   3.745   3.121   6.445 -1.5049 -0.3101  1.2813
 2793TIP3    H229795   3.842   3.006   6.427 -0.3981  0.8652 -0.4614
 2794TIP3   OH229796   5.252   0.869   1.109 -0.5452  0.5399  0.0812
 2794TIP3    H129797   5.312   0.875   1.034  0.6007 -0.7618  0.8621
 2794TIP3    H229798   5.172   0.832   1.073  0.5732 -1.6782 -0.2299
 2795TIP3   OH229799   0.362   4.642   0.265  0.5857  0.2041 -0.3997
 2795TIP3    H129800   0.433   4.700   0.294  0.6355 -0.2815  0.4563
 2795TIP3    H229801   0.324   4.687   0.189  1.6365  0.5986 -0.7063
 2796TIP3   OH229802   6.531   4.001   4.574  0.1066  0.3587 -0.0472
 2796TIP3    H129803   6.445   3.962   4.558 -0.9215  1.8919  1.5086
 2796TIP3    H229804   6.512   4.086   4.613  2.3315  1.0915 -0.4702
 2797TIP3   OH229805   0.774   4.584   6.096  0.1109  0.0208 -0.0805
 2797TIP3    H129806   0.807   4.627   6.175 -0.4582  1.1766 -0.4539
 2797TIP3    H229807   0.681   4.571   6.113  0.2930 -1.1055  0.0432
 2798TIP3   OH229808   4.346   0.850   3.263  0.4387  0.3612 -0.2452
 2798TIP3    H129809   4.379   0.760   3.266  1.7205  0.8330  0.3478
 2798TIP3    H229810   4.319   0.863   3.172 -0.3418 -0.8194 -0.1906
 2799TIP3   OH229811   5.026   5.432  17.228  0.4339 -0.0076 -0.1422
 2799TIP3    H129812   4.991   5.343  17.239  0.7639 -0.1653 -0.3707
 2799TIP3    H229813   5.000   5.457  17.140 -0.9284  0.6887  0.4510
 2800TIP3   OH229814   1.833   4.006  12.102  0.5251 -0.1248  0.4687
 2800TIP3    H129815   1.748   4.048  12.092  0.8387  0.6090  0.9023
 2800TIP3    H229816   1.895   4.069  12.066  0.8693 -0.7642 -0.0809
 2801TIP3   OH229817   6.346   6.754  13.365 -0.2719  0.4985  0.6810
 2801TIP3    H129818   6.371   6.689  13.299 -2.5602  0.9653 -0.6931
 2801TIP3    H229819   6.297   6.704  13.430 -1.5237  0.7104 -0.0765
 2802TIP3   OH229820   1.391   6.551  14.508  0.0834  0.2772 -0.3157
 2802TIP3    H129821   1.329   6.479  14.516  2.0587 -1.1070  3.5461
 2802TIP3    H229822   1.468   6.512  14.469  0.9690  0.3969  1.2865
 2803TIP3   OH229823   3.994   5.367  12.689 -0.2874 -0.4872 -0.1173
 2803TIP3    H129824   4.068   5.412  12.730  0.3074 -1.1625 -0.4395
 2803TIP3    H229825   3.970   5.424  12.615 -0.5950  0.1244  0.4437
 2804TIP3   OH229826   4.453   3.946   5.872 -0.0203  0.2475 -0.0420
 2804TIP3    H129827   4.360   3.955   5.851  0.3058  0.3699 -1.5488
 2804TIP3    H229828   4.474   4.022   5.926 -0.2272  1.6158 -1.8443
 2805TIP3   OH229829   6.299   4.882  13.582  0.0391  0.1517  0.6141
 2805TIP3    H129830   6.210   4.846  13.585 -0.0187  0.1869 -0.5666
 2805TIP3    H229831   6.300   4.937  13.503  0.4336  1.9116  1.8100
 2806TIP3   OH229832   2.329   3.213   4.722 -0.1401 -0.2319  0.3122
 2806TIP3    H129833   2.382   3.269   4.665 -1.8518  0.7177 -0.3834
 2806TIP3    H229834   2.304   3.270   4.795  0.3529 -0.8691  0.9871
 2807TIP3   OH229835   5.475   1.583  14.789 -0.3353 -0.5991 -0.2379
 2807TIP3    H129836   5.488   1.675  14.812 -1.9896 -0.7287  1.3428
 2807TIP3    H229837   5.413   1.584  14.716  0.0876 -0.4319 -0.5928
 2808TIP3   OH229838   2.603   6.129  11.599 -0.3443  0.2450  0.2200
 2808TIP3    H129839   2.601   6.082  11.683  1.2746 -0.7386 -0.2854
 2808TIP3    H229840   2.619   6.061  11.534  2.3541  1.5098 -0.5003
 2809TIP3   OH229841   0.932   0.154  16.931 -0.1808 -0.1200  0.3195
 2809TIP3    H129842   0.844   0.166  16.897 -0.4652 -1.9239  0.3765
 2809TIP3    H229843   0.987   0.142  16.853 -0.4065 -1.5108  0.3483
 2810TIP3   OH229844   6.444   2.470  16.531 -0.2006  0.5713 -0.0244
 2810TIP3    H129845   6.368   2.522  16.505 -2.3291 -2.2899  0.1582
 2810TIP3    H229846   6.445   2.474  16.626 -0.1000  0.6932 -0.0328
 2811TIP3   OH229847   3.240   4.884   4.257 -0.0585 -0.0622  0.1706
 2811TIP3    H129848   3.262   4.975   4.239 -3.3175  0.9745  1.0636
 2811TIP3    H229849   3.248   4.876   4.353  0.2933 -0.7367  0.0881
 2812TIP3   OH229850   1.179   3.973   3.288  0.1806 -0.0825 -0.1478
 2812TIP3    H129851   1.205   3.898   3.342  1.1198 -0.9027 -1.6704
 2812TIP3    H229852   1.241   3.971   3.214 -0.9839  1.0718 -1.1739
 2813TIP3   OH229853   4.283   1.645  10.643 -0.1829 -0.3919  0.2078
 2813TIP3    H129854   4.252   1.629  10.733 -1.6089 -0.4342 -0.2812
 2813TIP3    H229855   4.351   1.712  10.653 -1.6800  1.0323  1.1406
 2814TIP3   OH229856   6.053   6.217   4.939  0.2988  0.6320 -0.0963
 2814TIP3    H129857   6.002   6.234   5.018  0.1581  1.6932 -0.4093
 2814TIP3    H229858   6.084   6.303   4.911  0.4906  0.2465 -1.0998
 2815TIP3   OH229859   2.196   5.423  12.736  0.3212  0.4398  0.0089
 2815TIP3    H129860   2.118   5.448  12.787  1.9394  1.8026  1.8875
 2815TIP3    H229861   2.241   5.359  12.790  0.1967 -0.8464 -1.3767
 2816TIP3   OH229862   3.613   5.638  17.136 -0.7271 -0.3703 -0.4503
 2816TIP3    H129863   3.671   5.659  17.063  1.1703 -3.4671  0.1095
 2816TIP3    H229864   3.662   5.662  17.214 -2.1147  1.4221 -0.1040
 2817TIP3   OH229865   0.770   5.883   1.797  0.2127  0.2525 -0.0442
 2817TIP3    H129866   0.733   5.825   1.864  0.5328 -0.5270 -0.5348
 2817TIP3    H229867   0.837   5.934   1.844  0.1896 -0.0413  0.3106
 2818TIP3   OH229868   5.934   0.449   1.109  0.5570  0.1418 -0.6510
 2818TIP3    H129869   5.880   0.411   1.040 -0.5061  3.0203 -1.4938
 2818TIP3    H229870   5.954   0.376   1.168 -4.7733 -0.9349  0.0234
 2819TIP3   OH229871   0.025   1.773   2.813 -0.2859 -0.1084  0.2225
 2819TIP3    H129872  -0.034   1.712   2.767 -0.4658  0.0688  0.2205
 2819TIP3    H229873   0.043   1.730   2.896 -0.4714 -0.1308  0.2513
 2820TIP3   OH229874   0.959   4.736  14.152  0.7001 -0.1246 -0.1140
 2820TIP3    H129875   0.960   4.667  14.218  0.0240  0.0514  0.0796
 2820TIP3    H229876   0.979   4.816  14.201 -2.1072  0.3643  0.2919
 2821TIP3   OH229877   6.078   6.453  16.037  0.6040  0.0185  0.2716
 2821TIP3    H129878   6.048   6.493  15.955 -0.2101  0.9159  0.9984
 2821TIP3    H229879   6.172   6.440  16.024  0.6828  1.1817 -0.3880
 2822TIP3   OH229880   1.113   0.837  16.603 -0.0625 -0.8532  0.3831
 2822TIP3    H129881   1.130   0.849  16.696 -0.4839  0.0703  0.3504
 2822TIP3    H229882   1.120   0.924  16.566  1.9420 -1.4803 -0.7815
 2823TIP3   OH229883   3.632   5.215  13.278  0.7144 -0.1857 -0.3312
 2823TIP3    H129884   3.633   5.141  13.217 -1.8084 -1.2756  0.8722
 2823TIP3    H229885   3.720   5.217  13.316  1.2073 -1.7334 -1.3654
 2824TIP3   OH229886   5.004   5.384  10.919  0.2360  0.2741 -0.7387
 2824TIP3    H129887   5.045   5.406  11.003  2.6210  1.8213 -2.2416
 2824TIP3    H229888   4.914   5.362  10.942  0.2356  2.6987  2.0083
 2825TIP3   OH229889   1.178   5.410   3.794  0.0305 -0.0925 -0.1401
 2825TIP3    H129890   1.113   5.364   3.847  1.4228  1.1375  2.7036
 2825TIP3    H229891   1.131   5.486   3.760 -1.0806 -1.2905 -1.3892
 2826TIP3   OH229892   2.456   4.177   5.532 -0.6025 -0.0282 -0.2251
 2826TIP3    H129893   2.516   4.109   5.563  0.1893  0.2882 -1.0330
 2826TIP3    H229894   2.399   4.194   5.607  0.1955 -0.4726  0.5056
 2827TIP3   OH229895   0.052   0.198   4.268 -0.2495  0.2774  0.7465
 2827TIP3    H129896   0.103   0.243   4.200 -0.2187 -1.1157 -0.1547
 2827TIP3    H229897  -0.030   0.174   4.225  0.1922 -1.5452  0.8816
 2828TIP3   OH229898   2.524   5.888   2.254  0.4555 -0.0500 -0.4671
 2828TIP3    H129899   2.434   5.857   2.248  0.1024  0.5978  1.2741
 2828TIP3    H229900   2.517   5.979   2.284  1.6854  0.0565 -0.4517
 2829TIP3   OH229901   1.341   4.959  12.919 -0.1591 -0.9154 -0.4357
 2829TIP3    H129902   1.275   4.920  12.862 -1.2186 -0.3135  0.3565
 2829TIP3    H229903   1.369   4.887  12.975 -0.5678 -1.0532 -0.4004
 2830TIP3   OH229904   0.010   1.002   5.555  0.0145  0.4683 -0.2528
 2830TIP3    H129905  -0.073   0.993   5.602 -0.4559  1.0838 -0.9541
 2830TIP3    H229906   0.029   1.096   5.557  0.8130  0.2964  0.1076
 2831TIP3   OH229907   2.387   1.609   2.307 -0.0029 -0.0382  0.0853
 2831TIP3    H129908   2.443   1.594   2.383  0.5017  0.1872 -0.2332
 2831TIP3    H229909   2.306   1.644   2.343  0.1287 -0.1981  0.5419
 2832TIP3   OH229910   2.808   5.113  16.470 -0.0569 -0.4359 -0.0087
 2832TIP3    H129911   2.766   5.044  16.418  0.6757 -0.6066 -0.3844
 2832TIP3    H229912   2.848   5.171  16.405  1.3198 -0.9397  0.3796
 2833TIP3   OH229913   0.341   1.157  13.073 -0.2073 -0.0726 -0.1816
 2833TIP3    H129914   0.342   1.251  13.056  2.1503 -0.0816 -0.2527
 2833TIP3    H229915   0.377   1.148  13.161  1.1150 -0.9937 -0.7885
 2834TIP3   OH229916   0.677   4.981  13.870 -0.0601  0.2338  0.1344
 2834TIP3    H129917   0.672   4.963  13.964  2.0560  0.5918  0.3311
 2834TIP3    H229918   0.671   4.895  13.828  1.1629 -0.1171  0.6822
 2835TIP3   OH229919   3.315   3.970  15.747  0.0581  0.0165 -0.1750
 2835TIP3    H129920   3.373   3.947  15.675  0.6460 -0.5213  0.4676
 2835TIP3    H229921   3.336   3.908  15.817 -1.7033 -0.5648 -0.1423
 2836TIP3   OH229922   6.095   4.258  14.470  0.1120 -0.4195  0.2390
 2836TIP3    H129923   6.146   4.225  14.396  0.9093 -0.2118  0.6924
 2836TIP3    H229924   6.100   4.189  14.536  0.4744 -0.0699  0.5836
 2837TIP3   OH229925   4.469   5.294   5.114  0.3503 -0.0570  0.4493
 2837TIP3    H129926   4.378   5.293   5.143  0.0745 -0.9826 -0.4216
 2837TIP3    H229927   4.513   5.352   5.176 -0.9997  1.0904  0.3699
 2838TIP3   OH229928   6.541   1.281   2.251  0.5208  0.2713  0.2276
 2838TIP3    H129929   6.558   1.192   2.282 -0.7084 -0.0190  0.0787
 2838TIP3    H229930   6.484   1.319   2.318  2.5534  1.5872  1.2525
 2839TIP3   OH229931   1.140   5.835  12.628  0.1448  0.4012 -0.2216
 2839TIP3    H129932   1.073   5.800  12.686 -0.7557 -0.1655 -1.5838
 2839TIP3    H229933   1.203   5.764  12.616 -0.6428 -0.1118 -1.4021
 2840TIP3   OH229934   3.547   3.441   1.379  0.3168 -0.1083 -0.0625
 2840TIP3    H129935   3.539   3.442   1.284  0.8507 -0.1408 -0.1136
 2840TIP3    H229936   3.600   3.364   1.397 -0.7617 -0.7552  0.3505
 2841TIP3   OH229937   1.313   4.788  14.279 -0.1640  0.1297  0.0362
 2841TIP3    H129938   1.332   4.775  14.186  0.7147  3.1845 -0.2584
 2841TIP3    H229939   1.279   4.877  14.284  0.2417  0.1687  2.7303
 2842TIP3   OH229940   1.588   3.964   0.807  0.7649 -0.1083 -0.1663
 2842TIP3    H129941   1.682   3.980   0.820  0.7142 -0.1635  0.2815
 2842TIP3    H229942   1.573   3.983   0.715  1.8502 -3.2526 -1.0393
 2843TIP3   OH229943   5.235   0.952   4.259  0.3858  0.1255 -0.2754
 2843TIP3    H129944   5.264   0.868   4.295  1.5472 -0.6634 -2.8765
 2843TIP3    H229945   5.171   0.984   4.321  0.4466 -2.3614  1.1504
 2844TIP3   OH229946   2.268   6.025   5.533 -0.1590 -0.0143  0.2547
 2844TIP3    H129947   2.348   6.014   5.481 -0.1584 -2.2170  0.6686
 2844TIP3    H229948   2.223   6.100   5.493 -0.4317 -1.9659 -3.2431
 2845TIP3   OH229949   5.212   0.585   3.163  0.3533  0.2557  0.5697
 2845TIP3    H129950   5.170   0.554   3.243 -2.1924  1.1879 -0.3518
 2845TIP3    H229951   5.213   0.681   3.172  0.1970  0.3518 -0.4359
 2846TIP3   OH229952   5.374   3.578  12.020  0.2591 -0.5404  0.1073
 2846TIP3    H129953   5.411   3.576  12.108 -1.9067 -0.2623  1.0595
 2846TIP3    H229954   5.437   3.628  11.969  0.8273  0.6217  1.8739
 2847TIP3   OH229955   0.285   2.402  11.977  0.4246  0.3163 -0.4330
 2847TIP3    H129956   0.194   2.378  11.959  0.1464  0.6538  0.4992
 2847TIP3    H229957   0.283   2.495  11.996  1.2375  0.7093 -2.1401
 2848TIP3   OH229958   2.030   4.145  15.720 -0.2059 -0.2125 -0.4972
 2848TIP3    H129959   2.059   4.204  15.650 -0.1878 -1.7680 -1.8111
 2848TIP3    H229960   1.935   4.153  15.720 -0.1514  0.5463 -0.0067
 2849TIP3   OH229961   4.460   2.754   2.619  0.3509  0.1165 -0.0392
 2849TIP3    H129962   4.427   2.669   2.590 -0.5789  0.5510 -0.2383
 2849TIP3    H229963   4.513   2.733   2.696  1.4980 -0.8359 -1.0694
 2850TIP3   OH229964   3.842   2.956  14.246  0.4774 -0.9014  0.1583
 2850TIP3    H129965   3.809   2.882  14.296 -0.7903 -0.9025 -0.6745
 2850TIP3    H229966   3.829   2.932  14.154  2.0872 -0.5735 -0.1757
 2851TIP3   OH229967   1.926   5.841  14.942  0.0321  0.2276 -0.3204
 2851TIP3    H129968   1.969   5.852  15.027 -0.5355  2.0888 -0.2480
 2851TIP3    H229969   1.841   5.804  14.963  0.0402  0.3268 -0.1109
 2852TIP3   OH229970   3.462   3.090   1.668  0.4468 -0.4896  0.3974
 2852TIP3    H129971   3.525   3.020   1.653  2.3829  1.0996  0.8653
 2852TIP3    H229972   3.507   3.152   1.725 -1.0260  1.3641 -0.3551
 2853TIP3   OH229973   5.607   6.211   2.099  0.2560 -0.1990 -0.1219
 2853TIP3    H129974   5.656   6.272   2.045  1.7244 -0.8308  0.4662
 2853TIP3    H229975   5.655   6.207   2.181 -0.2753 -1.5093  0.1453
 2854TIP3   OH229976   5.655   3.988   5.084  0.6548 -0.7570  0.4829
 2854TIP3    H129977   5.588   3.921   5.095  1.0680 -0.9431  1.9118
 2854TIP3    H229978   5.719   3.971   5.153  1.9172 -0.2650 -0.5517
 2855TIP3   OH229979   5.177   5.443  12.463  0.3857 -0.1429  0.6048
 2855TIP3    H129980   5.271   5.429  12.450  0.2879  0.3240 -0.7339
 2855TIP3    H229981   5.157   5.400  12.546  2.2040  1.6823  2.0457
 2856TIP3   OH229982   2.637   4.630   6.462 -0.3141  0.2293  0.0059
 2856TIP3    H129983   2.659   4.715   6.500  0.0226 -0.1260  0.6121
 2856TIP3    H229984   2.552   4.608   6.499 -2.0502  1.8927 -2.8220
 2857TIP3   OH229985   0.304   3.717   5.466  0.2499  0.0352  0.0161
 2857TIP3    H129986   0.213   3.692   5.454  0.2984 -0.5123  0.7302
 2857TIP3    H229987   0.350   3.635   5.483  0.7500  0.3851  0.3819
 2858TIP3   OH229988   5.947   1.585  15.521 -0.4141 -0.2449  0.2954
 2858TIP3    H129989   5.981   1.498  15.499  0.0821  0.0725 -0.2163
 2858TIP3    H229990   5.973   1.597  15.612  1.0244  0.0634 -0.1434
 2859TIP3   OH229991   1.010   3.805  14.135 -0.5743 -0.3252 -0.2529
 2859TIP3    H129992   0.955   3.738  14.177  0.0938 -0.7302 -0.0059
 2859TIP3    H229993   0.958   3.885  14.140 -0.6611 -0.4450  1.0355
 2860TIP3   OH229994   1.164   1.036  14.598  0.8384  0.5270 -0.2545
 2860TIP3    H129995   1.247   1.026  14.552  0.1585 -1.7353 -1.0623
 2860TIP3    H229996   1.158   0.959  14.655  0.9737  2.5286  2.5866
 2861TIP3   OH229997   0.326   5.527  16.357 -0.4027  0.6942  0.2290
 2861TIP3    H129998   0.337   5.613  16.317 -0.4421  0.8901  0.6424
 2861TIP3    H229999   0.292   5.472  16.286  0.1167  0.8895 -0.1658
 2862TIP3   OH230000   0.007   2.246  16.875 -0.6371 -0.3450 -0.4313
 2862TIP3    H130001  -0.018   2.206  16.791 -0.8650 -3.3272  0.9915
 2862TIP3    H230002  -0.066   2.304  16.897 -0.6085  0.4128 -2.2336
 2863TIP3   OH230003   1.922   2.186   5.067  0.0367 -0.3208  0.0503
 2863TIP3    H130004   1.893   2.242   5.139 -0.9573  0.2252 -0.7518
 2863TIP3    H230005   1.841   2.164   5.020  0.6030 -1.1507 -0.5548
 2864TIP3   OH230006   5.841   5.688  15.911 -0.2002  0.5834  0.5992
 2864TIP3    H130007   5.824   5.622  15.844  3.9446  0.5366 -0.5352
 2864TIP3    H230008   5.876   5.639  15.985  1.0310  1.2968  0.4989
 2865TIP3   OH230009   5.722   2.992   1.296  0.0875 -0.5863  0.5164
 2865TIP3    H130010   5.715   3.062   1.361  0.8927 -1.0887  1.1476
 2865TIP3    H230011   5.716   3.037   1.211 -0.0953  0.1606  0.9245
 2866TIP3   OH230012   2.542   2.254   3.230 -0.1163  0.1819  0.3878
 2866TIP3    H130013   2.488   2.281   3.156 -0.6297 -1.0033  0.3169
 2866TIP3    H230014   2.632   2.268   3.200 -0.3069 -0.8491 -0.6945
 2867TIP3   OH230015   3.334   6.136  11.268 -0.5102 -0.1412  0.3063
 2867TIP3    H130016   3.318   6.164  11.177 -0.1554 -0.6169  0.0929
 2867TIP3    H230017   3.248   6.135  11.309 -0.8952 -1.6268 -0.5186
 2868TIP3   OH230018   1.391   6.192  14.034  0.3136  0.1745 -0.3415
 2868TIP3    H130019   1.399   6.253  14.108 -0.9737 -0.1124  0.0329
 2868TIP3    H230020   1.476   6.198  13.990  1.2780 -0.0217  1.4352
 2869TIP3   OH230021   4.319   4.017  14.690 -0.3467  0.1298  0.4781
 2869TIP3    H130022   4.373   4.052  14.761  0.0216  0.1881  0.1711
 2869TIP3    H230023   4.234   4.058  14.701 -0.2695  0.1870  0.8498
 2870TIP3   OH230024   2.106   4.052   0.389  0.1254 -0.3640  0.3243
 2870TIP3    H130025   2.166   3.999   0.441  1.7846 -0.1921 -1.3687
 2870TIP3    H230026   2.112   4.015   0.301 -0.0797  1.4665 -0.4818
 2871TIP3   OH230027   3.814   1.411   2.061  0.2144 -0.4418  0.3586
 2871TIP3    H130028   3.789   1.503   2.070 -1.0478 -0.5916 -1.3849
 2871TIP3    H230029   3.746   1.364   2.110 -1.4036 -0.6638 -2.0063
 2872TIP3   OH230030   2.309   6.322  15.426 -0.5638 -0.6964 -0.1009
 2872TIP3    H130031   2.242   6.262  15.394 -1.4417 -0.1878  0.7450
 2872TIP3    H230032   2.309   6.309  15.521 -0.2700  0.1242  0.0148
 2873TIP3   OH230033   4.081   6.538  11.171 -0.1677 -0.0668  0.0592
 2873TIP3    H130034   4.118   6.535  11.083  0.7946  0.1423  0.4498
 2873TIP3    H230035   4.062   6.631  11.185  1.6047  0.1849  0.8541
 2874TIP3   OH230036   4.765   5.001  15.983  0.3687 -0.4261 -0.2187
 2874TIP3    H130037   4.718   5.045  16.055  0.6215 -0.4760 -0.0207
 2874TIP3    H230038   4.806   4.926  16.025  2.2792  0.7209  0.0366
 2875TIP3   OH230039   4.978   1.059  13.521  0.3440  0.2204  0.0028
 2875TIP3    H130040   4.928   1.131  13.557 -0.1274  0.7795 -1.7129
 2875TIP3    H230041   4.942   1.046  13.433  0.1717 -2.3355  0.3974
 2876TIP3   OH230042   3.078   3.011   2.789 -0.4063 -0.5780  0.2098
 2876TIP3    H130043   3.152   2.986   2.734  0.0477 -0.8151  0.9238
 2876TIP3    H230044   3.006   2.956   2.759 -1.0654  1.5424 -2.3362
 2877TIP3   OH230045   6.352   2.624  15.950 -0.7219 -0.2805  0.2081
 2877TIP3    H130046   6.326   2.584  15.867  1.2247 -0.5713 -0.2802
 2877TIP3    H230047   6.428   2.678  15.929 -1.5165  1.3733  1.4139
 2878TIP3   OH230048   3.022   0.845   5.291  0.0906  0.0130  0.4958
 2878TIP3    H130049   3.073   0.792   5.231 -1.9789 -2.3957  0.8129
 2878TIP3    H230050   2.989   0.784   5.356  1.2953  2.3709  3.4847
 2879TIP3   OH230051   3.633   2.483  14.611 -0.0114  0.3078 -0.0419
 2879TIP3    H130052   3.551   2.520  14.644 -0.6017 -0.8679 -0.1636
 2879TIP3    H230053   3.626   2.489  14.516 -1.1168 -2.1453 -0.1671
 2880TIP3   OH230054   3.802   0.183  15.971  0.2045  0.1080 -0.6104
 2880TIP3    H130055   3.845   0.230  16.043 -1.5000  2.2210 -0.9119
 2880TIP3    H230056   3.783   0.097  16.008  1.5258  0.3386  0.6705
 2881TIP3   OH230057   0.036   1.338   5.200  0.2014 -0.1190  0.5207
 2881TIP3    H130058  -0.053   1.333   5.235  0.6851 -0.2221  1.8025
 2881TIP3    H230059   0.049   1.255   5.155 -0.0970 -0.4130  0.9726
 2882TIP3   OH230060   3.299   6.335   6.477  0.0009 -0.4172  0.1075
 2882TIP3    H130061   3.355   6.322   6.401  0.7286 -2.2287  0.9094
 2882TIP3    H230062   3.210   6.325   6.444  0.2987 -0.8846 -0.5694
 2883TIP3   OH230063   2.964   1.618   0.383 -0.0846 -0.2502 -0.4266
 2883TIP3    H130064   2.895   1.625   0.317  0.0801  3.2083 -0.3480
 2883TIP3    H230065   2.927   1.660   0.460  1.3287 -0.3080  0.2947
 2884TIP3   OH230066   2.863   2.703   6.142 -0.1335  0.1385 -0.0449
 2884TIP3    H130067   2.956   2.693   6.165 -0.6688 -1.4827  1.5933
 2884TIP3    H230068   2.822   2.732   6.223 -1.5255 -2.1675  0.1243
 2885TIP3   OH230069   5.200   6.302  13.093 -0.0487  0.0299  0.5030
 2885TIP3    H130070   5.142   6.365  13.135 -1.5347 -0.9278 -0.0606
 2885TIP3    H230071   5.257   6.272  13.163 -1.7356 -0.6795  1.6150
 2886TIP3   OH230072   1.878   2.541   2.188 -0.0258 -0.0425 -0.1691
 2886TIP3    H130073   1.820   2.525   2.263 -0.6285  0.8010 -0.4515
 2886TIP3    H230074   1.845   2.622   2.149  0.4530 -0.3302 -1.1855
 2887TIP3   OH230075   4.376   6.033   1.736 -0.2147 -0.3909  0.1353
 2887TIP3    H130076   4.447   6.069   1.788 -0.6850 -0.8412  1.1115
 2887TIP3    H230077   4.313   6.105   1.728  0.9167  0.3885 -1.7983
 2888TIP3   OH230078   4.156   3.755   0.149  0.0462 -0.2206 -0.2385
 2888TIP3    H130079   4.160   3.738   0.243 -1.7306  1.4875  0.1868
 2888TIP3    H230080   4.171   3.849   0.141  0.7266 -0.4398 -1.7186
 2889TIP3   OH230081   6.721   3.932  13.619  0.2850 -0.5525  0.0484
 2889TIP3    H130082   6.754   3.846  13.593 -0.4071 -0.8257  0.0582
 2889TIP3    H230083   6.748   3.990  13.549  0.6254 -0.8085 -0.0346
 2890TIP3   OH230084   0.879   2.677   0.142  0.1776  0.6187 -0.1894
 2890TIP3    H130085   0.881   2.601   0.199 -0.4161  1.8992  1.6092
 2890TIP3    H230086   0.955   2.667   0.085  1.1827 -0.3525  1.2926
 2891TIP3   OH230087   6.701   1.001  16.106 -0.2268  0.1783 -0.3620
 2891TIP3    H130088   6.621   1.052  16.116 -0.0630  0.5694 -1.0579
 2891TIP3    H230089   6.758   1.030  16.177 -0.6478 -0.0086  0.0583
 2892TIP3   OH230090   3.023   3.443   4.613  0.1674 -0.2980 -0.0691
 2892TIP3    H130091   3.058   3.422   4.527 -1.7729 -1.6582 -0.5441
 2892TIP3    H230092   3.016   3.539   4.614 -0.2834 -0.3144 -1.6021
 2893TIP3   OH230093   6.701   6.763   5.868  0.2535  0.5476  0.2420
 2893TIP3    H130094   6.757   6.698   5.911  1.9999  2.0168  0.2678
 2893TIP3    H230095   6.763   6.824   5.827 -1.3592  1.5812 -0.6999
 2894TIP3   OH230096   0.946   2.731  16.978 -0.2409  0.1755  0.4421
 2894TIP3    H130097   0.898   2.655  16.944 -1.3973  0.2027  1.9826
 2894TIP3    H230098   1.023   2.737  16.922 -1.0356 -1.0653 -0.8220
 2895TIP3   OH230099   1.072   4.633   2.343 -0.6465 -0.1104 -0.0089
 2895TIP3    H130100   1.149   4.653   2.290 -0.3842 -2.5573 -0.5859
 2895TIP3    H230101   1.015   4.709   2.331  1.3653  1.4300 -0.1127
 2896TIP3   OH230102   4.616   2.214   2.968 -1.0423  0.6238 -0.4698
 2896TIP3    H130103   4.532   2.248   2.940 -1.4804 -1.6005 -1.9502
 2896TIP3    H230104   4.676   2.236   2.896 -0.5062  1.4890  0.2221
 2897TIP3   OH230105   4.790   1.052   2.638 -0.0404 -0.1777 -0.3975
 2897TIP3    H130106   4.793   1.048   2.733 -0.1809 -1.6279 -0.4407
 2897TIP3    H230107   4.712   1.103   2.618  0.2659  0.5465  0.2695
 2898TIP3   OH230108   1.011   2.888  11.683  0.0418  0.1418  0.2475
 2898TIP3    H130109   0.930   2.888  11.630  1.4412  1.2998 -1.9949
 2898TIP3    H230110   0.982   2.864  11.771 -2.6986  0.1477 -0.5929
 2899TIP3   OH230111   0.660   2.218   2.216 -0.1051  0.2294 -0.5396
 2899TIP3    H130112   0.746   2.245   2.183  0.1634  0.2351  0.1535
 2899TIP3    H230113   0.666   2.122   2.219  0.0703  0.2571  0.0243
 2900TIP3   OH230114   3.339   2.573   0.215 -0.5633 -0.1461 -0.4056
 2900TIP3    H130115   3.335   2.587   0.310  1.8121 -3.3526  0.2108
 2900TIP3    H230116   3.378   2.654   0.181  0.5355  0.1930  1.5762
 2901TIP3   OH230117   0.378   2.192   4.388 -0.3485  0.4053  0.1997
 2901TIP3    H130118   0.419   2.254   4.327 -2.0508 -0.7729 -2.2230
 2901TIP3    H230119   0.380   2.109   4.341  0.3458 -1.0497  2.7211
 2902TIP3   OH230120   3.226   5.071  14.543 -0.5435 -0.1485 -0.4558
 2902TIP3    H130121   3.263   5.070  14.455  0.4810 -0.5162 -0.0252
 2902TIP3    H230122   3.194   5.161  14.554 -0.9899 -0.1913 -1.3179
 2903TIP3   OH230123   4.408   5.241   0.246 -0.4793 -0.3709  0.1420
 2903TIP3    H130124   4.373   5.277   0.164 -0.2002 -1.4938 -0.4789
 2903TIP3    H230125   4.503   5.246   0.235 -0.4425 -0.4533  0.4374
 2904TIP3   OH230126   2.656   1.453  16.120  0.1420 -0.3842  0.3253
 2904TIP3    H130127   2.653   1.440  16.025 -3.0774  0.6088  0.2068
 2904TIP3    H230128   2.577   1.409  16.152 -0.0333  1.2380  2.2380
 2905TIP3   OH230129   0.920   4.185  11.918 -0.1645  0.0018  0.2197
 2905TIP3    H130130   0.882   4.133  11.989  0.3222 -0.5819  0.0541
 2905TIP3    H230131   0.941   4.269  11.959  2.1339 -1.0612  1.3355
 2906TIP3   OH230132   5.823   1.086  16.414  0.0273  0.2684 -0.4256
 2906TIP3    H130133   5.779   1.007  16.444  1.7516 -0.1132  1.1475
 2906TIP3    H230134   5.790   1.155  16.472 -0.1678  0.3989 -0.6880
 2907TIP3   OH230135   6.727   2.269  14.790 -0.0240  0.1286 -0.3314
 2907TIP3    H130136   6.639   2.306  14.788  0.2651  0.9445  1.1760
 2907TIP3    H230137   6.714   2.176  14.776 -0.9904  0.4465 -1.6399
 2908TIP3   OH230138   2.506   2.936   1.336 -0.5748 -0.2857 -0.3489
 2908TIP3    H130139   2.469   3.011   1.289  1.5292  1.6126  0.9696
 2908TIP3    H230140   2.559   2.890   1.270 -2.9853 -1.4864 -1.5314
 2909TIP3   OH230141   0.422   6.472   1.013  0.4296 -0.4111 -0.2231
 2909TIP3    H130142   0.364   6.509   1.080  0.4755  0.8511 -0.8726
 2909TIP3    H230143   0.491   6.428   1.063  0.1432  0.0140  0.5583
 2910TIP3   OH230144   0.126   4.451   5.276  0.1066  0.5125 -0.3844
 2910TIP3    H130145   0.095   4.517   5.338  0.4691  0.6394 -0.3381
 2910TIP3    H230146   0.159   4.501   5.201 -0.2689  0.3636 -0.6558
 2911TIP3   OH230147   0.003   0.939  15.542  0.4730  0.1938  0.0692
 2911TIP3    H130148   0.035   0.854  15.573 -0.2874 -0.6012 -1.2866
 2911TIP3    H230149   0.039   0.947  15.453 -1.4014  0.2120 -0.7049
 2912TIP3   OH230150   4.715   4.349   3.872 -0.1668 -0.1952 -0.2811
 2912TIP3    H130151   4.760   4.319   3.951  0.3301  0.2306 -0.3939
 2912TIP3    H230152   4.782   4.400   3.825 -0.4100 -0.5739 -1.0445
 2913TIP3   OH230153   2.558   3.282  13.793  0.0921  0.5685  0.3982
 2913TIP3    H130154   2.612   3.334  13.733 -0.9178 -0.5700 -1.5660
 2913TIP3    H230155   2.592   3.193  13.783 -0.7032  0.2186  0.8080
 2914TIP3   OH230156   5.792   0.957  14.386 -0.4028  0.3012  0.8804
 2914TIP3    H130157   5.805   1.052  14.381 -2.1802  0.5119 -0.1990
 2914TIP3    H230158   5.704   0.947  14.422 -0.9762 -0.9090 -0.8153
 2915TIP3   OH230159   3.292   0.111   5.581  0.4650 -0.1443  0.3547
 2915TIP3    H130160   3.205   0.072   5.574  0.1783  0.3233  1.3958
 2915TIP3    H230161   3.315   0.134   5.490 -0.7535  0.3232  0.1630
 2916TIP3   OH230162   3.037   1.221  10.968 -0.4416 -1.2248 -0.1434
 2916TIP3    H130163   3.105   1.244  11.032 -0.5059 -0.9863 -0.1596
 2916TIP3    H230164   3.080   1.228  10.883 -0.5633 -0.7842 -0.1734
 2917TIP3   OH230165   1.161   2.588  16.145 -0.4209  0.2419  0.1608
 2917TIP3    H130166   1.102   2.516  16.167  0.4142 -0.9264 -1.4128
 2917TIP3    H230167   1.247   2.560  16.175 -0.2386  0.9431  0.3062
 2918TIP3   OH230168   4.821   2.357  14.653  0.0226  0.1183  0.6684
 2918TIP3    H130169   4.820   2.444  14.695 -2.3378  0.8289 -0.7894
 2918TIP3    H230170   4.904   2.355  14.605 -0.4596  2.0841 -0.2983
 2919TIP3   OH230171   5.907   0.913  13.451 -0.2775 -0.0770  0.1813
 2919TIP3    H130172   5.870   0.838  13.406  1.3325 -0.0864 -1.1957
 2919TIP3    H230173   5.893   0.986  13.391  0.7647  0.1535  0.2083
 2920TIP3   OH230174   3.971   4.988   4.293  0.6372  0.7568 -0.3291
 2920TIP3    H130175   3.969   4.902   4.250  0.1811  0.8182 -0.4418
 2920TIP3    H230176   4.063   5.006   4.308  0.6612 -0.4020  0.9896
 2921TIP3   OH230177   2.071   1.589  15.624 -0.3437 -0.1976  0.2594
 2921TIP3    H130178   2.084   1.494  15.620  1.1565 -0.1393  2.8510
 2921TIP3    H230179   2.150   1.626  15.585 -1.5593  0.0355 -2.1126
 2922TIP3   OH230180   4.867   6.186  13.500  0.4692 -1.0637  0.2426
 2922TIP3    H130181   4.845   6.150  13.586  0.4477 -1.7976 -0.0668
 2922TIP3    H230182   4.956   6.156  13.484  0.0825 -1.8473 -0.4666
 2923TIP3   OH230183   3.584   1.824  11.162 -0.0764  0.4916 -0.7706
 2923TIP3    H130184   3.672   1.852  11.187  0.4298 -0.4749 -1.4657
 2923TIP3    H230185   3.548   1.898  11.113  0.4102  0.8241 -0.6241
 2924TIP3   OH230186   5.579   6.518  16.510 -0.0138 -0.1102 -0.7467
 2924TIP3    H130187   5.527   6.459  16.455 -0.8537  0.0730 -0.1481
 2924TIP3    H230188   5.565   6.486  16.599  1.3605 -0.4162 -0.6228
 2925TIP3   OH230189   4.589   3.279   2.871 -0.5322  0.5102 -0.4587
 2925TIP3    H130190   4.659   3.298   2.934  0.5908 -1.2254 -1.1503
 2925TIP3    H230191   4.509   3.309   2.915  0.6690  2.9605  0.1584
 2926TIP3   OH230192   1.153   0.364  17.214  0.9024 -0.5735 -0.2594
 2926TIP3    H130193   1.068   0.388  17.177  1.3942  0.1870 -0.9129
 2926TIP3    H230194   1.154   0.406  17.301  0.9620  0.1438 -0.6054
 2927TIP3   OH230195   4.309   4.382   5.967 -0.3230 -0.3686 -0.2873
 2927TIP3    H130196   4.307   4.472   6.000 -0.3545 -0.5245  0.1451
 2927TIP3    H230197   4.330   4.391   5.874  0.9993  0.0100  0.0338
 2928TIP3   OH230198   0.363   0.424  11.968  0.0572  0.0367 -0.3313
 2928TIP3    H130199   0.336   0.514  11.951 -0.6394 -0.1445 -0.2020
 2928TIP3    H230200   0.395   0.425  12.058 -0.8464 -0.0428 -0.0040
 2929TIP3   OH230201   6.019   3.300   0.996  0.2033  1.0661  0.2839
 2929TIP3    H130202   6.093   3.322   1.053 -0.9860 -0.2876  2.3884
 2929TIP3    H230203   5.990   3.214   1.025 -1.1282  0.8085 -1.6766
 2930TIP3   OH230204   1.799   2.941  16.702 -0.5239  0.0283  0.1607
 2930TIP3    H130205   1.861   3.003  16.739 -1.1133  1.2109 -0.8085
 2930TIP3    H230206   1.852   2.865  16.679  0.6130  1.1279 -0.8806
 2931TIP3   OH230207   5.123   5.637  11.678  0.1303 -0.1152  0.5901
 2931TIP3    H130208   5.124   5.569  11.611  0.9034  1.6422 -1.2650
 2931TIP3    H230209   5.209   5.630  11.721  0.7008  0.4269 -0.4227
 2932TIP3   OH230210   3.009   2.999  15.701 -0.2174 -0.2680 -0.6307
 2932TIP3    H130211   2.916   3.011  15.685 -0.4017  1.4000  1.4255
 2932TIP3    H230212   3.013   2.927  15.764 -0.3539  1.4785  1.4504
 2933TIP3   OH230213   6.291   2.498   2.696  0.5019  0.0232  0.4729
 2933TIP3    H130214   6.293   2.493   2.600  0.2011  0.8887  0.4189
 2933TIP3    H230215   6.204   2.465   2.719 -0.0305  1.3190  0.3477
 2934TIP3   OH230216   5.607   4.192  12.488  0.0108  0.4111  0.0831
 2934TIP3    H130217   5.551   4.232  12.421  0.0063  2.0600  1.0417
 2934TIP3    H230218   5.673   4.259  12.508  2.0434 -1.3325 -0.6662
 2935TIP3   OH230219   1.659   0.514   4.515 -0.5362  0.0746 -0.0370
 2935TIP3    H130220   1.722   0.587   4.514  1.3519 -1.5185 -0.6905
 2935TIP3    H230221   1.619   0.518   4.602  0.6620  0.9600  0.4925
 2936TIP3   OH230222   5.562   2.114   1.902 -0.0973  0.2961 -0.6692
 2936TIP3    H130223   5.512   2.168   1.842 -3.1551 -1.0264  0.5636
 2936TIP3    H230224   5.576   2.170   1.979  0.1395  0.6060 -0.9391
 2937TIP3   OH230225   0.801   2.049   5.083  0.0238 -0.2496 -0.1914
 2937TIP3    H130226   0.827   2.112   5.016  0.8567 -1.1879 -0.7450
 2937TIP3    H230227   0.723   2.007   5.047  0.4097 -0.6796 -0.5145
 2938TIP3   OH230228   2.960   1.040  17.051 -0.6044 -0.0713 -0.0741
 2938TIP3    H130229   2.910   1.083  16.981 -0.2613 -0.8922 -0.8483
 2938TIP3    H230230   3.008   1.110  17.093 -1.1326  0.4968 -0.4069
 2939TIP3   OH230231   3.382   0.778   4.747 -0.1259 -0.2663  0.7232
 2939TIP3    H130232   3.346   0.764   4.659  1.6670 -0.4176 -0.0086
 2939TIP3    H230233   3.306   0.805   4.800 -1.0167  1.0304 -1.1556
 2940TIP3   OH230234   1.891   3.927  11.427  0.2748  0.2112 -0.2167
 2940TIP3    H130235   1.977   3.932  11.468  0.6085 -0.4472 -0.8270
 2940TIP3    H230236   1.903   3.967  11.341 -0.3111  1.1731  0.1437
 2941TIP3   OH230237   1.667   3.136   5.327  0.3558  0.3351 -0.3683
 2941TIP3    H130238   1.578   3.103   5.311 -1.3661  4.1559  0.8147
 2941TIP3    H230239   1.702   3.152   5.239 -0.5334 -0.1139 -0.8196
 2942TIP3   OH230240   2.475   0.932  16.430  0.4060  0.3408 -0.4810
 2942TIP3    H130241   2.533   0.866  16.392 -0.9605 -1.0433 -0.2117
 2942TIP3    H230242   2.422   0.963  16.357 -0.7769 -0.8080 -0.1385
 2943TIP3   OH230243   6.198   6.154   1.938 -0.0778 -0.6710  0.1331
 2943TIP3    H130244   6.211   6.070   1.895  2.0608 -0.0315 -0.5469
 2943TIP3    H230245   6.210   6.137   2.031 -1.0094 -1.3530  0.1350
 2944TIP3   OH230246   0.118   1.443  11.364 -0.3443  0.2189  0.3995
 2944TIP3    H130247   0.182   1.380  11.395  1.2027  1.5208 -0.0461
 2944TIP3    H230248   0.135   1.452  11.270  0.7569  2.6680  0.7748
 2945TIP3   OH230249   3.940   5.920  13.080  0.1816  0.6145  0.9196
 2945TIP3    H130250   3.895   5.976  13.016  1.1724  0.7008  0.2965
 2945TIP3    H230251   3.871   5.894  13.141 -0.8168  0.3901 -0.2807
 2946TIP3   OH230252   0.046   5.160  14.048  0.3602  0.0609  0.4426
 2946TIP3    H130253   0.036   5.227  13.981 -0.1515  0.4444  0.8985
 2946TIP3    H230254   0.090   5.088  14.004  1.6771  1.0185  0.1678
 2947TIP3   OH230255   5.996   5.417  16.975 -0.0744 -0.1232  0.0576
 2947TIP3    H130256   5.972   5.464  17.054  0.2013 -0.8046  0.5498
 2947TIP3    H230257   5.954   5.331  16.983  0.7360 -0.5430 -0.0758
 2948TIP3   OH230258   4.824   2.746  15.200 -0.3399  0.3221 -0.4193
 2948TIP3    H130259   4.817   2.753  15.295 -2.4345  0.7432 -0.5697
 2948TIP3    H230260   4.787   2.828  15.167  1.6625  0.7897 -1.5725
 2949TIP3   OH230261   2.610   5.654  12.714  0.1089 -0.2463 -0.6512
 2949TIP3    H130262   2.539   5.715  12.734  0.0821 -0.6873  0.6470
 2949TIP3    H230263   2.661   5.649  12.795  1.7916  0.2790 -1.6531
 2950TIP3   OH230264   6.765   0.369   2.617 -0.3159 -0.0094 -0.1108
 2950TIP3    H130265   6.784   0.440   2.555  2.3783 -0.3189  0.3064
 2950TIP3    H230266   6.766   0.411   2.703 -2.2686  0.0735 -0.0923
 2951TIP3   OH230267   3.964   2.147   6.052  0.2353  0.0692  0.3530
 2951TIP3    H130268   4.041   2.096   6.079 -0.3021 -0.3197  1.1794
 2951TIP3    H230269   3.957   2.216   6.118 -1.4391 -1.2448  1.6030
 2952TIP3   OH230270   0.138   1.081  13.946  0.1636  0.3859  0.2054
 2952TIP3    H130271   0.105   1.131  13.871 -0.1008 -1.1796 -0.7672
 2952TIP3    H230272   0.095   1.120  14.022 -0.7897  0.9980 -0.6328
 2953TIP3   OH230273   6.725   6.118  12.248 -0.5558 -0.1225  0.1481
 2953TIP3    H130274   6.758   6.038  12.288 -0.1172  0.4899  1.0266
 2953TIP3    H230275   6.650   6.142  12.302  1.1428  1.7180  1.7620
 2954TIP3   OH230276   1.882   2.398  16.270  0.0595 -0.1141 -0.2637
 2954TIP3    H130277   1.795   2.438  16.269  0.0080 -0.2405 -1.1333
 2954TIP3    H230278   1.905   2.392  16.363 -1.0624 -0.5224 -0.0064
 2955TIP3   OH230279   2.766   1.516  16.974  1.0352  0.2810  0.0393
 2955TIP3    H130280   2.707   1.450  17.011  0.3199  1.4304  1.0265
 2955TIP3    H230281   2.732   1.533  16.886 -0.5187  1.3872  0.8319
 2956TIP3   OH230282   2.448   2.638  13.359 -0.1767  0.3156  0.3040
 2956TIP3    H130283   2.495   2.672  13.282 -0.5642 -3.0608 -1.5104
 2956TIP3    H230284   2.517   2.613  13.420  0.1566  1.8520  0.5939
 2957TIP3   OH230285   1.059   1.831  16.506  0.4431  0.4947  0.5812
 2957TIP3    H130286   1.128   1.770  16.480  1.1864  1.8268 -0.6716
 2957TIP3    H230287   1.087   1.864  16.591  0.2417 -0.5826  1.0777
 2958TIP3   OH230288   5.713   6.428  13.365  0.1868  0.0479 -0.0345
 2958TIP3    H130289   5.697   6.504  13.310 -1.8255 -0.0454  0.3886
 2958TIP3    H230290   5.738   6.464  13.450  0.7660  0.2089 -0.2683
 2959TIP3   OH230291   4.607   5.334  12.771 -0.1250  0.0530  0.6242
 2959TIP3    H130292   4.695   5.368  12.790  0.4916 -1.0740 -0.1932
 2959TIP3    H230293   4.605   5.325  12.676 -0.7897 -0.8220  0.7180
 2960TIP3   OH230294   5.901   0.282   5.320 -0.1748 -0.4551  0.2436
 2960TIP3    H130295   5.866   0.194   5.335  0.4397 -0.7053  0.2207
 2960TIP3    H230296   5.943   0.305   5.403 -2.2250  0.7070  0.9832
 2961TIP3   OH230297   5.597   1.366   4.805 -0.1587 -0.3427 -0.1697
 2961TIP3    H130298   5.569   1.423   4.876  0.7720 -0.2754  0.1577
 2961TIP3    H230299   5.521   1.312   4.784 -0.7010  0.2531  0.2742
 2962TIP3   OH230300   1.657   3.458  16.642 -0.0684  0.1868 -0.0221
 2962TIP3    H130301   1.684   3.542  16.607  2.3371 -0.5404  0.0353
 2962TIP3    H230302   1.600   3.421  16.574 -0.6018  1.5594 -0.3285
 2963TIP3   OH230303   4.555   0.366  11.623  0.0217 -0.8776 -0.2745
 2963TIP3    H130304   4.646   0.342  11.640 -0.1541 -3.1395 -2.2104
 2963TIP3    H230305   4.504   0.293  11.657 -0.9981 -0.1742 -0.2692
 2964TIP3   OH230306   6.181   1.875   6.630  0.1632 -0.3167 -0.2216
 2964TIP3    H130307   6.107   1.843   6.681  0.1676 -0.3872 -0.2580
 2964TIP3    H230308   6.153   1.959   6.595  0.1106 -0.3303 -0.2120
 2965TIP3   OH230309   5.138   2.054   2.613 -0.0259 -0.4186 -0.4579
 2965TIP3    H130310   5.045   2.035   2.628  0.3950 -1.1821  1.2714
 2965TIP3    H230311   5.146   2.060   2.517 -1.5366 -2.0710 -0.7148
 2966TIP3   OH230312   3.769   6.306   1.184  0.1394  0.5514 -0.5594
 2966TIP3    H130313   3.708   6.248   1.230  1.3806  0.6228  1.2244
 2966TIP3    H230314   3.808   6.251   1.117  0.4630 -0.3889  0.3785
 2967TIP3   OH230315   1.171   3.193  11.697 -0.5119 -0.0446 -0.1958
 2967TIP3    H130316   1.205   3.133  11.764  0.8413 -0.0839 -0.8938
 2967TIP3    H230317   1.130   3.136  11.633  0.3998 -0.2111 -0.6453
 2968TIP3   OH230318   5.329   0.040   1.153  0.2175 -0.2298 -0.5446
 2968TIP3    H130319   5.378   0.115   1.120 -1.1340  0.2771 -1.4362
 2968TIP3    H230320   5.384   0.005   1.223  1.2577  1.0831 -0.6763
 2969TIP3   OH230321   2.153   6.625  10.894  0.1582 -0.2148  0.2277
 2969TIP3    H130322   2.243   6.596  10.879  0.1192 -0.6920  0.9219
 2969TIP3    H230323   2.124   6.660  10.809  0.3351 -1.8402 -0.5086
 2970TIP3   OH230324   1.388   2.228   0.408 -0.0867  0.7781  0.0887
 2970TIP3    H130325   1.361   2.266   0.492 -1.0928  0.5262 -0.1087
 2970TIP3    H230326   1.378   2.134   0.421 -2.3165  0.8354 -0.9884
 2971TIP3   OH230327   0.094   6.773   3.055 -0.0086 -0.0517  0.3384
 2971TIP3    H130328   0.108   6.739   3.143  0.0933  0.0915  0.3764
 2971TIP3    H230329   0.028   6.714   3.017 -1.0176  0.6533  0.9567
 2972TIP3   OH230330   6.070   0.732  15.596 -0.4012 -0.6593  0.0495
 2972TIP3    H130331   6.046   0.676  15.670 -1.8023 -0.2706 -0.0936
 2972TIP3    H230332   6.151   0.775  15.624 -0.5250 -1.0760  1.0634
 2973TIP3   OH230333   1.642   3.797   0.561  0.3705  0.3593  0.5380
 2973TIP3    H130334   1.620   3.737   0.490  1.2017  0.1642  0.4431
 2973TIP3    H230335   1.665   3.879   0.518  0.1076  0.4819  0.6263
 2974TIP3   OH230336   0.390   1.978   1.822 -0.4714 -0.4827  0.5256
 2974TIP3    H130337   0.443   1.994   1.900 -2.1208 -3.6014  2.3689
 2974TIP3    H230338   0.402   1.885   1.802 -1.2939 -0.0955 -2.0595
 2975TIP3   OH230339   0.810   1.486   2.195 -0.3227 -0.2088  0.1730
 2975TIP3    H130340   0.828   1.570   2.151  1.6532  0.6321  2.4932
 2975TIP3    H230341   0.757   1.510   2.271 -0.2065 -1.1329  0.5512
 2976TIP3   OH230342   1.977   3.017  14.266 -0.0617 -0.2320 -0.1310
 2976TIP3    H130343   1.885   3.019  14.292 -0.1326  0.6689 -0.4298
 2976TIP3    H230344   2.011   3.103  14.292  0.4436 -0.1910 -0.9006
 2977TIP3   OH230345   3.367   1.523  12.680  0.1588 -0.1975 -0.3244
 2977TIP3    H130346   3.313   1.599  12.660  1.9646  1.2800  0.2561
 2977TIP3    H230347   3.422   1.551  12.754  0.3989 -2.2719  0.3137
 2978TIP3   OH230348   2.586   1.900   0.164  0.3785 -0.5589 -0.0014
 2978TIP3    H130349   2.508   1.907   0.221 -0.1459 -0.0441 -0.7728
 2978TIP3    H230350   2.587   1.808   0.137  0.7422 -0.8558  0.9927
 2979TIP3   OH230351   3.534   1.554  16.827 -0.1736  0.0348  0.5875
 2979TIP3    H130352   3.482   1.480  16.858 -2.3905 -0.2324 -3.3927
 2979TIP3    H230353   3.616   1.516  16.798  0.6468 -0.1330  3.0401
 2980TIP3   OH230354   6.422   3.236  13.479 -0.5022  0.3025  0.4182
 2980TIP3    H130355   6.421   3.266  13.570  0.8810  0.4476  0.3854
 2980TIP3    H230356   6.454   3.146  13.483  0.0585  0.4801  0.0291
 2981TIP3   OH230357   6.288   1.843   3.023 -0.5322 -0.1109 -0.4672
 2981TIP3    H130358   6.323   1.771   2.971  1.1625 -1.9507  2.9883
 2981TIP3    H230359   6.362   1.902   3.037 -1.1655  0.7785 -0.8278
 2982TIP3   OH230360   5.643   0.582  12.763  0.2811  0.3780 -0.1268
 2982TIP3    H130361   5.563   0.622  12.797 -0.0604  1.1160 -1.7419
 2982TIP3    H230362   5.648   0.498  12.808 -0.5923  0.9703  1.1085
 2983TIP3   OH230363   3.034   3.413   6.277 -0.2830 -0.2717  0.1291
 2983TIP3    H130364   3.008   3.503   6.299 -1.4165 -0.3433 -0.8649
 2983TIP3    H230365   3.094   3.423   6.203  0.0845 -0.2996  0.4210
 2984TIP3   OH230366   3.670   0.171   5.130 -0.3604 -0.1942  0.2763
 2984TIP3    H130367   3.703   0.242   5.075  0.3290 -0.9924 -0.3583
 2984TIP3    H230368   3.747   0.119   5.152 -1.1941 -2.2762 -1.5192
 2985TIP3   OH230369   4.562   1.681  11.171 -0.6487  0.0566 -1.1963
 2985TIP3    H130370   4.628   1.750  11.178 -1.3216  0.7803 -1.9632
 2985TIP3    H230371   4.603   1.614  11.117 -0.3077  0.2296 -1.1533
 2986TIP3   OH230372   5.660   6.739  14.541 -0.4882 -0.8884  0.2110
 2986TIP3    H130373   5.728   6.780  14.489 -0.7737  0.7678  1.1134
 2986TIP3    H230374   5.707   6.688  14.607 -0.0946  0.2293  0.8180
 2987TIP3   OH230375   5.121   3.771   0.407 -0.3500  0.3908  0.3924
 2987TIP3    H130376   5.151   3.820   0.483 -0.0066 -1.1934  1.2931
 2987TIP3    H230377   5.028   3.756   0.423 -0.5105  0.9579 -0.0013
 2988TIP3   OH230378   5.141   2.404  13.819  0.0120  0.1331 -0.5440
 2988TIP3    H130379   5.197   2.395  13.896 -1.4739 -0.1905  0.5133
 2988TIP3    H230380   5.183   2.350  13.752 -0.2064 -1.8671  0.8982
 2989TIP3   OH230381   6.578   0.788   1.363  0.1709 -0.1730  0.3497
 2989TIP3    H130382   6.595   0.872   1.406  0.6834 -0.1060  0.0161
 2989TIP3    H230383   6.663   0.762   1.327  0.5214 -1.8647  2.2697
 2990TIP3   OH230384   0.835   4.438   4.638 -0.1936  0.1705  0.1668
 2990TIP3    H130385   0.920   4.395   4.626  0.8177  2.2864 -0.4829
 2990TIP3    H230386   0.794   4.390   4.711  0.8963 -1.8329 -0.4868
 2991TIP3   OH230387   3.242   1.619   1.395  0.3002  0.6371  0.1472
 2991TIP3    H130388   3.245   1.714   1.408 -0.5618  0.8298 -0.9606
 2991TIP3    H230389   3.209   1.608   1.306 -0.5488 -0.7189  0.6131
 2992TIP3   OH230390   4.460   0.044  11.075 -0.3535  0.2388  0.4636
 2992TIP3    H130391   4.483  -0.047  11.056 -1.1663  0.2630 -0.6502
 2992TIP3    H230392   4.440   0.044  11.169 -0.4093 -0.7361  0.4610
 2993TIP3   OH230393   5.959   0.438   0.589 -0.0434 -0.4599  0.5077
 2993TIP3    H130394   6.000   0.352   0.576  1.2952  0.4859 -1.6752
 2993TIP3    H230395   6.033   0.497   0.606 -0.6669  0.8448 -1.2060
 2994TIP3   OH230396   6.141   4.539   4.444  0.3642  0.2389  0.3854
 2994TIP3    H130397   6.171   4.497   4.363  1.6714  1.1054  0.4115
 2994TIP3    H230398   6.058   4.496   4.463 -0.0532  0.1336 -1.5251
 2995TIP3   OH230399   5.177   2.801  10.659  0.0496  0.3147 -0.0272
 2995TIP3    H130400   5.215   2.871  10.606 -1.5147  1.9355  0.9042
 2995TIP3    H230401   5.159   2.842  10.743 -1.9036 -0.9082  0.1979
 2996TIP3   OH230402   0.524   0.600   1.064 -0.6217 -0.3804 -0.6655
 2996TIP3    H130403   0.606   0.590   1.111 -0.9924  0.5079  0.2084
 2996TIP3    H230404   0.537   0.677   1.009 -0.3476 -1.1463 -1.6787
 2997TIP3   OH230405   3.581   3.784  11.789  0.3144 -0.3055  0.1791
 2997TIP3    H130406   3.540   3.818  11.709 -0.6646 -1.6820  0.0961
 2997TIP3    H230407   3.674   3.774  11.765  0.7178  2.5647  0.2925
 2998TIP3   OH230408   2.986   6.566  15.039 -0.6206  0.6610 -0.0431
 2998TIP3    H130409   2.993   6.624  15.115  1.7592 -0.2850  0.5097
 2998TIP3    H230410   3.072   6.569  14.998 -0.9069 -1.3391 -0.8501
 2999TIP3   OH230411   2.472   1.551  12.987  0.1698  0.0087 -0.0716
 2999TIP3    H130412   2.454   1.491  13.060 -2.7709 -1.0593 -1.6150
 2999TIP3    H230413   2.470   1.496  12.909  2.2991  1.3184 -1.1145
 3000TIP3   OH230414   2.449   3.898  15.827 -0.9739 -0.1800 -0.2559
 3000TIP3    H130415   2.453   3.862  15.915  0.8849 -0.1816 -0.3276
 3000TIP3    H230416   2.355   3.912  15.811 -1.3649 -0.7177  1.4825
 3001TIP3   OH230417   6.322   6.133   2.885  0.2084  0.1252 -0.3394
 3001TIP3    H130418   6.258   6.201   2.861  0.9156  0.6559 -0.7369
 3001TIP3    H230419   6.387   6.135   2.814  1.2178  0.3033  0.5848
 3002TIP3   OH230420   5.664   1.460   1.831 -0.4425 -0.1873 -0.3547
 3002TIP3    H130421   5.591   1.459   1.770  0.9873  0.5427 -2.0940
 3002TIP3    H230422   5.719   1.385   1.805 -0.0979 -0.1954  0.3720
 3003TIP3   OH230423   0.592   5.984  16.417 -0.2484 -0.5035 -0.0750
 3003TIP3    H130424   0.553   6.070  16.436 -1.3475 -1.1828  0.8577
 3003TIP3    H230425   0.519   5.923  16.426  0.9048 -1.7516  1.0720
 3004TIP3   OH230426   3.748   5.354  16.221 -0.2054  0.0080 -0.3151
 3004TIP3    H130427   3.812   5.360  16.150 -2.2875 -1.0623 -2.3784
 3004TIP3    H230428   3.728   5.260  16.227 -0.6028  0.1716  1.2102
 3005TIP3   OH230429   4.513   1.286  14.212  0.2712 -0.1113 -0.0911
 3005TIP3    H130430   4.455   1.348  14.167 -0.5347  0.6451  1.9178
 3005TIP3    H230431   4.470   1.271  14.296  2.3528 -0.5440  0.9134
 3006TIP3   OH230432   1.381   5.149  17.087 -0.2924  0.4406 -0.0403
 3006TIP3    H130433   1.410   5.231  17.127 -0.5319 -0.1269  1.3141
 3006TIP3    H230434   1.462   5.102  17.067 -0.0985  1.7090 -2.3515
 3007TIP3   OH230435   4.488   2.990   0.158 -0.2090 -0.1870 -0.9518
 3007TIP3    H130436   4.486   2.937   0.079 -0.6870 -0.1469 -0.9719
 3007TIP3    H230437   4.521   3.075   0.129  0.1821 -0.3540 -0.9940
 3008TIP3   OH230438   3.377   5.771  12.340 -0.4461 -0.3250  0.0868
 3008TIP3    H130439   3.382   5.676  12.348 -2.2972 -0.6410 -1.8900
 3008TIP3    H230440   3.284   5.791  12.353 -0.5212  0.9133 -2.1681
 3009TIP3   OH230441   5.089   3.177  17.190 -0.0501  0.6987  0.3793
 3009TIP3    H130442   5.005   3.131  17.190  0.2042  0.2315 -0.1957
 3009TIP3    H230443   5.079   3.244  17.259 -0.0223 -0.9482  2.0218
 3010TIP3   OH230444   6.723   0.192  14.824  0.1837  0.6680 -0.2515
 3010TIP3    H130445   6.749   0.166  14.736 -0.3431  0.2612 -0.2855
 3010TIP3    H230446   6.793   0.251  14.853  0.2033  1.0528 -1.0609
 3011TIP3   OH230447   5.819   4.244   1.221  0.2243  0.7900  0.0419
 3011TIP3    H130448   5.861   4.234   1.306 -1.3786  1.2288  0.8910
 3011TIP3    H230449   5.748   4.306   1.235  0.1000  1.0774 -1.6777
 3012TIP3   OH230450   2.012   6.105   4.411  0.5533  0.0834 -0.6698
 3012TIP3    H130451   1.983   6.156   4.335  1.0555  0.4636 -0.6111
 3012TIP3    H230452   2.099   6.074   4.387  0.5464 -0.1334 -0.4130
 3013TIP3   OH230453   2.140   5.622  13.107  0.5989 -0.0580  0.0273
 3013TIP3    H130454   2.184   5.573  13.177 -0.0359  0.3629  0.7250
 3013TIP3    H230455   2.128   5.710  13.142  0.3336  0.1778 -0.6358
 3014TIP3   OH230456   5.205   2.310   3.572 -0.6213  0.3274  0.8066
 3014TIP3    H130457   5.218   2.221   3.604 -2.2398 -0.5138 -0.7699
 3014TIP3    H230458   5.293   2.343   3.555 -0.0017 -0.9190  1.5139
 3015TIP3   OH230459   4.081   2.427  13.200 -0.3811  0.2479 -0.4790
 3015TIP3    H130460   4.078   2.493  13.131 -0.5458  0.5111 -0.2224
 3015TIP3    H230461   4.165   2.440  13.243 -0.5065  0.4420 -0.2853
 3016TIP3   OH230462   3.844   1.322  16.175 -0.7754  0.6385  0.2574
 3016TIP3    H130463   3.814   1.413  16.170 -0.5668  0.7035  0.2162
 3016TIP3    H230464   3.930   1.327  16.215 -1.3096  0.3477  1.4603
 3017TIP3   OH230465   5.045   6.449  16.995  0.2846  0.1548 -0.0457
 3017TIP3    H130466   5.020   6.522  17.051 -1.4109  0.7351 -1.5043
 3017TIP3    H230467   5.140   6.446  17.000  0.2611  1.4059  1.3369
 3018TIP3   OH230468   2.401   1.787  15.183 -0.1838  0.0411  0.4684
 3018TIP3    H130469   2.329   1.734  15.218  1.1397 -1.5741  0.7934
 3018TIP3    H230470   2.371   1.813  15.096 -1.3152 -0.2961  0.7413
 3019TIP3   OH230471   3.308   1.580  11.570 -0.1679 -0.6921 -0.1016
 3019TIP3    H130472   3.309   1.627  11.486  0.3802 -0.2266  0.1622
 3019TIP3    H230473   3.236   1.620  11.619 -0.2341 -0.6959 -0.1953
 3020TIP3   OH230474   2.059   2.536  14.207  0.2415  0.1548  0.5092
 3020TIP3    H130475   2.058   2.548  14.112 -0.7115  0.6028  0.5704
 3020TIP3    H230476   2.038   2.443  14.220  0.5112  0.0617  0.2766
 3021TIP3   OH230477   3.757   5.552   2.022 -0.5579 -0.2980 -0.2206
 3021TIP3    H130478   3.722   5.526   1.936 -1.6655 -1.6072  0.6079
 3021TIP3    H230479   3.839   5.598   2.001  0.2898 -2.4561 -1.8921
 3022TIP3   OH230480   3.549   6.770   5.897  0.3467  0.2780 -0.3484
 3022TIP3    H130481   3.508   6.850   5.864 -0.5291  0.8040  1.9204
 3022TIP3    H230482   3.643   6.788   5.893  0.2503  0.4900 -2.0728
 3023TIP3   OH230483   1.978   5.802   4.483 -0.7333 -0.4447  0.0870
 3023TIP3    H130484   1.971   5.897   4.474  1.7369 -0.3286 -0.7533
 3023TIP3    H230485   1.941   5.783   4.570  0.9626  1.5286  1.2635
 3024TIP3   OH230486   0.955   1.173   4.971  0.1348 -0.6002 -0.0020
 3024TIP3    H130487   0.939   1.210   4.884  2.2262  0.5277  0.0713
 3024TIP3    H230488   0.872   1.184   5.017 -0.8320 -0.7232 -1.6705
 3025TIP3   OH230489   4.699   5.985   4.151 -0.2907 -0.2180  0.3643
 3025TIP3    H130490   4.739   6.018   4.070 -0.4815 -0.6694  0.0853
 3025TIP3    H230491   4.609   5.962   4.126  0.1078 -1.8141  0.3320
 3026TIP3   OH230492   3.329   4.779   2.295  1.1147 -0.0130  0.4146
 3026TIP3    H130493   3.269   4.710   2.322 -0.0503  0.7696 -0.1312
 3026TIP3    H230494   3.369   4.746   2.214  1.9398 -0.8251  1.1444
 3027TIP3   OH230495   3.715   2.623   3.894  0.0518  0.1742  0.2537
 3027TIP3    H130496   3.651   2.671   3.947 -1.5219  0.5119 -1.8713
 3027TIP3    H230497   3.665   2.593   3.818  1.8913 -1.6264 -0.2887
 3028TIP3   OH230498   3.848   0.338   0.023 -0.5883 -0.2780 -0.3037
 3028TIP3    H130499   3.930   0.347  -0.026 -0.4496  0.3001  0.0297
 3028TIP3    H230500   3.789   0.402  -0.017 -0.9854 -0.9332 -0.7615
 3029TIP3   OH230501   6.758   6.569  16.937 -0.0247 -0.2843 -0.3360
 3029TIP3    H130502   6.667   6.559  16.910  0.2282 -0.5210 -1.1038
 3029TIP3    H230503   6.807   6.572  16.855  0.4130  2.3239 -0.0325
 3030TIP3   OH230504   1.708   1.492  12.501 -0.0108 -0.0142  0.8499
 3030TIP3    H130505   1.643   1.441  12.453 -2.1825  2.0032  1.5209
 3030TIP3    H230506   1.728   1.566  12.444  0.8992 -0.0763  1.0919
 3031TIP3   OH230507   6.634   0.159   2.945 -0.2011 -0.3220 -0.1162
 3031TIP3    H130508   6.667   0.190   3.029 -0.6350 -0.2260  0.0228
 3031TIP3    H230509   6.605   0.238   2.900 -0.2046 -0.3994 -0.2496
 3032TIP3   OH230510   3.425   2.623   1.088  0.7019  0.3056  0.1351
 3032TIP3    H130511   3.420   2.621   0.992 -0.6986 -0.6445  0.2025
 3032TIP3    H230512   3.420   2.716   1.110  0.9953  0.5280 -0.7093
 3033TIP3   OH230513   3.317   2.394   4.888 -0.3192 -0.9669  0.5715
 3033TIP3    H130514   3.399   2.430   4.856 -1.2499  0.6486 -0.0655
 3033TIP3    H230515   3.342   2.333   4.957  1.4700 -1.4005 -0.4350
 3034TIP3   OH230516   4.680   2.890   5.903 -0.4280  0.4068  0.0634
 3034TIP3    H130517   4.756   2.849   5.944 -0.8154 -0.8954 -0.4925
 3034TIP3    H230518   4.618   2.904   5.975 -0.6102 -0.7255  0.1378
 3035TIP3   OH230519   4.941   1.313  16.962 -0.5729 -0.3792 -0.6240
 3035TIP3    H130520   4.892   1.243  17.006  2.4372 -0.0920  3.5169
 3035TIP3    H230521   5.012   1.267  16.917 -0.7665 -0.2772 -1.0345
 3036TIP3   OH230522   0.615   0.573   5.020  0.2778  0.5345  0.5629
 3036TIP3    H130523   0.702   0.537   5.002  0.6606  1.5393  0.3750
 3036TIP3    H230524   0.617   0.661   4.982 -1.1909  0.1745 -0.4182
 3037TIP3   OH230525   4.149   5.277  16.380  0.4974  0.1824 -0.4832
 3037TIP3    H130526   4.206   5.215  16.334  1.4158 -0.1121  1.0050
 3037TIP3    H230527   4.116   5.227  16.455  0.6941  1.2874  0.3389
 3038TIP3   OH230528   0.366   2.363  12.736 -0.6414  0.1515 -0.0912
 3038TIP3    H130529   0.401   2.312  12.809  0.8013  0.6288 -0.4400
 3038TIP3    H230530   0.273   2.341  12.735 -1.3615  2.4298  3.8205
 3039TIP3   OH230531   0.675   1.335   6.155  0.1422 -0.3874  0.0301
 3039TIP3    H130532   0.673   1.393   6.231  2.1131  0.1779 -0.3380
 3039TIP3    H230533   0.616   1.263   6.180  1.1667 -0.4919  2.3283
 3040TIP3   OH230534   4.466   2.957   5.671  0.3087  0.1578 -0.3827
 3040TIP3    H130535   4.505   3.042   5.690  0.2810 -0.0763  0.7796
 3040TIP3    H230536   4.538   2.906   5.633  0.7656  0.2029  0.3906
 3041TIP3   OH230537   6.287   1.600  10.908  0.3057 -0.7879 -0.7347
 3041TIP3    H130538   6.353   1.667  10.892 -0.3278 -0.2977 -1.2807
 3041TIP3    H230539   6.214   1.646  10.948  0.0370 -1.2256 -0.7117
 3042TIP3   OH230540   3.186   4.770  12.849 -0.4893  0.3483  0.7571
 3042TIP3    H130541   3.112   4.770  12.789 -0.0212  0.5384  0.1785
 3042TIP3    H230542   3.197   4.678  12.875 -1.2227  0.3896  1.2125
 3043TIP3   OH230543   1.796   5.486   4.161 -0.3458 -0.6953  0.1915
 3043TIP3    H130544   1.740   5.513   4.234 -0.3993  3.3457 -1.2395
 3043TIP3    H230545   1.738   5.438   4.102 -1.3125 -0.1898  0.7255
 3044TIP3   OH230546   2.328   2.812   1.046  0.1634  0.2918  0.1500
 3044TIP3    H130547   2.252   2.860   1.078  0.4156  0.2996  0.7401
 3044TIP3    H230548   2.396   2.878   1.037  0.4982  0.0561  0.9233
 3045TIP3   OH230549   4.030   3.865   1.292 -0.1743 -0.7284  0.0106
 3045TIP3    H130550   3.975   3.923   1.345 -1.0507 -0.7624 -0.8557
 3045TIP3    H230551   3.985   3.780   1.295  1.0649 -1.3731  1.2161
 3046TIP3   OH230552   2.823   1.995  15.456  0.2409 -0.0759 -0.3352
 3046TIP3    H130553   2.727   1.995  15.456  0.2235  0.3603 -1.7589
 3046TIP3    H230554   2.848   2.080  15.491  0.1291 -0.7785  1.4693
 3047TIP3   OH230555   6.033   4.634   5.424 -0.2897 -0.2115  0.4065
 3047TIP3    H130556   5.958   4.685   5.393  0.4174  0.6017 -0.0006
 3047TIP3    H230557   6.103   4.698   5.432  0.7414 -1.1993 -0.5682
 3048TIP3   OH230558   6.650   1.304  11.713  0.1836 -0.5463 -0.1791
 3048TIP3    H130559   6.584   1.319  11.781  1.7603 -2.1130  1.7750
 3048TIP3    H230560   6.660   1.209  11.710 -0.0023 -0.5211 -2.8002
 3049TIP3   OH230561   1.064   6.146  12.766  0.5845 -0.2601 -0.0416
 3049TIP3    H130562   0.995   6.083  12.784 -0.0906  0.6693  0.6784
 3049TIP3    H230563   1.046   6.176  12.677  1.1557 -1.3788 -0.5424
 3050TIP3   OH230564   2.462   0.514  17.043 -0.0481 -0.0247  0.0822
 3050TIP3    H130565   2.400   0.560  16.986  0.3237  0.5070  0.1045
 3050TIP3    H230566   2.495   0.442  16.988 -0.2758  0.0168 -0.1123
 3051TIP3   OH230567   0.531   5.005   3.747 -0.4317 -0.0055  0.1789
 3051TIP3    H130568   0.543   5.080   3.805 -0.5693  1.0178 -1.0841
 3051TIP3    H230569   0.620   4.980   3.721 -0.4389  0.3724 -0.2105
 3052TIP3   OH230570   5.549   3.798   1.255 -0.2275 -0.3338 -0.3582
 3052TIP3    H130571   5.494   3.842   1.190 -1.9172 -0.3898  0.9924
 3052TIP3    H230572   5.623   3.857   1.268 -1.5025  1.2201  0.0216
 3053TIP3   OH230573   0.508   0.261  16.074  0.3354  0.3242  0.0643
 3053TIP3    H130574   0.578   0.273  16.011  1.4256 -0.9631  1.0034
 3053TIP3    H230575   0.437   0.220  16.025  1.5584 -1.6354 -0.1227
 3054TIP3   OH230576   1.407   5.025  12.517  0.5633  1.1062 -0.3989
 3054TIP3    H130577   1.337   5.002  12.579  0.8888  0.6552 -0.1965
 3054TIP3    H230578   1.462   5.087  12.566  0.3555  1.3934 -0.5289
 3055TIP3   OH230579   6.786   1.609   0.452 -0.0515  0.0881  0.2876
 3055TIP3    H130580   6.782   1.567   0.366 -0.2139  1.0799 -0.1858
 3055TIP3    H230581   6.874   1.646   0.457 -0.2056  0.4392  0.3666
 3056TIP3   OH230582   1.838   6.502   2.322  0.9620  0.1116 -0.3731
 3056TIP3    H130583   1.814   6.458   2.240  1.3538 -0.7939 -0.0143
 3056TIP3    H230584   1.764   6.484   2.380  0.8784  0.3934 -0.3910
 3057TIP3   OH230585   0.170   0.295   2.070 -0.0969 -0.7270 -0.5008
 3057TIP3    H130586   0.132   0.297   1.983  0.0920 -1.0233 -0.5910
 3057TIP3    H230587   0.264   0.279   2.056 -0.1329 -1.2070 -0.2295
 3058TIP3   OH230588   1.815   2.044   0.218  0.0395 -0.9347 -0.3676
 3058TIP3    H130589   1.731   2.079   0.188 -0.2457 -1.1903  0.1355
 3058TIP3    H230590   1.880   2.089   0.163 -0.4785 -1.4259 -1.3983
 3059TIP3   OH230591   3.863   3.503  11.443  0.3330  0.5095 -0.3600
 3059TIP3    H130592   3.827   3.515  11.355  0.3924  1.1544 -0.2982
 3059TIP3    H230593   3.946   3.552  11.442  1.1600 -0.8583 -0.4664
 3060TIP3   OH230594   6.120   5.167  16.857  0.6079  0.1517 -0.2769
 3060TIP3    H130595   6.101   5.074  16.845  0.4497  0.0719  0.5817
 3060TIP3    H230596   6.039   5.211  16.833  0.0830 -0.0481  1.0910
 3061TIP3   OH230597   2.690   1.604  13.696  0.5004 -0.4139  0.1787
 3061TIP3    H130598   2.712   1.610  13.603 -1.6791 -1.7816 -0.4656
 3061TIP3    H230599   2.681   1.510  13.712  0.3523 -0.1498  1.6552
 3062TIP3   OH230600   0.629   1.707   0.854 -0.2886  0.1162  0.6257
 3062TIP3    H130601   0.667   1.644   0.915  4.7536  1.1833 -1.1129
 3062TIP3    H230602   0.651   1.672   0.767  0.0298  2.7127 -0.4038
 3063TIP3   OH230603   1.184   5.938   0.193 -0.2829 -0.1204 -0.0988
 3063TIP3    H130604   1.246   5.871   0.163  1.2339  1.3478 -0.3241
 3063TIP3    H230605   1.156   5.982   0.112  1.1884  1.5919  0.2763
 3064TIP3   OH230606   6.617   1.565   4.504 -0.7882 -0.4267  0.0892
 3064TIP3    H130607   6.674   1.609   4.441 -1.0179  2.7663  1.9571
 3064TIP3    H230608   6.677   1.535   4.573 -0.9579 -0.2606  0.3113
 3065TIP3   OH230609   4.491   4.323   2.799 -0.2043 -0.5158  0.1823
 3065TIP3    H130610   4.513   4.416   2.787 -0.7702 -0.3615  0.3273
 3065TIP3    H230611   4.511   4.306   2.891 -2.2048  0.0500  0.7423
 3066TIP3   OH230612   3.374   4.600  14.091 -0.3184  0.0477 -0.3216
 3066TIP3    H130613   3.462   4.614  14.127  0.2412 -1.1396 -1.1751
 3066TIP3    H230614   3.357   4.677  14.037  0.1144  0.3889  0.0285
 3067TIP3   OH230615   2.857   1.133  14.946  0.2454 -0.1760  0.4136
 3067TIP3    H130616   2.861   1.127  14.851 -0.1656  0.5536  0.3467
 3067TIP3    H230617   2.914   1.207  14.968  1.0288 -0.8903  0.8073
 3068TIP3   OH230618   6.500   1.931   3.353  0.0505 -0.4664 -0.6020
 3068TIP3    H130619   6.543   1.891   3.428  0.4400 -1.1252 -1.1661
 3068TIP3    H230620   6.445   2.001   3.390  0.0842 -0.9195  0.2995
 3069TIP3   OH230621   5.470   1.902  10.800  0.4599 -0.9815 -0.0864
 3069TIP3    H130622   5.512   1.843  10.738  0.8064 -0.0322 -0.7662
 3069TIP3    H230623   5.380   1.872  10.806  0.7031 -1.7320 -0.2396
 3070TIP3   OH230624   0.017   2.747   3.451  1.2108 -0.5430  0.1117
 3070TIP3    H130625  -0.017   2.812   3.512  1.3415 -0.0553 -0.3303
 3070TIP3    H230626  -0.038   2.758   3.373  1.9361 -0.2197 -0.3583
 3071TIP3   OH230627   6.170   0.447   0.974  0.0199  0.2898 -0.4136
 3071TIP3    H130628   6.093   0.406   1.015  0.9289 -0.6522  0.3829
 3071TIP3    H230629   6.245   0.411   1.023  0.9416  1.5092 -0.9164
 3072TIP3   OH230630   0.026   1.975   4.731 -0.0400  0.1066 -0.3344
 3072TIP3    H130631  -0.023   1.893   4.737  3.0609 -1.8710 -1.1559
 3072TIP3    H230632   0.063   1.975   4.643 -1.8066  3.5237 -1.1793
 3073TIP3   OH230633   4.381   4.307  11.950 -0.1815  0.3088  0.4576
 3073TIP3    H130634   4.382   4.310  12.045 -0.2932  0.5158  0.4509
 3073TIP3    H230635   4.379   4.213  11.929 -3.1451  0.2801  0.6695
 3074TIP3   OH230636   5.098   1.140   2.438  0.4963 -0.0102 -0.6169
 3074TIP3    H130637   5.077   1.167   2.527  0.5274 -1.4048 -0.1765
 3074TIP3    H230638   5.185   1.175   2.421  0.8859 -0.5458  0.2533
 3075TIP3   OH230639   4.095   1.752   3.626  0.6798  0.6902 -1.0926
 3075TIP3    H130640   4.020   1.812   3.625 -0.2919 -0.4991 -0.7512
 3075TIP3    H230641   4.171   1.810   3.634 -0.2988  1.8407  0.3679
 3076TIP3   OH230642   4.530   5.804  16.786 -0.5584 -0.2037 -0.1247
 3076TIP3    H130643   4.464   5.794  16.717 -2.9381 -1.7392  2.3127
 3076TIP3    H230644   4.483   5.847  16.858  1.4889 -0.0279  1.1431
 3077TIP3   OH230645   1.087   4.703   6.075 -0.2631 -0.0259 -0.0253
 3077TIP3    H130646   1.151   4.684   6.006 -0.2991 -3.3505  0.7706
 3077TIP3    H230647   1.135   4.693   6.156 -1.2492 -0.3300  0.5285
 3078TIP3   OH230648   5.677   3.240   2.633 -0.0304 -0.0638 -0.0042
 3078TIP3    H130649   5.585   3.259   2.646  0.3824  1.0034  1.3930
 3078TIP3    H230650   5.711   3.314   2.582  0.4568  0.4529  1.0671
 3079TIP3   OH230651   5.135   6.414  16.688 -0.2495  0.5693  0.8560
 3079TIP3    H130652   5.206   6.443  16.630  0.3162 -1.3181  0.5657
 3079TIP3    H230653   5.178   6.389  16.769 -0.1703 -3.2788 -0.2789
 3080TIP3   OH230654   0.767   2.797  11.532 -0.5010  0.0750 -0.5704
 3080TIP3    H130655   0.704   2.812  11.603 -1.9802 -0.4062 -1.7616
 3080TIP3    H230656   0.713   2.790  11.454  1.1005  0.2693 -1.7050
 3081TIP3   OH230657   1.317   0.639  16.555 -0.1628 -0.5612  0.0570
 3081TIP3    H130658   1.383   0.708  16.560  0.6907 -1.4211  0.9313
 3081TIP3    H230659   1.233   0.686  16.553  0.4260  0.5076  0.0610
 3082TIP3   OH230660   1.672   1.792  11.340 -0.3277  0.0979  0.7889
 3082TIP3    H130661   1.720   1.780  11.422 -1.7053  0.4192  1.6568
 3082TIP3    H230662   1.585   1.755  11.357 -1.2114  1.7846  0.0828
 3083TIP3   OH230663   3.010   1.866  14.461 -0.7371 -0.4133  0.6622
 3083TIP3    H130664   2.994   1.920  14.538 -0.1259  0.7829 -0.0325
 3083TIP3    H230665   2.996   1.926  14.387 -0.5554 -1.3395 -0.1318
 3084TIP3   OH230666   5.234   5.523   3.998  0.2907  0.2118  0.0817
 3084TIP3    H130667   5.167   5.522   4.068  2.0695 -1.9859  1.8050
 3084TIP3    H230668   5.265   5.614   3.998 -1.4556  0.8427  0.4497
 3085TIP3   OH230669   1.496   6.598  12.411  0.2014 -0.0807 -0.3305
 3085TIP3    H130670   1.564   6.572  12.349  0.0348 -1.4025  0.0447
 3085TIP3    H230671   1.416   6.560  12.377  0.1117 -0.8578  0.7113
 3086TIP3   OH230672   3.815   6.566   3.584 -0.3922 -0.2510 -0.5303
 3086TIP3    H130673   3.744   6.502   3.579 -0.0685 -0.5787 -0.9833
 3086TIP3    H230674   3.788   6.626   3.654 -1.0910 -0.3980 -0.6634
 3087TIP3   OH230675   1.951   4.388  13.441  0.1486 -0.3935  0.4109
 3087TIP3    H130676   1.996   4.326  13.499 -0.9468  0.0064  1.7005
 3087TIP3    H230677   2.021   4.423  13.385  1.2559 -0.6295  1.6203
 3088TIP3   OH230678   3.818   5.658   0.912  0.7674  0.0946  0.2009
 3088TIP3    H130679   3.728   5.657   0.879  0.1081 -2.6639  1.9089
 3088TIP3    H230680   3.872   5.647   0.834 -0.3275  2.2936 -0.9007
 3089TIP3   OH230681   1.579   1.927   4.119  0.0882  0.0388 -0.2627
 3089TIP3    H130682   1.554   1.960   4.032  1.1764 -0.6346 -0.8315
 3089TIP3    H230683   1.673   1.912   4.114  0.4428  1.4361  1.5213
 3090TIP3   OH230684   0.954   4.419  12.062  0.7601 -0.0224 -0.2083
 3090TIP3    H130685   1.026   4.481  12.051  0.6874  0.0919 -0.0545
 3090TIP3    H230686   0.918   4.440  12.149  2.0785 -1.6920  0.7625
 3091TIP3   OH230687   2.089   4.952   2.553 -0.1709  0.2303 -0.6692
 3091TIP3    H130688   2.044   4.959   2.470 -1.7491 -0.7902  0.0786
 3091TIP3    H230689   2.023   4.973   2.619  1.0121  0.8762  0.3296
 3092TIP3   OH230690   1.878   0.367  13.436 -0.5316 -0.0793  0.4863
 3092TIP3    H130691   1.795   0.415  13.431 -0.5843  0.0741  2.5134
 3092TIP3    H230692   1.861   0.296  13.498  0.7396 -0.3293  0.5670
 3093TIP3   OH230693   5.190   4.440  16.906  0.1645  0.0646  0.0424
 3093TIP3    H130694   5.116   4.395  16.946 -1.4279  0.5226 -2.2351
 3093TIP3    H230695   5.247   4.370  16.875  0.1288 -0.3234  0.8603
 3094TIP3   OH230696   2.407   3.008   2.849  0.4250 -0.1163 -0.1549
 3094TIP3    H130697   2.366   3.067   2.912  1.4520 -0.1772  0.5727
 3094TIP3    H230698   2.440   3.066   2.781 -0.6737 -0.0509 -0.6513
 3095TIP3   OH230699   4.355   5.088   2.115 -0.2679  0.0908 -0.5800
 3095TIP3    H130700   4.412   5.043   2.053 -0.4545  0.4966 -1.0394
 3095TIP3    H230701   4.387   5.178   2.116 -1.8243  0.6692 -1.9294
 3096TIP3   OH230702   5.933   0.786  16.812  0.2628  0.2024  0.1347
 3096TIP3    H130703   5.998   0.822  16.872  0.4259  0.6799 -0.3273
 3096TIP3    H230704   5.849   0.800  16.857  0.1905  2.4439 -0.6669
 3097TIP3   OH230705   1.164   6.057  17.190 -0.2195  0.2654  1.0565
 3097TIP3    H130706   1.246   6.035  17.147  1.1834  1.7054  2.9008
 3097TIP3    H230707   1.139   6.142  17.152 -0.3451  0.3015  1.2193
 3098TIP3   OH230708   5.905   5.081  11.659 -0.5051  0.3136  0.0112
 3098TIP3    H130709   5.917   4.986  11.667 -0.5748  0.0572 -2.5280
 3098TIP3    H230710   5.992   5.115  11.641 -0.4299  0.7861  1.2288
 3099TIP3   OH230711   0.696   1.037  14.694  0.6172  0.0373 -0.3075
 3099TIP3    H130712   0.762   1.095  14.732 -0.5769 -0.7714  3.1978
 3099TIP3    H230713   0.743   0.991  14.624  2.9851  1.5073  0.2466
 3100TIP3   OH230714   0.241   4.232   2.689  0.0564 -0.2004  0.0002
 3100TIP3    H130715   0.162   4.233   2.635 -0.5313 -2.7908  0.7168
 3100TIP3    H230716   0.209   4.226   2.779  1.0660  0.8908  0.4539
 3101TIP3   OH230717   5.991   1.620   2.329 -0.2260 -0.5211 -0.0237
 3101TIP3    H130718   5.997   1.592   2.238  0.8908 -0.8559  0.1473
 3101TIP3    H230719   5.897   1.631   2.345 -0.4571 -1.0390 -1.0331
 3102TIP3   OH230720   6.040   4.495  14.581  0.2325  0.2762 -0.0067
 3102TIP3    H130721   6.052   4.409  14.539  0.9334  0.4310 -0.1313
 3102TIP3    H230722   5.948   4.496  14.607  0.6595 -1.2513  1.6418
 3103TIP3   OH230723   5.919   5.712   3.647 -0.1114  0.8155  0.0607
 3103TIP3    H130724   5.936   5.804   3.626  0.1241  1.1713  1.7223
 3103TIP3    H230725   5.863   5.681   3.576  1.7218  1.5791 -1.7981
 3104TIP3   OH230726   2.711   5.106   2.099 -0.1270  0.1619  0.1906
 3104TIP3    H130727   2.689   5.118   2.007 -2.2079  1.4157  0.8081
 3104TIP3    H230728   2.780   5.040   2.099 -0.7796 -0.5668 -2.1811
 3105TIP3   OH230729   0.566   3.593  16.728 -0.5008 -0.1165  0.2975
 3105TIP3    H130730   0.646   3.591  16.677 -0.9125 -0.0215 -0.3638
 3105TIP3    H230731   0.521   3.673  16.699 -1.1535 -0.5286  0.1719
 3106TIP3   OH230732   4.610   0.278  12.623  0.0537  0.4360 -0.4171
 3106TIP3    H130733   4.676   0.346  12.610  1.0234 -0.5688 -0.8121
 3106TIP3    H230734   4.656   0.209  12.671 -0.5364 -0.5431 -1.2479
 3107TIP3   OH230735   5.028   1.556   3.424 -0.0437 -0.5741  0.1417
 3107TIP3    H130736   5.099   1.516   3.476 -1.5909 -0.1040  2.7111
 3107TIP3    H230737   4.961   1.487   3.419 -0.9926  0.2663  1.0404
 3108TIP3   OH230738   0.376   5.200   2.738  0.3602 -0.1633  0.4789
 3108TIP3    H130739   0.466   5.198   2.707  0.1521 -0.8963 -0.0866
 3108TIP3    H230740   0.366   5.120   2.789 -0.5277 -1.0592 -1.0621
 3109TIP3   OH230741   4.153   6.293  14.601 -0.0240  0.7196 -0.1830
 3109TIP3    H130742   4.140   6.311  14.508  0.9767  1.3291 -0.2025
 3109TIP3    H230743   4.098   6.215  14.617  0.0715  0.3910 -1.3545
 3110TIP3   OH230744   3.410   0.223  16.641  0.0894  0.1949 -0.1578
 3110TIP3    H130745   3.467   0.173  16.699 -2.1648 -1.2904  0.8259
 3110TIP3    H230746   3.373   0.291  16.697  1.6211  1.7934 -1.0316
 3111TIP3   OH230747   3.556   3.188   2.646 -0.1302 -0.0043 -0.2257
 3111TIP3    H130748   3.502   3.211   2.723 -1.1771 -2.0509 -0.3158
 3111TIP3    H230749   3.495   3.191   2.573  0.8267  1.7385 -0.9878
 3112TIP3   OH230750   1.177   5.246   6.668 -0.2805  0.1363  0.4170
 3112TIP3    H130751   1.264   5.273   6.638 -0.4790  0.8033  0.4398
 3112TIP3    H230752   1.128   5.327   6.675 -1.1488 -0.3181 -0.3559
 3113TIP3   OH230753   0.277   1.725  14.897  0.1993  0.2973 -0.6501
 3113TIP3    H130754   0.227   1.668  14.839 -0.1040  1.5239 -1.6039
 3113TIP3    H230755   0.250   1.814  14.874  1.1920  0.8767  0.3318
 3114TIP3   OH230756   3.219   6.123   0.892  0.6919  0.5531  0.4267
 3114TIP3    H130757   3.173   6.084   0.818  0.6606  2.6148 -0.6799
 3114TIP3    H230758   3.222   6.054   0.959 -3.8433  0.2996  0.4923
 3115TIP3   OH230759   4.924   2.749  16.636 -0.4145 -0.2248 -0.1617
 3115TIP3    H130760   4.859   2.740  16.706  0.1126 -2.2094  0.1013
 3115TIP3    H230761   4.967   2.832  16.654 -1.1928 -0.0739  1.0947
 3116TIP3   OH230762   4.733   1.518  14.258  0.3327 -0.3956  0.8487
 3116TIP3    H130763   4.720   1.424  14.268 -1.5621 -0.1375  1.2184
 3116TIP3    H230764   4.710   1.536  14.167  1.0033 -0.3352  0.6900
 3117TIP3   OH230765   0.037   0.274   1.809 -0.2621  0.2045  0.3458
 3117TIP3    H130766  -0.037   0.213   1.809  0.8105 -1.1271  0.1055
 3117TIP3    H230767   0.089   0.248   1.733  1.5558 -0.2554  1.7131
 3118TIP3   OH230768   1.234   0.686  16.098  0.3143 -0.0834  0.5367
 3118TIP3    H130769   1.171   0.736  16.045 -1.0631 -1.3235  0.9694
 3118TIP3    H230770   1.195   0.599  16.105  0.9842 -0.2278  2.7229
 3119TIP3   OH230771   0.648   3.305  16.581  0.1959 -0.2340 -0.3612
 3119TIP3    H130772   0.629   3.221  16.538 -0.0407 -0.1855 -0.3501
 3119TIP3    H230773   0.671   3.281  16.671  0.9411 -0.3586 -0.5756
 3120TIP3   OH230774   2.429   3.579  10.758 -0.7417 -0.4147  0.3126
 3120TIP3    H130775   2.345   3.575  10.712 -0.7789  0.5419  0.2802
 3120TIP3    H230776   2.422   3.656  10.814 -0.1200 -0.6928  0.7822
 3121TIP3   OH230777   2.406   0.611   2.154  0.0283 -0.0676 -0.2007
 3121TIP3    H130778   2.450   0.538   2.110  1.2633  0.1787  0.6066
 3121TIP3    H230779   2.406   0.682   2.090 -1.5985 -0.9048 -1.1641
 3122TIP3   OH230780   6.015   1.084   1.114  0.1677 -0.2548  0.1848
 3122TIP3    H130781   6.028   0.990   1.102 -0.5282 -0.3323 -0.0141
 3122TIP3    H230782   5.956   1.110   1.043  0.7136  0.4223 -0.0327
 3123TIP3   OH230783   4.484   3.200  12.935 -0.3331 -0.0899  0.0329
 3123TIP3    H130784   4.547   3.260  12.896  0.5484  0.8284  2.7794
 3123TIP3    H230785   4.534   3.122  12.957 -0.3784  0.1890  1.1630
 3124TIP3   OH230786   2.853   0.287  12.808  0.1556  0.0333 -0.2241
 3124TIP3    H130787   2.902   0.271  12.888  0.0545 -0.7430 -0.3116
 3124TIP3    H230788   2.883   0.373  12.778  2.0480 -0.7575 -0.6911
 3125TIP3   OH230789   4.223   4.633   1.212 -0.0549 -0.3389 -0.3002
 3125TIP3    H130790   4.233   4.610   1.120 -0.0330 -1.0909 -0.1203
 3125TIP3    H230791   4.229   4.728   1.215  0.4824 -0.3524 -1.0033
 3126TIP3   OH230792   3.004   6.683   5.061  0.1329 -0.3217 -0.0153
 3126TIP3    H130793   2.934   6.746   5.045 -1.8218 -2.1933  0.8972
 3126TIP3    H230794   2.964   6.598   5.043  2.9839 -1.2586 -2.0977
 3127TIP3   OH230795   1.848   0.908  10.646  0.6461 -0.4389  0.2523
 3127TIP3    H130796   1.885   0.993  10.623  0.9196 -0.6667 -0.1600
 3127TIP3    H230797   1.906   0.844  10.604 -0.4503 -0.7821 -0.7909
 3128TIP3   OH230798   0.853   4.949  12.938 -0.4440 -0.0654  0.0834
 3128TIP3    H130799   0.932   4.895  12.938  0.4803  1.2583 -0.4505
 3128TIP3    H230800   0.872   5.019  13.000 -1.1841  0.2899 -0.0867
 3129TIP3   OH230801   5.777   1.513   5.738  0.2199  0.0567 -0.0419
 3129TIP3    H130802   5.827   1.471   5.808 -0.1656  0.2701  0.3580
 3129TIP3    H230803   5.733   1.441   5.693 -0.6214  0.0563  0.7839
 3130TIP3   OH230804   2.510   4.323   2.824 -0.2284  0.0064  0.1620
 3130TIP3    H130805   2.514   4.377   2.745  0.6882 -0.7764 -0.3387
 3130TIP3    H230806   2.491   4.235   2.791  1.5713 -0.5870  0.6944
 3131TIP3   OH230807   2.642   4.507   0.124 -0.6170  0.2598  0.1892
 3131TIP3    H130808   2.652   4.592   0.166 -0.4831 -0.2081  1.1272
 3131TIP3    H230809   2.714   4.502   0.061  1.9073 -0.8146  3.0092
 3132TIP3   OH230810   3.386   4.942   1.069  0.1156  0.3203 -1.0804
 3132TIP3    H130811   3.410   4.924   1.160 -0.9469 -0.2258 -0.9022
 3132TIP3    H230812   3.456   4.998   1.036  1.6497 -1.2675 -0.5839
 3133TIP3   OH230813   4.503   5.959  13.790  0.4543  0.1167  0.0970
 3133TIP3    H130814   4.521   5.928  13.702 -1.6072  0.4352 -0.4626
 3133TIP3    H230815   4.528   6.051  13.789 -2.9082  1.1025 -1.2783
 3134TIP3   OH230816   6.473   3.252  14.609 -0.2492 -0.4516  0.5463
 3134TIP3    H130817   6.511   3.166  14.590  0.5298 -0.4756  2.1689
 3134TIP3    H230818   6.400   3.234  14.668 -0.5459 -0.0676  0.2978
 3135TIP3   OH230819   3.990   4.838  14.755  0.0899 -0.2625  0.0437
 3135TIP3    H130820   4.019   4.871  14.670  0.9875  1.5986  1.0516
 3135TIP3    H230821   4.028   4.750  14.760  2.7229  0.8216 -0.1428
 3136TIP3   OH230822   0.629   5.012   4.801 -0.6656  0.1378 -0.7156
 3136TIP3    H130823   0.570   5.064   4.857 -0.5825 -1.5214  0.9438
 3136TIP3    H230824   0.707   4.998   4.855 -0.2648 -0.8331 -1.5394
 3137TIP3   OH230825   4.296   4.114  15.314  0.4398  0.0583 -0.0036
 3137TIP3    H130826   4.265   4.058  15.243  0.9428  0.0642 -0.2317
 3137TIP3    H230827   4.374   4.157  15.278  2.2244 -1.8883  1.4285
 3138TIP3   OH230828   2.039   3.067   0.829  0.3835  0.5127  0.2284
 3138TIP3    H130829   1.989   3.147   0.812  0.0642  0.7989  2.3486
 3138TIP3    H230830   1.984   2.996   0.794 -1.1649  0.9003  1.7934
 3139TIP3   OH230831   2.171   1.623  14.824  0.3866 -0.2596 -0.1349
 3139TIP3    H130832   2.177   1.698  14.883 -2.1057 -0.2434  0.1717
 3139TIP3    H230833   2.136   1.553  14.878 -0.7194 -0.6015 -1.2521
 3140TIP3   OH230834   0.349   6.702  17.197  0.5923  0.0475  0.0070
 3140TIP3    H130835   0.417   6.637  17.180  0.1148 -0.8939  1.6220
 3140TIP3    H230836   0.272   6.651  17.220 -0.2253  1.1491 -0.2591
 3141TIP3   OH230837   5.802   5.804  15.032 -0.5252 -0.2024 -0.4476
 3141TIP3    H130838   5.755   5.887  15.032 -1.6847 -0.8277  1.0391
 3141TIP3    H230839   5.886   5.824  14.992 -0.2888  1.9768  1.0524
 3142TIP3   OH230840   3.434   3.925   0.629 -0.5075 -0.2448 -0.0765
 3142TIP3    H130841   3.394   4.001   0.672  0.7299  0.8979 -0.9216
 3142TIP3    H230842   3.367   3.896   0.567 -0.2088  1.4158 -1.2023
 3143TIP3   OH230843   0.928   5.397   5.912  0.8395  0.1410 -0.1307
 3143TIP3    H130844   1.015   5.390   5.950  1.4153 -1.0667 -1.6047
 3143TIP3    H230845   0.897   5.307   5.906 -0.2251  0.5069 -0.2840
 3144TIP3   OH230846   5.541   0.622  16.755  0.1685  0.1582  0.1693
 3144TIP3    H130847   5.461   0.627  16.703  0.2940 -2.5681 -0.3296
 3144TIP3    H230848   5.576   0.712  16.754 -4.0291  1.9297  2.3246
 3145TIP3   OH230849   1.310   1.398  17.229  0.1837 -0.9156  0.1792
 3145TIP3    H130850   1.284   1.458  17.299  1.7019 -0.2676  0.2127
 3145TIP3    H230851   1.382   1.443  17.185 -0.1704 -1.7102 -1.2488
 3146TIP3   OH230852   1.825   3.660  10.061  0.4332 -0.2819  0.3375
 3146TIP3    H130853   1.746   3.672  10.113  1.5099  1.4865  1.6517
 3146TIP3    H230854   1.895   3.651  10.127  1.4588 -0.8190 -0.8075
 3147TIP3   OH230855   5.609   1.557  11.385 -0.1015  0.2788  0.1737
 3147TIP3    H130856   5.534   1.604  11.349  1.9316  2.7106 -1.0540
 3147TIP3    H230857   5.652   1.520  11.309 -0.2745 -1.4950  0.9182
 3148TIP3   OH230858   6.521   4.136   1.550 -0.1806 -0.6482 -0.2447
 3148TIP3    H130859   6.599   4.101   1.505 -1.0523 -2.9012 -0.0493
 3148TIP3    H230860   6.477   4.189   1.483  1.2327  0.2382 -0.5009
 3149TIP3   OH230861   1.024   2.256   2.444  0.1478 -0.0768  0.4884
 3149TIP3    H130862   0.960   2.324   2.461  0.2594 -0.1617  1.3018
 3149TIP3    H230863   1.037   2.257   2.350 -0.4900  0.4448  0.4064
 3150TIP3   OH230864   0.436   4.795   5.496 -0.3866  0.2166  0.1415
 3150TIP3    H130865   0.456   4.766   5.585 -2.0107 -0.5183  0.2886
 3150TIP3    H230866   0.414   4.887   5.505  0.4257  0.3891  0.3542
 3151TIP3   OH230867   4.451   0.674   5.241 -0.2863  0.3931 -0.6682
 3151TIP3    H130868   4.424   0.615   5.171 -0.0292 -0.1233 -0.3341
 3151TIP3    H230869   4.517   0.625   5.289  0.4846  1.2542 -0.8533
 3152TIP3   OH230870   5.999   3.699  12.719  0.6222  0.7660  0.6374
 3152TIP3    H130871   6.053   3.727  12.792  0.9976 -0.0175  0.6661
 3152TIP3    H230872   6.044   3.622  12.684  0.9617  1.7088 -1.0206
 3153TIP3   OH230873   5.300   5.521  13.491 -0.5704  0.3478 -0.0426
 3153TIP3    H130874   5.374   5.482  13.537 -0.4020  0.6828 -0.0299
 3153TIP3    H230875   5.328   5.523  13.399 -0.9079 -0.3251 -0.1607
 3154TIP3   OH230876   1.930   2.392  16.528 -0.2017  0.2590  0.1303
 3154TIP3    H130877   1.936   2.453  16.601  0.7782  0.6462 -0.2723
 3154TIP3    H230878   1.837   2.368  16.525 -0.5513  1.5457  0.4297
 3155TIP3   OH230879   5.926   3.928  11.694 -0.5107 -0.1070  0.1349
 3155TIP3    H130880   5.899   3.943  11.603 -1.6761 -0.4081  0.4156
 3155TIP3    H230881   6.019   3.947  11.695 -0.5977  0.4308 -1.0098
 3156TIP3   OH230882   1.286   3.288   0.486 -0.4037 -0.7208  0.1006
 3156TIP3    H130883   1.239   3.208   0.512 -0.7085 -0.7164 -0.4212
 3156TIP3    H230884   1.337   3.261   0.409 -0.5278 -0.4050 -0.0917
 3157TIP3   OH230885   6.224   0.961   1.483  0.3920 -0.3295 -0.0213
 3157TIP3    H130886   6.138   1.001   1.471  0.1859 -0.1852  1.8105
 3157TIP3    H230887   6.259   0.951   1.394 -1.4272 -0.2109 -0.7578
 3158TIP3   OH230888   0.358   6.080   2.912 -0.2459 -0.2646 -0.5712
 3158TIP3    H130889   0.389   6.143   2.978  0.6374 -0.7008 -0.5567
 3158TIP3    H230890   0.422   6.009   2.916 -0.9541 -0.9272 -0.9479
 3159TIP3   OH230891   3.105   4.158  15.773  0.7926  0.9105  0.4002
 3159TIP3    H130892   3.162   4.087  15.743 -0.0390  0.2252  0.4089
 3159TIP3    H230893   3.090   4.139  15.865  0.2489  0.8726  0.3061
 3160TIP3   OH230894   4.823   1.567   3.754  0.3482  0.3661  0.0643
 3160TIP3    H130895   4.771   1.624   3.697 -0.1703  0.2672  0.4339
 3160TIP3    H230896   4.820   1.610   3.839  1.5532  0.7841 -0.0990
 3161TIP3   OH230897   4.359   2.566   2.055 -0.1122 -0.3103  0.6468
 3161TIP3    H130898   4.339   2.657   2.076  1.7240 -0.1358  1.8544
 3161TIP3    H230899   4.434   2.571   1.996  0.6173 -1.0231  1.4852
 3162TIP3   OH230900   1.356   2.194  14.277  0.1375  0.0859  0.3352
 3162TIP3    H130901   1.340   2.248  14.354 -0.3395  0.5709 -0.0997
 3162TIP3    H230902   1.338   2.252  14.203 -0.9752 -0.8494 -0.1388
 3163TIP3   OH230903   6.495   2.756  11.483 -0.3549  0.2607 -0.5424
 3163TIP3    H130904   6.447   2.817  11.539  0.2043 -0.1824  0.4450
 3163TIP3    H230905   6.428   2.716  11.427 -0.8991  0.8281 -0.2999
 3164TIP3   OH230906   3.715   2.523  15.571  0.1062  0.1114 -0.4763
 3164TIP3    H130907   3.647   2.587  15.592  0.4853  0.4127 -0.1604
 3164TIP3    H230908   3.722   2.470  15.651  0.8250  0.6058 -0.2092
 3165TIP3   OH230909   1.053   2.911  13.693  0.2508  0.1769 -0.1659
 3165TIP3    H130910   1.051   2.846  13.763  0.4525 -0.6411 -0.8996
 3165TIP3    H230911   1.133   2.892  13.644  0.1711  0.8026 -0.5552
 3166TIP3   OH230912   6.296   5.440   5.681  0.2091  0.2066  0.4774
 3166TIP3    H130913   6.338   5.495   5.746 -0.4000  0.6138  0.5309
 3166TIP3    H230914   6.281   5.357   5.726  1.6420 -0.2114  0.2237
 3167TIP3   OH230915   3.164   2.390   1.194  0.2358  0.2886  0.1801
 3167TIP3    H130916   3.180   2.296   1.203 -4.3361 -0.8462 -1.9054
 3167TIP3    H230917   3.151   2.421   1.284 -0.9124 -1.6687  0.7301
 3168TIP3   OH230918   5.499   3.669  12.241  0.7979 -0.3302 -0.3425
 3168TIP3    H130919   5.494   3.604  12.311  2.9711 -0.4094 -0.2201
 3168TIP3    H230920   5.540   3.745  12.282  1.5306 -0.1619 -1.3444
 3169TIP3   OH230921   3.622   5.280   5.875 -0.3990 -0.0376 -0.8402
 3169TIP3    H130922   3.697   5.303   5.929 -0.5619 -1.0467 -0.1713
 3169TIP3    H230923   3.587   5.200   5.915 -1.6172  0.2265 -1.3461
 3170TIP3   OH230924   6.674   2.467  13.651 -0.2214 -0.4447 -0.8821
 3170TIP3    H130925   6.756   2.491  13.695 -0.3658  0.9503 -1.3480
 3170TIP3    H230926   6.684   2.501  13.562 -1.2726 -0.3148 -0.9581
 3171TIP3   OH230927   6.275   2.866   3.577  0.2109 -0.1145 -0.3822
 3171TIP3    H130928   6.332   2.797   3.544 -0.1613 -0.2080 -0.8423
 3171TIP3    H230929   6.282   2.859   3.672  0.3705 -0.6244 -0.4276
 3172TIP3   OH230930   5.368   4.507   4.010  0.5211  0.0363  0.2083
 3172TIP3    H130931   5.329   4.563   3.942  1.5685 -0.3539 -0.7355
 3172TIP3    H230932   5.462   4.516   3.996  0.7373 -0.2591  1.4577
 3173TIP3   OH230933   4.093   5.419  15.554 -0.1299  0.1983 -0.3710
 3173TIP3    H130934   4.176   5.435  15.599 -0.3157  1.1239 -0.3423
 3173TIP3    H230935   4.102   5.463  15.470 -0.0122 -1.0255 -1.0041
 3174TIP3   OH230936   4.662   1.236  16.938  0.0819 -0.4216  0.4058
 3174TIP3    H130937   4.606   1.270  16.868  1.0083 -1.8641 -1.0878
 3174TIP3    H230938   4.651   1.297  17.010 -1.8592  0.4190 -0.5781
 3175TIP3   OH230939   3.226   2.380  11.643 -1.3585  0.7820  0.0912
 3175TIP3    H130940   3.293   2.340  11.698  0.1889  0.7459 -1.7680
 3175TIP3    H230941   3.214   2.467  11.680  0.0256  0.9474  0.1791
 3176TIP3   OH230942   0.319   5.464  14.843 -0.1395  0.1539  0.2911
 3176TIP3    H130943   0.393   5.498  14.893 -0.3779 -0.4926  1.0911
 3176TIP3    H230944   0.300   5.533  14.780  0.4188  0.8178  0.8337
 3177TIP3   OH230945   5.360   2.081   5.765 -0.0361  0.4038  1.1714
 3177TIP3    H130946   5.284   2.026   5.746 -0.0168  0.7926 -0.0709
 3177TIP3    H230947   5.325   2.171   5.766 -0.2556  0.3236  4.1689
 3178TIP3   OH230948   0.446   4.726  14.564 -0.7837 -0.1999 -0.4451
 3178TIP3    H130949   0.378   4.665  14.593  1.5726 -1.7717  2.0736
 3178TIP3    H230950   0.443   4.797  14.629  0.9569 -1.0413  0.5726
 3179TIP3   OH230951   6.527   1.002   4.849 -0.0337 -0.3274 -0.3254
 3179TIP3    H130952   6.536   0.934   4.782  0.1011  0.3123 -0.9768
 3179TIP3    H230953   6.447   1.049   4.825  1.0486  1.1454 -1.2272
 3180TIP3   OH230954   4.725   4.447  16.195  0.3994 -0.5275  0.2457
 3180TIP3    H130955   4.662   4.517  16.176  0.6611  0.0271  1.3492
 3180TIP3    H230956   4.674   4.382  16.243  0.6029 -0.1884  0.9310
 3181TIP3   OH230957   5.854   3.802   6.053  0.4496 -0.1251  0.3614
 3181TIP3    H130958   5.857   3.894   6.079  3.1371  0.0071 -0.3331
 3181TIP3    H230959   5.865   3.754   6.135  1.3910  0.1992  0.4257
 3182TIP3   OH230960   1.958   0.241   0.869  0.4826 -0.7190 -0.4251
 3182TIP3    H130961   1.960   0.220   0.962 -0.1804  0.2377 -0.1878
 3182TIP3    H230962   1.890   0.308   0.860  2.5128  1.3492 -1.1281
 3183TIP3   OH230963   0.513   4.671   6.109  0.0568  0.6567 -0.3565
 3183TIP3    H130964   0.500   4.664   6.204 -1.5940 -0.1542 -0.6252
 3183TIP3    H230965   0.442   4.728   6.080 -0.2542 -0.1808 -1.2736
 3184TIP3   OH230966   3.786   4.198   3.105  0.2213  0.1346 -0.1769
 3184TIP3    H130967   3.838   4.118   3.109 -0.3380 -0.3598 -2.2673
 3184TIP3    H230968   3.851   4.268   3.100  0.7007 -0.1915  1.1087
 3185TIP3   OH230969   1.381   2.258  10.982 -0.6439 -0.0726 -0.2106
 3185TIP3    H130970   1.434   2.189  10.942 -0.6781  0.5964 -1.4537
 3185TIP3    H230971   1.314   2.278  10.916 -1.6430 -0.0094  0.8168
 3186TIP3   OH230972   3.797   5.420   4.488  0.0061 -0.1464 -0.1837
 3186TIP3    H130973   3.885   5.414   4.451 -0.0437 -0.5800 -0.2383
 3186TIP3    H230974   3.811   5.428   4.582  0.1233  0.5814 -0.2579
 3187TIP3   OH230975   5.922   6.460  15.393  0.7007  0.6404 -0.4154
 3187TIP3    H130976   5.869   6.380  15.397 -0.5807  1.5511  1.4990
 3187TIP3    H230977   5.863   6.525  15.354  0.4528  1.5970  1.5012
 3188TIP3   OH230978   0.654   4.516  13.892  0.0685  0.0210  0.2034
 3188TIP3    H130979   0.690   4.434  13.858  1.4612  1.3807 -1.7233
 3188TIP3    H230980   0.698   4.584  13.842 -0.7385  1.9884  2.0875
 3189TIP3   OH230981   3.202   4.004  11.323 -0.3072  0.2929 -0.2043
 3189TIP3    H130982   3.122   4.056  11.316  0.4675  1.4641 -0.4512
 3189TIP3    H230983   3.262   4.058  11.375  0.0051 -0.9789  0.7957
 3190TIP3   OH230984   2.147   6.620   1.401 -0.3932  0.5766 -0.1537
 3190TIP3    H130985   2.078   6.587   1.344 -2.3239  1.2960  1.6814
 3190TIP3    H230986   2.107   6.621   1.488  2.4190 -0.3545  1.1965
 3191TIP3   OH230987   0.070   4.021  14.029  0.1008  0.2631 -0.2202
 3191TIP3    H130988   0.072   4.115  14.045  0.0556  0.1623  0.3764
 3191TIP3    H230989   0.040   3.983  14.111  0.7861 -0.3219 -0.2326
 3192TIP3   OH230990   3.002   0.859   1.689  0.5746  0.4746 -0.2686
 3192TIP3    H130991   3.072   0.794   1.681  1.3001  1.1923  0.2418
 3192TIP3    H230992   2.962   0.841   1.774  1.0480  0.9642  0.0586
 3193TIP3   OH230993   3.116   6.446   4.690 -0.0674 -0.0557  0.4200
 3193TIP3    H130994   3.141   6.538   4.696 -0.4027  0.3975 -3.9773
 3193TIP3    H230995   3.194   6.402   4.656 -0.1136 -1.3349  1.8989
 3194TIP3   OH230996   1.679   1.260   1.066  0.2323  0.1928  0.5111
 3194TIP3    H130997   1.616   1.232   1.132  0.2528 -2.7463 -0.6620
 3194TIP3    H230998   1.753   1.200   1.075  1.2391  1.1987 -0.6656
 3195TIP3   OH230999   1.229   3.591  13.675  0.4697 -0.0339  0.6769
 3195TIP3    H131000   1.162   3.657  13.694  1.5838  0.8965  1.5192
 3195TIP3    H231001   1.246   3.599  13.581 -1.0471 -0.7242  0.3360
 3196TIP3   OH231002   5.344   5.905   0.104 -0.0915  0.6413  0.3677
 3196TIP3    H131003   5.299   5.974   0.056  0.0967  0.5867  0.1113
 3196TIP3    H231004   5.278   5.871   0.165 -0.4287  0.5002 -0.0698
 3197TIP3   OH231005   1.273   2.870  16.474  0.1172  0.1358  0.0792
 3197TIP3    H131006   1.326   2.792  16.459 -3.3773 -2.2390 -0.6648
 3197TIP3    H231007   1.244   2.897  16.387 -1.3307  0.3065  0.6013
 3198TIP3   OH231008   3.541   5.326  13.509  0.0279  0.5495  0.2925
 3198TIP3    H131009   3.451   5.313  13.478 -0.2741  2.8562  0.0825
 3198TIP3    H231010   3.596   5.307  13.434 -0.3834  0.5338 -0.0073
 3199TIP3   OH231011   2.281   3.333   4.995 -0.0852 -0.2624  0.5695
 3199TIP3    H131012   2.374   3.348   4.982  0.2221 -1.1358  1.6690
 3199TIP3    H231013   2.245   3.420   5.013  0.7121 -0.0560  1.2364
 3200TIP3   OH231014   3.992   3.782   3.378  0.2168 -0.1702 -0.4164
 3200TIP3    H131015   3.991   3.688   3.399  0.9268  0.0474  0.6260
 3200TIP3    H231016   4.020   3.824   3.459 -2.1280  1.1337 -0.2340
 3201TIP3   OH231017   6.009   0.593   3.586 -0.0884 -0.0853 -0.4070
 3201TIP3    H131018   6.005   0.499   3.599 -0.6660 -0.0872 -0.5714
 3201TIP3    H231019   6.102   0.615   3.592  0.5071 -1.2372 -4.3240
 3202TIP3   OH231020   3.014   5.375   1.635 -0.1188  0.0722 -0.1475
 3202TIP3    H131021   2.927   5.413   1.627 -0.5596 -0.5329  1.5987
 3202TIP3    H231022   2.999   5.281   1.647  0.7812 -0.0654 -0.0299
 3203TIP3   OH231023   3.482   4.097  13.429 -0.3216  0.2168  0.7536
 3203TIP3    H131024   3.439   4.014  13.408  1.0116 -0.7007  1.6144
 3203TIP3    H231025   3.426   4.164  13.388 -0.8616 -1.1552 -0.7856
 3204TIP3   OH231026   6.711   3.936  14.785  0.3332  0.2388 -0.5918
 3204TIP3    H131027   6.641   3.915  14.722 -0.3933  0.2104  0.2071
 3204TIP3    H231028   6.711   3.863  14.846  0.0478  0.9470  0.2770
 3205TIP3   OH231029   1.529   0.910   3.559  0.4627  0.2958 -0.4011
 3205TIP3    H131030   1.500   0.823   3.532  2.4106 -0.6906  0.6151
 3205TIP3    H231031   1.585   0.895   3.635  1.5023  2.3624 -0.7017
 3206TIP3   OH231032   3.799   1.125  12.786  0.4141 -0.2870  0.0993
 3206TIP3    H131033   3.805   1.097  12.694 -0.1186  0.0436 -0.0437
 3206TIP3    H231034   3.748   1.206  12.782 -0.8718 -1.0475  0.8423
 3207TIP3   OH231035   0.328   5.817  13.536  0.3128 -0.5082  0.4326
 3207TIP3    H131036   0.390   5.887  13.516 -0.1306 -0.1060  0.4364
 3207TIP3    H231037   0.349   5.747  13.474 -0.3659  0.3183 -0.7691
 3208TIP3   OH231038   0.992   2.371  13.957  0.0147  0.4809 -0.1461
 3208TIP3    H131039   0.914   2.332  13.918 -0.5770  1.8687 -0.3876
 3208TIP3    H231040   1.051   2.386  13.883  0.1312  0.2835 -0.0928
 3209TIP3   OH231041   0.877   1.288   4.696 -0.5735  0.4780  0.0411
 3209TIP3    H131042   0.880   1.304   4.602  0.8290 -1.3020 -0.2657
 3209TIP3    H231043   0.924   1.361   4.735 -0.7339  0.9697 -0.6879
 3210TIP3   OH231044   6.567   1.398   1.518 -0.0105  0.0572 -0.0540
 3210TIP3    H131045   6.533   1.332   1.458 -0.5169  1.8950 -1.8344
 3210TIP3    H231046   6.498   1.410   1.583  0.7680 -2.3503  1.3022
 3211TIP3   OH231047   5.903   4.549   2.800  0.3096  0.2076  0.0463
 3211TIP3    H131048   5.971   4.612   2.823 -1.0400  1.6172  0.2141
 3211TIP3    H231049   5.902   4.486   2.872  0.4798  0.9690  0.7085
 3212TIP3   OH231050   6.565   0.826  14.228  0.0304 -0.9851 -0.5949
 3212TIP3    H131051   6.597   0.770  14.157  0.6237 -0.1925 -0.9588
 3212TIP3    H231052   6.478   0.853  14.200  0.9376  0.7446 -1.8607
 3213TIP3   OH231053   3.274   3.623  13.587 -0.2098  0.1143 -0.0281
 3213TIP3    H131054   3.268   3.716  13.612  0.8500 -0.5771  3.0121
 3213TIP3    H231055   3.185   3.590  13.598 -0.2059  0.3522  0.7883
 3214TIP3   OH231056   0.143   3.597   1.630  0.6147 -0.6953 -0.0169
 3214TIP3    H131057   0.103   3.510   1.632  0.5781 -0.7226 -1.6485
 3214TIP3    H231058   0.113   3.639   1.711 -1.3382 -1.3058 -0.4169
 3215TIP3   OH231059   2.969   4.315  12.486  0.4521 -0.0940 -0.6822
 3215TIP3    H131060   2.907   4.388  12.479  0.4444 -0.1658 -1.4096
 3215TIP3    H231061   2.962   4.270  12.401  3.6570  1.6342 -1.9191
 3216TIP3   OH231062   3.631   1.707   5.325 -0.0586 -0.4418  0.0355
 3216TIP3    H131063   3.689   1.716   5.249 -1.7154 -1.6795 -1.4057
 3216TIP3    H231064   3.684   1.660   5.390  1.3096  0.4478 -0.4005
 3217TIP3   OH231065   2.885   4.748   3.309  0.0771  0.0076 -0.3176
 3217TIP3    H131066   2.832   4.808   3.256 -0.6915 -0.0746  0.3442
 3217TIP3    H231067   2.857   4.765   3.399  0.0441 -1.1721 -0.1052
 3218TIP3   OH231068   0.620   0.407  14.864 -0.0607 -0.3574 -0.6133
 3218TIP3    H131069   0.593   0.347  14.934 -1.5594 -0.8516 -1.5898
 3218TIP3    H231070   0.686   0.359  14.815  0.2231 -0.4220 -0.1654
 3219TIP3   OH231071   5.274   2.003   0.613 -0.4529 -0.1575 -0.3125
 3219TIP3    H131072   5.302   1.956   0.691 -0.5300 -0.9618 -0.7720
 3219TIP3    H231073   5.193   2.047   0.639 -0.1520  0.0727  0.2393
 3220TIP3   OH231074   5.833   5.290   4.988 -0.4956 -0.2776 -0.0854
 3220TIP3    H131075   5.907   5.345   4.961 -0.9703 -0.4959 -1.8941
 3220TIP3    H231076   5.858   5.202   4.961 -0.3315 -0.7616  1.5823
 3221TIP3   OH231077   2.921   2.070  16.430 -0.6101 -0.2641  0.6029
 3221TIP3    H131078   2.962   2.073  16.517  1.2899 -2.2809 -0.1973
 3221TIP3    H231079   2.861   1.996  16.435 -4.2252  2.5669  1.7159
 3222TIP3   OH231080   3.067   0.917  10.153 -0.5054 -0.2767 -0.1398
 3222TIP3    H131081   3.147   0.964  10.176 -1.2237  0.6642  0.5102
 3222TIP3    H231082   3.000   0.955  10.210 -1.6182 -0.3128 -1.3988
 3223TIP3   OH231083   5.750   6.596  13.844  0.3599 -0.2088 -0.1069
 3223TIP3    H131084   5.840   6.609  13.876  0.8479 -0.7600 -1.2097
 3223TIP3    H231085   5.707   6.680  13.859  1.3766  0.4096 -0.5583
 3224TIP3   OH231086   2.006   5.134   1.086 -0.0658  0.1509 -0.3219
 3224TIP3    H131087   1.949   5.122   1.011  0.6937 -0.7936 -0.7488
 3224TIP3    H231088   2.094   5.133   1.050  0.2640  0.7351  0.4486
 3225TIP3   OH231089   2.955   2.525  11.790  0.3785  0.1264 -0.0140
 3225TIP3    H131090   2.911   2.600  11.749  2.0271  1.3085  0.3200
 3225TIP3    H231091   3.048   2.539  11.772  0.8208 -1.0944  1.2666
 3226TIP3   OH231092   5.110   5.163  13.461  0.6281  0.0740 -0.2051
 3226TIP3    H131093   5.170   5.164  13.536  0.7068  1.2217 -0.2721
 3226TIP3    H231094   5.050   5.236  13.477 -1.0754 -1.3787  0.1118
 3227TIP3   OH231095   4.078   1.564  14.488 -0.1804  0.0227 -0.2854
 3227TIP3    H131096   3.996   1.591  14.530  0.3090 -0.9414  1.3408
 3227TIP3    H231097   4.069   1.469  14.480  0.3919  0.0294 -0.9651
 3228TIP3   OH231098   4.564   4.479  15.867  0.6838 -0.6376 -0.0038
 3228TIP3    H131099   4.557   4.454  15.775 -0.2327 -0.8399  0.1106
 3228TIP3    H231100   4.501   4.550  15.877  1.2474 -0.1816  0.3189
 3229TIP3   OH231101   5.776   2.148  16.107  0.1578 -0.3994  0.7351
 3229TIP3    H131102   5.744   2.229  16.146  0.7952  0.0055  0.4313
 3229TIP3    H231103   5.704   2.116  16.053  1.2348  2.0726 -2.3391
 3230TIP3   OH231104   3.470   5.137  11.742 -0.6302 -0.2003  0.5472
 3230TIP3    H131105   3.546   5.115  11.796  0.0241  1.4617  0.3160
 3230TIP3    H231106   3.433   5.215  11.783 -0.6726  0.5319 -0.8401
 3231TIP3   OH231107   1.434   0.026   1.901 -0.0758  0.2467 -0.1514
 3231TIP3    H131108   1.481   0.005   1.982  0.5761  1.5402 -0.1858
 3231TIP3    H231109   1.420   0.121   1.905 -3.0522 -0.1400  0.0538
 3232TIP3   OH231110   3.388   5.458   4.469 -0.3269 -0.2365 -0.2589
 3232TIP3    H131111   3.321   5.469   4.537 -1.2609 -1.3793 -0.9743
 3232TIP3    H231112   3.401   5.363   4.464  2.1331  0.0077  0.6068
 3233TIP3   OH231113   1.383   2.389   6.185  0.3018  0.0403 -0.5035
 3233TIP3    H131114   1.447   2.340   6.238 -0.9575 -0.7323  0.3336
 3233TIP3    H231115   1.305   2.392   6.240 -0.6513  0.2600 -1.8572
 3234TIP3   OH231116   1.737   6.668  14.792  0.3307 -0.0091 -1.0131
 3234TIP3    H131117   1.811   6.725  14.809 -0.5335  0.7883  0.1681
 3234TIP3    H231118   1.662   6.715  14.828 -0.4836 -1.5995 -0.5864
 3235TIP3   OH231119   6.654   1.790  12.574 -0.1238  0.3752 -0.6703
 3235TIP3    H131120   6.632   1.821  12.487 -0.2098 -1.2691 -1.2607
 3235TIP3    H231121   6.578   1.814  12.628 -0.6117  0.3188 -1.3229
 3236TIP3   OH231122   5.897   1.767   5.750 -0.3029 -0.1323  0.7825
 3236TIP3    H131123   5.846   1.791   5.673  0.2022 -0.5917  0.3025
 3236TIP3    H231124   5.885   1.672   5.758  2.2987 -0.6248 -0.6702
 3237TIP3   OH231125   0.156   6.248   2.844 -0.1351  0.5609  1.0352
 3237TIP3    H131126   0.227   6.184   2.853  0.7337  1.3388 -0.0814
 3237TIP3    H231127   0.125   6.237   2.754  0.3783  2.0391  0.6480
 3238TIP3   OH231128   2.831   6.380   1.683 -0.4687  0.0607  0.3610
 3238TIP3    H131129   2.792   6.306   1.636  1.0579  0.6556 -1.9079
 3238TIP3    H231130   2.862   6.342   1.766  0.2463 -1.8596 -0.7465
 3239TIP3   OH231131   1.135   1.395  16.533  0.2472  0.2821 -0.3068
 3239TIP3    H131132   1.215   1.342  16.531 -0.2601 -0.5684  1.0374
 3239TIP3    H231133   1.136   1.435  16.620 -1.5221 -0.9055  0.2916
 3240TIP3   OH231134   3.275   2.101   6.363 -0.3609 -0.4138 -0.1437
 3240TIP3    H131135   3.291   2.189   6.396  0.8794 -0.7121  0.0670
 3240TIP3    H231136   3.307   2.043   6.431  1.0950 -1.0327 -1.3301
 3241TIP3   OH231137   0.808   1.290  15.777 -0.2594 -0.0213 -0.2491
 3241TIP3    H131138   0.803   1.319  15.868  2.6062 -0.6658  0.1719
 3241TIP3    H231139   0.719   1.303  15.743 -1.8687 -1.3829  3.1242
 3242TIP3   OH231140   1.007   5.215  12.879  0.7120  0.6219  0.2299
 3242TIP3    H131141   1.028   5.289  12.823  1.9938 -0.9980 -1.4954
 3242TIP3    H231142   0.965   5.152  12.821  1.5851 -0.8850  1.1977
 3243TIP3   OH231143   6.286   1.235   3.805  0.1150 -0.0002  0.2584
 3243TIP3    H131144   6.337   1.166   3.849 -0.3628  1.1144  2.6531
 3243TIP3    H231145   6.213   1.188   3.764  0.1762 -1.0228  1.2736
 3244TIP3   OH231146   0.085   1.204   4.805 -0.4391 -0.6693  0.4914
 3244TIP3    H131147   0.055   1.205   4.896 -0.7644 -1.0166  0.3863
 3244TIP3    H231148   0.123   1.117   4.793 -0.0558 -0.4902  0.4064
 3245TIP3   OH231149   3.042   6.362   2.511 -0.5432  0.3868  0.5111
 3245TIP3    H131150   2.982   6.369   2.586  0.0919  1.1753  0.9535
 3245TIP3    H231151   3.043   6.449   2.472 -0.2708  0.1803  0.0591
 3246TIP3   OH231152   0.145   2.734   0.210  1.1100 -0.2711 -0.5736
 3246TIP3    H131153   0.151   2.762   0.119  0.4171  2.6155  0.1967
 3246TIP3    H231154   0.233   2.748   0.246  0.4654  2.2946  0.1313
 3247TIP3   OH231155   1.077   6.473   2.736 -0.4166  0.1791 -0.1103
 3247TIP3    H131156   1.125   6.536   2.789 -0.0746 -0.1702  0.0013
 3247TIP3    H231157   1.038   6.525   2.666 -1.7801  0.8049  1.0867
 3248TIP3   OH231158   5.297   3.434  11.817 -0.6960 -0.0310  0.0367
 3248TIP3    H131159   5.252   3.497  11.762 -1.4674 -0.6829 -0.0792
 3248TIP3    H231160   5.333   3.486  11.890 -0.4276  0.6904 -0.6033
 3249TIP3   OH231161   4.337   5.145   3.972 -0.5419 -0.1607 -0.2657
 3249TIP3    H131162   4.375   5.204   3.907 -0.7441  1.2357  0.8430
 3249TIP3    H231163   4.245   5.171   3.976 -0.2145  0.8245  1.6631
 3250TIP3   OH231164   3.022   0.748  16.704 -0.3529 -0.5726  0.6341
 3250TIP3    H131165   3.015   0.754  16.799 -0.4519  1.8671  0.5182
 3250TIP3    H231166   2.960   0.680  16.679 -1.1679 -0.4390  2.2261
 3251TIP3   OH231167   6.408   5.200  15.293 -0.1088 -0.6047 -0.1875
 3251TIP3    H131168   6.320   5.170  15.316 -0.0376 -1.0701 -0.5085
 3251TIP3    H231169   6.410   5.292  15.319 -0.5837 -0.6792  0.1150
 3252TIP3   OH231170   1.772   2.313   6.144  0.3450 -0.3126  0.1035
 3252TIP3    H131171   1.744   2.400   6.172  1.0384 -0.3644  0.9494
 3252TIP3    H231172   1.756   2.313   6.049 -0.1535  0.5447  0.1773
 3253TIP3   OH231173   3.582   1.646   4.096 -0.2063  0.4053  0.1645
 3253TIP3    H131174   3.627   1.699   4.030 -1.7556  1.0772 -0.3891
 3253TIP3    H231175   3.635   1.657   4.176  0.7230  0.9871 -0.5208
 3254TIP3   OH231176   3.169   3.792   5.200  0.2981  0.0366  0.0774
 3254TIP3    H131177   3.256   3.799   5.160 -0.2415  2.6320 -0.7638
 3254TIP3    H231178   3.111   3.767   5.128  0.4007 -2.3080  0.7626
 3255TIP3   OH231179   6.755   1.383  13.454  0.0273 -0.1207  0.8419
 3255TIP3    H131180   6.755   1.432  13.371 -1.0946 -2.9173 -0.8786
 3255TIP3    H231181   6.665   1.388  13.485 -0.3276 -1.9080  0.1340
 3256TIP3   OH231182   3.937   2.159  14.213  0.2870 -0.5661 -0.4580
 3256TIP3    H131183   3.862   2.104  14.238 -0.0572  0.2315  0.2839
 3256TIP3    H231184   3.898   2.237  14.174  0.7249 -0.0383  0.1498
 3257TIP3   OH231185   6.288   5.337   1.650 -0.0045  0.3349  0.2155
 3257TIP3    H131186   6.322   5.420   1.684  0.0087  0.6148 -0.4659
 3257TIP3    H231187   6.243   5.298   1.725  1.2778  0.2461  0.9552
 3258TIP3   OH231188   6.602   0.071   1.878  0.0437 -0.3562  0.1638
 3258TIP3    H131189   6.553   0.053   1.959 -1.4197  2.4459 -0.0484
 3258TIP3    H231190   6.537   0.065   1.808  0.8640 -0.6768 -0.5821
 3259TIP3   OH231191   0.105   4.006  16.240 -0.1097 -0.1558 -0.1942
 3259TIP3    H131192   0.189   4.028  16.281 -0.3954 -0.4737  0.5528
 3259TIP3    H231193   0.069   3.936  16.294 -0.4830 -0.5862 -0.9884
 3260TIP3   OH231194   6.309   0.585  11.438  1.2408 -0.1481  0.1183
 3260TIP3    H131195   6.359   0.505  11.423  4.2911  1.4573  1.3431
 3260TIP3    H231196   6.246   0.561  11.506  2.1875 -1.4798  0.5399
 3261TIP3   OH231197   3.094   4.913  17.212 -0.0636  0.5886  0.1536
 3261TIP3    H131198   3.037   4.985  17.241  1.8153  2.0436  0.3782
 3261TIP3    H231199   3.160   4.905  17.282  1.1959  0.3342 -1.0418
 3262TIP3   OH231200   1.938   0.045  14.797 -0.6049 -0.4452  0.4637
 3262TIP3    H131201   2.011   0.081  14.747  0.4196 -2.5498  0.4023
 3262TIP3    H231202   1.970   0.040  14.886 -0.8978 -0.8232  0.5470
 3263TIP3   OH231203   1.761   0.933  16.855 -0.2665  0.4977  0.2117
 3263TIP3    H131204   1.822   0.994  16.813  0.6312 -0.5161  0.0223
 3263TIP3    H231205   1.762   0.959  16.948 -2.1356  2.6374 -0.3146
 3264TIP3   OH231206   4.406   2.021  15.330 -0.0926  0.5274  0.5240
 3264TIP3    H131207   4.394   2.000  15.238 -1.8978 -0.8656  1.0450
 3264TIP3    H231208   4.355   2.101  15.343  1.2092  1.4605  0.0624
 3265TIP3   OH231209   4.589   3.218   4.483 -0.1394 -0.1416  0.4063
 3265TIP3    H131210   4.523   3.251   4.421  0.6367  0.1754 -0.2590
 3265TIP3    H231211   4.588   3.123   4.471 -0.8071 -0.1815  0.7365
 3266TIP3   OH231212   2.570   2.591   0.287  0.4642  0.1332  0.0578
 3266TIP3    H131213   2.637   2.557   0.228  1.0591 -1.1601  1.4482
 3266TIP3    H231214   2.510   2.639   0.230  1.7490  0.0299 -1.4071
 3267TIP3   OH231215   2.350   1.228   4.587 -0.3080  0.0405  0.0406
 3267TIP3    H131216   2.345   1.146   4.538 -2.0025  0.2504 -0.1849
 3267TIP3    H231217   2.263   1.236   4.628 -0.2378  1.8386 -0.1273
 3268TIP3   OH231218   4.622   2.020   3.827  0.7819 -0.1490 -0.0657
 3268TIP3    H131219   4.632   2.041   3.920 -1.1287 -1.5726  0.5097
 3268TIP3    H231220   4.710   1.995   3.799  1.1964 -0.7065  1.6355
 3269TIP3   OH231221   2.309   0.470   1.696 -0.1169 -0.2622  0.5629
 3269TIP3    H131222   2.331   0.511   1.613  1.2727 -0.5731  0.7725
 3269TIP3    H231223   2.335   0.379   1.686  0.8054 -0.1285  1.6108
 3270TIP3   OH231224   1.483   0.462   1.378 -0.3316  0.3284  0.0059
 3270TIP3    H131225   1.480   0.512   1.460 -0.6208 -1.6077  1.2405
 3270TIP3    H231226   1.505   0.373   1.407 -0.2637 -0.3377 -2.0609
 3271TIP3   OH231227   3.890   6.326   0.370  0.0627 -0.2384  0.0167
 3271TIP3    H131228   3.836   6.395   0.332 -0.3480 -0.5614  0.0058
 3271TIP3    H231229   3.845   6.302   0.451  0.3287 -0.3303  0.1378
 3272TIP3   OH231230   4.545   4.135  15.170  0.0290  0.1387  0.8555
 3272TIP3    H131231   4.495   4.131  15.088 -1.6529 -1.7790  1.9487
 3272TIP3    H231232   4.599   4.214  15.160  1.1327 -0.9781 -2.7915
 3273TIP3   OH231233   1.290   3.524  13.192 -0.2341 -0.5606 -0.1050
 3273TIP3    H131234   1.314   3.593  13.253 -0.1420 -1.5308  0.9887
 3273TIP3    H231235   1.196   3.537  13.175  0.5400  2.0120 -2.7943
 3274TIP3   OH231236   3.129   4.500  13.209  0.0881  0.4464 -0.3304
 3274TIP3    H131237   3.136   4.526  13.301  0.8637  0.0279 -0.2634
 3274TIP3    H231238   3.057   4.553  13.174 -2.7654 -2.1245  1.4726
 3275TIP3   OH231239   1.540   0.525   2.596  0.5820  0.0182 -0.1145
 3275TIP3    H131240   1.532   0.443   2.546  1.9226  0.1211 -0.5199
 3275TIP3    H231241   1.468   0.522   2.659  0.8701 -1.6735  0.1552
 3276TIP3   OH231242   5.773   1.324   0.535 -0.2067  0.2248 -0.0891
 3276TIP3    H131243   5.694   1.367   0.501  0.3400 -0.7382 -2.6915
 3276TIP3    H231244   5.747   1.232   0.548 -0.0206  0.2964  0.8732
 3277TIP3   OH231245   1.529   0.818   0.397  0.3001 -0.0635 -0.1384
 3277TIP3    H131246   1.481   0.760   0.337  0.1222 -0.8144  0.7069
 3277TIP3    H231247   1.604   0.849   0.346  0.3017 -0.9100 -0.6682
 3278TIP3   OH231248   6.777   5.109   2.272  0.7005  0.4036 -0.7095
 3278TIP3    H131249   6.861   5.063   2.269  0.2302 -0.5980  0.7239
 3278TIP3    H231250   6.761   5.123   2.366 -0.0518  1.8345 -1.0495
 3279TIP3   OH231251   1.285   0.872   4.890 -0.1802  0.0677  0.0183
 3279TIP3    H131252   1.377   0.847   4.878 -0.2685  0.0347 -0.6221
 3279TIP3    H231253   1.241   0.839   4.811 -0.7967 -0.1811  0.4612
 3280TIP3   OH231254   5.562   4.634  15.658  0.3403  0.3260 -0.6528
 3280TIP3    H131255   5.528   4.610  15.572 -0.7177  0.7102 -0.3378
 3280TIP3    H231256   5.545   4.728  15.666 -0.4012  0.1175  0.3568
 3281TIP3   OH231257   5.423   0.206   1.762 -0.1500  0.4626 -0.1689
 3281TIP3    H131258   5.363   0.239   1.830  0.4789  1.4962 -0.1102
 3281TIP3    H231259   5.366   0.161   1.700 -0.8417  0.3159  0.5560
 3282TIP3   OH231260   0.225   5.886   5.883  0.0889 -0.3530  0.8277
 3282TIP3    H131261   0.145   5.902   5.934  0.8133 -0.7370  2.0915
 3282TIP3    H231262   0.193   5.874   5.793 -1.6192 -3.6307  1.7795
 3283TIP3   OH231263   4.968   6.095   3.065 -0.6871  0.0655  0.0459
 3283TIP3    H131264   4.969   6.159   3.136 -2.6453  1.5644 -1.2147
 3283TIP3    H231265   4.907   6.027   3.094  1.6207 -1.4503  1.5156
 3284TIP3   OH231266   5.016   6.733   1.606 -0.5608 -0.1121 -0.1371
 3284TIP3    H131267   5.035   6.825   1.588  1.9999 -0.0330  2.5727
 3284TIP3    H231268   5.023   6.690   1.521 -0.7754  2.0323 -1.2729
 3285TIP3   OH231269   4.869   0.400   5.723  0.0365  0.1442  0.1923
 3285TIP3    H131270   4.868   0.306   5.739  1.6882 -0.0884 -0.8886
 3285TIP3    H231271   4.870   0.408   5.628 -1.1291  1.2917  0.2637
 3286TIP3   OH231272   6.305   4.029   3.584 -0.4355  0.2914 -0.2575
 3286TIP3    H131273   6.288   4.123   3.582  0.5728  0.4730 -0.7555
 3286TIP3    H231274   6.368   4.014   3.513 -0.2457 -0.6857  0.1021
 3287TIP3   OH231275   4.106   5.858  11.027  0.0763 -0.1399  0.0491
 3287TIP3    H131276   4.125   5.897  10.942 -0.9793  0.6766  0.1712
 3287TIP3    H231277   4.073   5.770  11.006 -2.0678  0.7759 -0.5173
 3288TIP3   OH231278   2.902   6.297  13.451 -0.0133 -0.2997 -0.3021
 3288TIP3    H131279   2.847   6.367  13.418 -0.0564 -0.4513 -0.5514
 3288TIP3    H231280   2.902   6.310  13.546 -1.1080 -0.7542 -0.2244
 3289TIP3   OH231281   5.832   4.964  15.470  0.1792  0.3138 -0.0407
 3289TIP3    H131282   5.850   4.933  15.559 -1.6770 -1.6511 -0.3155
 3289TIP3    H231283   5.743   4.997  15.473  0.6373  1.6916 -0.8307
 3290TIP3   OH231284   0.306   0.825  13.576 -0.1556 -0.0905 -0.7548
 3290TIP3    H131285   0.305   0.918  13.596  1.7393 -0.2446  0.0818
 3290TIP3    H231286   0.214   0.804  13.560 -0.5178  2.0632 -1.7028
 3291TIP3   OH231287   0.256   5.491  14.569  0.1471  0.5364  0.6724
 3291TIP3    H131288   0.169   5.472  14.536  1.5553 -0.8341 -2.4900
 3291TIP3    H231289   0.262   5.587  14.568 -0.7568  0.5954 -0.7669
 3292TIP3   OH231290   0.468   6.541   0.742 -0.5787  0.3332  0.5278
 3292TIP3    H131291   0.445   6.506   0.828 -0.3059  0.8232  0.8032
 3292TIP3    H231292   0.392   6.594   0.717 -0.9064 -0.2889  0.2016
 3293TIP3   OH231293   1.242   4.347   6.455  0.3028 -0.0224  0.5279
 3293TIP3    H131294   1.190   4.272   6.484 -1.6718  0.7412 -0.9778
 3293TIP3    H231295   1.198   4.423   6.494 -1.2024  0.8432 -2.7056
 3294TIP3   OH231296   5.719   3.204   3.928  0.2053  0.2172 -0.3798
 3294TIP3    H131297   5.678   3.188   3.843  1.6729 -0.8695 -0.9030
 3294TIP3    H231298   5.676   3.142   3.987  0.0327  0.1358 -0.5901
 3295TIP3   OH231299   0.523   5.740  11.738 -0.6784  0.0059  0.6903
 3295TIP3    H131300   0.443   5.692  11.716 -1.1748  0.7218  0.9071
 3295TIP3    H231301   0.590   5.704  11.680 -0.9410 -1.2646  1.1552
 3296TIP3   OH231302   0.406   4.048  12.560 -0.4135  0.0317  0.1000
 3296TIP3    H131303   0.325   4.005  12.589  1.4174 -3.3266  0.4657
 3296TIP3    H231304   0.422   4.013  12.472 -0.0268  1.6758 -0.5056
 3297TIP3   OH231305   6.604   4.801   3.107 -0.3864  0.4086 -0.2015
 3297TIP3    H131306   6.650   4.883   3.126 -0.4550  0.2510  0.6796
 3297TIP3    H231307   6.545   4.789   3.181  0.3843 -0.9713  0.2168
 3298TIP3   OH231308   6.442   2.090  15.785 -0.1088  0.2018 -0.0975
 3298TIP3    H131309   6.464   2.156  15.851 -0.0056 -0.3661  0.4484
 3298TIP3    H231310   6.415   2.014  15.837  1.1482 -0.6633 -0.6801
 3299TIP3   OH231311   2.587   5.861   0.045 -0.2638 -0.3142 -0.8197
 3299TIP3    H131312   2.614   5.785  -0.007 -2.3562 -1.7591  0.1263
 3299TIP3    H231313   2.635   5.852   0.128  0.1598 -0.1173 -1.0431
 3300TIP3   OH231314   3.488   2.531  12.554  0.4362 -0.0598 -0.1149
 3300TIP3    H131315   3.479   2.626  12.561 -0.0051  0.0564 -1.9713
 3300TIP3    H231316   3.401   2.497  12.572  0.2779 -0.0219 -0.7967
 3301TIP3   OH231317   0.151   3.504  14.519 -0.2145 -0.1559  0.1684
 3301TIP3    H131318   0.085   3.461  14.465  0.4405 -0.3584 -0.4797
 3301TIP3    H231319   0.118   3.496  14.609 -1.0504 -0.2800 -0.1529
 3302TIP3   OH231320   1.863   6.175   2.709  0.1197  0.3379 -0.0929
 3302TIP3    H131321   1.816   6.117   2.769 -1.0651 -0.6065 -1.9121
 3302TIP3    H231322   1.825   6.261   2.725 -0.5983 -0.0091  0.0837
 3303TIP3   OH231323   4.508   4.569   4.485 -0.5422 -0.1685 -0.0943
 3303TIP3    H131324   4.510   4.516   4.405 -1.6279 -1.4779  0.7060
 3303TIP3    H231325   4.595   4.609   4.490 -0.7418  0.6031 -2.3515
 3304TIP3   OH231326   1.520   4.609   3.315 -0.0034 -0.1488 -0.0872
 3304TIP3    H131327   1.550   4.687   3.268 -0.5072 -0.8944 -1.7050
 3304TIP3    H231328   1.489   4.642   3.400  1.1492  1.2072 -0.1764
 3305TIP3   OH231329   1.374   1.590  12.080  0.1004  0.2159 -0.8163
 3305TIP3    H131330   1.296   1.602  12.025  1.5474  0.4407 -2.8507
 3305TIP3    H231331   1.415   1.676  12.084  0.1301  0.1655  0.4929
 3306TIP3   OH231332   5.505   2.497  15.843  0.5452 -0.0927  0.4592
 3306TIP3    H131333   5.484   2.589  15.826 -1.3067 -0.4227  0.8703
 3306TIP3    H231334   5.542   2.496  15.931  2.0716  0.4524 -0.1505
 3307TIP3   OH231335   0.128   1.949   5.814  0.5379 -0.2096  0.2384
 3307TIP3    H131336   0.040   1.987   5.817  0.7006  0.1903 -0.0487
 3307TIP3    H231337   0.113   1.855   5.823  0.1393 -0.0717  1.0389
 3308TIP3   OH231338   6.205   4.639   2.210  0.0701  0.7928  0.3752
 3308TIP3    H131339   6.273   4.593   2.162 -0.3080  0.4160  0.1929
 3308TIP3    H231340   6.252   4.690   2.276  0.4156 -1.0136  1.5843
 3309TIP3   OH231341   0.006   5.481  16.251 -0.4060  0.3193  0.1864
 3309TIP3    H131342   0.063   5.473  16.175  2.0704 -0.5006  2.0664
 3309TIP3    H231343  -0.006   5.391  16.282 -2.3154  0.5271  0.1536
 3310TIP3   OH231344   4.275   3.411   3.932  0.1626  0.2999 -0.1740
 3310TIP3    H131345   4.239   3.371   3.853 -0.5939  2.1429 -0.7820
 3310TIP3    H231346   4.335   3.344   3.967 -1.2664 -1.4605 -0.9925
 3311TIP3   OH231347   2.306   2.990   1.662  0.1996  0.3599  0.1898
 3311TIP3    H131348   2.309   3.069   1.607 -1.6743  0.1911 -0.1679
 3311TIP3    H231349   2.254   3.016   1.738 -1.1164 -0.7437 -0.3055
 3312TIP3   OH231350   4.533   4.650   1.630 -0.4694  0.3039 -0.3759
 3312TIP3    H131351   4.453   4.675   1.677 -0.3532  0.9635 -0.5127
 3312TIP3    H231352   4.597   4.631   1.699 -0.8602 -0.6140 -0.2659
 3313TIP3   OH231353   1.390   6.252   1.288  0.1070 -0.4625  0.0853
 3313TIP3    H131354   1.450   6.277   1.359  1.7780 -3.0376 -0.3524
 3313TIP3    H231355   1.428   6.293   1.210 -1.0088  1.2746  0.4100
 3314TIP3   OH231356   1.440   3.577   1.910 -0.1545 -0.0872 -0.1322
 3314TIP3    H131357   1.421   3.498   1.860 -2.3301 -0.5181  1.3277
 3314TIP3    H231358   1.413   3.556   2.000  1.2950  1.5577  0.7293
 3315TIP3   OH231359   2.666   0.964  11.411 -0.0236 -0.4560  0.5573
 3315TIP3    H131360   2.756   0.989  11.390 -0.0750 -1.6145 -1.1976
 3315TIP3    H231361   2.619   0.972  11.328 -0.9257 -2.3825  0.8484
 3316TIP3   OH231362   1.987   6.522  13.650  0.0621  0.1343  0.6248
 3316TIP3    H131363   2.006   6.587  13.718  0.0236 -1.2474  1.9707
 3316TIP3    H231364   2.039   6.446  13.674  1.0950  0.0804 -1.6546
 3317TIP3   OH231365   0.426   1.705  11.873  0.2246  0.1541  0.6075
 3317TIP3    H131366   0.358   1.771  11.886 -0.0197  0.2996 -1.2384
 3317TIP3    H231367   0.505   1.742  11.912  0.0697  1.5187 -0.3403
 3318TIP3   OH231368   2.468   4.379   4.825  0.3847  0.2608 -0.7702
 3318TIP3    H131369   2.504   4.319   4.890 -0.0082  1.9072  1.0425
 3318TIP3    H231370   2.374   4.379   4.842  0.3996  1.5218 -0.5778
 3319TIP3   OH231371   3.522   4.343  11.882 -0.1300 -0.0411 -0.4457
 3319TIP3    H131372   3.437   4.384  11.901  0.1255  0.1632  0.2792
 3319TIP3    H231373   3.510   4.251  11.904  0.9728  0.6624  3.4681
 3320TIP3   OH231374   3.367   3.749  14.829 -0.1460  0.0929  0.2802
 3320TIP3    H131375   3.362   3.738  14.924  1.2398  0.3535  0.4014
 3320TIP3    H231376   3.296   3.694  14.795  0.8432 -1.9177  1.3436
 3321TIP3   OH231377   1.915   6.139   3.163  0.4101  0.1588 -0.2930
 3321TIP3    H131378   1.925   6.044   3.159  0.4167  0.1394  0.1627
 3321TIP3    H231379   1.930   6.161   3.255 -0.3971  0.5156 -0.2451
 3322TIP3   OH231380   1.507   4.102   4.547  0.6842  0.2884 -0.1941
 3322TIP3    H131381   1.512   4.141   4.635  3.0109  0.0475 -0.2025
 3322TIP3    H231382   1.545   4.015   4.558 -1.0094 -0.5664 -0.9974
 3323TIP3   OH231383   6.301   6.063  12.289  0.2659  0.0393 -0.6927
 3323TIP3    H131384   6.321   6.016  12.208  2.0997  0.3109 -0.4044
 3323TIP3    H231385   6.330   6.152  12.274  0.3803  0.1561  0.1789
 3324TIP3   OH231386   5.656   4.399  11.650  0.4592 -0.3342 -0.0777
 3324TIP3    H131387   5.657   4.398  11.745  1.7621 -3.4917 -0.0727
 3324TIP3    H231388   5.726   4.459  11.625 -2.0355  3.1193  0.8900
 3325TIP3   OH231389   5.660   4.608   0.853 -0.3395 -0.0579  0.3698
 3325TIP3    H131390   5.691   4.581   0.940  1.0695  2.5628  0.7367
 3325TIP3    H231391   5.582   4.660   0.870  0.0208  0.5839  0.0782
 3326TIP3   OH231392   0.066   6.000   4.290 -0.6924 -0.3282  0.3915
 3326TIP3    H131393   0.132   6.069   4.287 -0.3445 -0.6128  1.4308
 3326TIP3    H231394   0.090   5.946   4.365 -2.1545 -0.3835  0.8420
 3327TIP3   OH231395   2.728   6.700  12.574 -0.0790 -0.1506  0.2031
 3327TIP3    H131396   2.769   6.719  12.659 -0.3328  0.2301  0.2401
 3327TIP3    H231397   2.768   6.617  12.547  2.7631  1.5728 -1.0787
 3328TIP3   OH231398   5.036   4.545  14.351  0.3796 -0.1898 -0.2200
 3328TIP3    H131399   4.993   4.630  14.347  0.2381 -0.3056 -1.2787
 3328TIP3    H231400   5.129   4.565  14.360  0.4786  0.0966 -1.7248
 3329TIP3   OH231401   5.632   6.083   5.096  0.1639  0.0805 -0.2784
 3329TIP3    H131402   5.560   6.019   5.102 -0.5535  1.0539  2.1894
 3329TIP3    H231403   5.592   6.160   5.056 -0.5532  1.0892  2.2976
 3330TIP3   OH231404   6.490   5.494  14.311  0.2210 -0.3289 -0.1801
 3330TIP3    H131405   6.490   5.402  14.283  0.4846 -0.1647 -0.7182
 3330TIP3    H231406   6.404   5.527  14.285 -0.2285 -0.6587  0.8170
 3331TIP3   OH231407   2.961   6.778   3.497  0.7560 -0.0251  0.0068
 3331TIP3    H131408   2.945   6.862   3.541 -1.4460  0.3069 -1.3490
 3331TIP3    H231409   2.875   6.736   3.493  1.6280 -1.8415 -0.3936
 3332TIP3   OH231410   4.188   0.929   0.364 -0.4678  0.1509  0.1887
 3332TIP3    H131411   4.185   0.904   0.456  0.1972 -0.1347  0.1341
 3332TIP3    H231412   4.279   0.914   0.337 -0.6238  0.3545 -0.4798
 3333TIP3   OH231413   1.353   6.462   4.197  0.9539  0.3234 -0.0677
 3333TIP3    H131414   1.325   6.511   4.120  0.4738  0.6352  0.3041
 3333TIP3    H231415   1.386   6.379   4.161 -1.6706 -0.6222 -0.4432
 3334TIP3   OH231416   6.305   0.728  14.715 -0.1089  0.0814 -0.2500
 3334TIP3    H131417   6.297   0.640  14.754  0.8175 -0.8666 -2.1237
 3334TIP3    H231418   6.262   0.786  14.778  1.8522 -1.3049  2.4830
 3335TIP3   OH231419   0.611   3.394  14.751 -0.3452  0.1756  0.1158
 3335TIP3    H131420   0.538   3.413  14.809 -0.1322 -0.0751  0.4713
 3335TIP3    H231421   0.615   3.298  14.747  0.9944  0.1554  1.4250
 3336TIP3   OH231422   2.129   2.112   4.915  0.4420 -0.3243  0.5380
 3336TIP3    H131423   2.051   2.122   4.969 -1.2918  3.1956 -2.3882
 3336TIP3    H231424   2.181   2.190   4.933  0.9938 -0.3238 -0.9530
 3337TIP3   OH231425   2.844   3.324  15.645  0.0816  0.4686 -0.1503
 3337TIP3    H131426   2.781   3.367  15.587 -0.8083  0.8617  1.1110
 3337TIP3    H231427   2.815   3.233  15.648  0.5598  0.2829 -0.8936
 3338TIP3   OH231428   3.637   3.409  14.732 -0.5345 -0.0150  0.3111
 3338TIP3    H131429   3.630   3.415  14.637 -1.9483  2.3853  0.5244
 3338TIP3    H231430   3.708   3.347  14.747  0.1742  0.1053 -2.3182
 3339TIP3   OH231431   1.053   2.736   0.814 -0.1679  0.2039  0.1210
 3339TIP3    H131432   1.055   2.828   0.787 -1.6129  0.3787  0.5405
 3339TIP3    H231433   1.144   2.714   0.832  0.0732  1.9063  1.1633
 3340TIP3   OH231434   2.153   3.467   2.377 -0.3931 -0.5296  0.4486
 3340TIP3    H131435   2.243   3.496   2.367 -0.7014 -0.3865 -2.4463
 3340TIP3    H231436   2.157   3.372   2.362 -0.7315 -0.5033  0.1792
 3341TIP3   OH231437   2.541   3.489  14.627  0.2015  0.3366  0.1168
 3341TIP3    H131438   2.593   3.477  14.548  1.0797 -0.8115  0.8440
 3341TIP3    H231439   2.502   3.576  14.618 -0.2482 -0.0616 -1.8700
 3342TIP3   OH231440   5.635   3.798  11.624 -0.3826  0.3655 -0.5389
 3342TIP3    H131441   5.572   3.851  11.575 -1.2783  0.1244  0.3240
 3342TIP3    H231442   5.710   3.856  11.638 -1.0212  1.1464 -0.3063
 3343TIP3   OH231443   3.972   1.930  15.157 -0.0780  0.2355  0.5935
 3343TIP3    H131444   3.942   2.007  15.206 -1.7542  0.3790 -0.6006
 3343TIP3    H231445   3.922   1.857  15.194  0.9887 -0.1756  1.2405
 3344TIP3   OH231446   3.339   1.078  15.320  0.2529  0.0735  0.0061
 3344TIP3    H131447   3.303   1.067  15.408 -2.4156  0.4280 -0.9889
 3344TIP3    H231448   3.295   1.011  15.268  2.6482 -0.8814 -0.8521
 3345TIP3   OH231449   3.186   4.540   4.777 -0.0967 -0.0039  0.5282
 3345TIP3    H131450   3.168   4.634   4.775  1.6118  0.3256 -0.3235
 3345TIP3    H231451   3.205   4.522   4.869 -2.0206  0.1431  0.9800
 3346TIP3   OH231452   2.728   5.430  16.364 -0.0602  0.7985  0.1415
 3346TIP3    H131453   2.753   5.511  16.319  2.1185 -0.0446 -0.2518
 3346TIP3    H231454   2.739   5.362  16.298 -2.5230  0.2412  0.2782
 3347TIP3   OH231455   3.364   3.607  14.133 -0.0708  0.1466 -0.4571
 3347TIP3    H131456   3.358   3.571  14.045  0.2879 -0.0061 -0.4239
 3347TIP3    H231457   3.450   3.648  14.136 -0.7747  1.6550 -0.7329
 3348TIP3   OH231458   5.461   6.453  15.677 -0.0404  0.1719  0.5602
 3348TIP3    H131459   5.509   6.470  15.596 -1.0677  0.9534  0.1082
 3348TIP3    H231460   5.510   6.383  15.720 -0.5344 -1.5692 -1.6401
 3349TIP3   OH231461   6.367   5.659   0.859  0.2315 -0.0650 -0.3655
 3349TIP3    H131462   6.279   5.646   0.895  1.4147  0.8292  3.0224
 3349TIP3    H231463   6.353   5.669   0.764 -3.2142 -0.6093  0.0231
 3350TIP3   OH231464   3.055   2.859   0.975 -0.2006 -0.1215 -0.3018
 3350TIP3    H131465   3.034   2.766   0.981  0.2083 -0.2300 -0.5511
 3350TIP3    H231466   3.063   2.888   1.065 -1.7166 -0.0143 -0.1944
 3351TIP3   OH231467   4.102   4.317  13.023  0.2036  0.3527  0.0557
 3351TIP3    H131468   4.075   4.294  13.112  0.4893 -2.7294 -0.6319
 3351TIP3    H231469   4.051   4.261  12.966  0.2931  2.0508 -1.7604
 3352TIP3   OH231470   4.284   4.136   2.791 -0.3026  0.7595 -0.1835
 3352TIP3    H131471   4.346   4.071   2.824 -1.8636 -1.1847 -0.9922
 3352TIP3    H231472   4.331   4.219   2.797  1.5848 -0.3706  1.2572
 3353TIP3   OH231473   2.512   0.970  15.911  0.0778  0.0031  0.3608
 3353TIP3    H131474   2.459   0.920  15.973  0.9851 -1.0584  0.2912
 3353TIP3    H231475   2.479   0.942  15.825 -0.9162  1.1853  0.3464
 3354TIP3   OH231476   2.276   6.773  14.163  0.2098 -0.2254  0.3959
 3354TIP3    H131477   2.346   6.794  14.101  0.9652 -1.6916  0.7247
 3354TIP3    H231478   2.301   6.688  14.200 -1.8700 -0.9029  0.3285
 3355TIP3   OH231479   2.419   6.199   0.028  0.1305 -0.1769 -0.2765
 3355TIP3    H131480   2.463   6.139   0.088  0.5111  2.2983  2.0163
 3355TIP3    H231481   2.474   6.277   0.027 -1.4455  0.9640 -1.5552
 3356TIP3   OH231482   3.065   1.779   1.885 -0.4224 -0.4967 -0.4318
 3356TIP3    H131483   3.110   1.858   1.855  0.2112 -0.4273  0.6758
 3356TIP3    H231484   2.973   1.805   1.890  0.1962  1.2427  3.2111
 3357TIP3   OH231485   2.280   2.701  16.691  0.2967  0.0444  0.1765
 3357TIP3    H131486   2.321   2.622  16.657 -1.4243 -0.5965 -0.4449
 3357TIP3    H231487   2.207   2.719  16.631 -1.4999  0.0861  2.2837
 3358TIP3   OH231488   6.010   5.755  10.470  0.8394 -0.3403 -0.0420
 3358TIP3    H131489   5.982   5.836  10.512 -0.5716 -0.7501 -0.1504
 3358TIP3    H231490   6.016   5.692  10.542  1.2519 -0.3203 -0.0573
 3359TIP3   OH231491   1.485   5.259   4.974 -0.2762  0.2092 -0.5078
 3359TIP3    H131492   1.456   5.258   4.883 -3.3086 -2.5792  0.3889
 3359TIP3    H231493   1.560   5.200   4.977 -1.3712 -1.2243 -0.8827
 3360TIP3   OH231494   2.542   4.875  14.336 -0.0386 -0.1540 -0.7116
 3360TIP3    H131495   2.539   4.947  14.273 -0.5057 -0.5022 -1.0822
 3360TIP3    H231496   2.472   4.816  14.310  1.2351 -1.4589 -1.2582
 3361TIP3   OH231497   2.257   4.805  12.782  0.1414  0.1591 -0.1216
 3361TIP3    H131498   2.282   4.898  12.780  0.4919  0.0843  0.7036
 3361TIP3    H231499   2.179   4.800  12.726 -1.1539  1.3200  1.5489
 3362TIP3   OH231500   0.133   1.120  15.939 -0.3390 -0.2627 -0.1533
 3362TIP3    H131501   0.155   1.192  15.998  1.9614 -0.3632 -0.8348
 3362TIP3    H231502   0.055   1.080  15.977  0.4884  0.3275  2.2281
 3363TIP3   OH231503   5.792   5.998  12.423 -0.1413 -0.6241 -0.3455
 3363TIP3    H131504   5.769   6.056  12.351  1.1001  0.0411 -0.2187
 3363TIP3    H231505   5.883   5.972  12.406 -0.4514 -1.9900 -0.0365
 3364TIP3   OH231506   2.769   0.721  14.159  0.4998 -0.0735  0.1800
 3364TIP3    H131507   2.756   0.797  14.217 -0.0750 -0.9820  1.2637
 3364TIP3    H231508   2.754   0.755  14.071  1.3495  1.3286  0.5686
 3365TIP3   OH231509   6.455   6.042  17.208  0.0233  0.1636 -0.7069
 3365TIP3    H131510   6.520   5.974  17.190 -1.5779 -1.2280 -1.3706
 3365TIP3    H231511   6.406   6.009  17.284 -0.1971  0.9947 -0.4809
 3366TIP3   OH231512   3.607   5.379  15.777  0.3603 -0.1525  0.6603
 3366TIP3    H131513   3.665   5.391  15.702  0.1046 -2.7468 -0.0145
 3366TIP3    H231514   3.518   5.386  15.741  0.2426 -0.9435  0.7673
 3367TIP3   OH231515   4.167   3.845   1.058  0.8222  0.5121  0.7973
 3367TIP3    H131516   4.255   3.828   1.094  0.7544  0.4006  0.9112
 3367TIP3    H231517   4.115   3.871   1.134  0.6344  0.1104  0.8064
 3368TIP3   OH231518   1.104   4.326   3.834 -0.5868  0.0029 -0.5467
 3368TIP3    H131519   1.105   4.272   3.913  0.1339  0.8555  0.0181
 3368TIP3    H231520   1.033   4.287   3.781 -0.5079 -1.0984  0.1269
 3369TIP3   OH231521   1.790   2.448   4.559  0.3636  0.0338  0.2712
 3369TIP3    H131522   1.739   2.457   4.639 -0.7670  1.2985 -0.5716
 3369TIP3    H231523   1.854   2.519   4.564 -0.1273  0.5092 -0.2579
 3370TIP3   OH231524   5.274   5.582   2.930 -0.3927 -0.5659  0.0127
 3370TIP3    H131525   5.305   5.522   2.998 -1.0271 -1.4110 -0.4421
 3370TIP3    H231526   5.293   5.669   2.966  0.2680 -1.0180  0.7994
 3371TIP3   OH231527   4.503   5.191  16.138 -0.2225 -0.6524 -0.0454
 3371TIP3    H131528   4.540   5.194  16.226 -1.0158 -3.2586  0.4095
 3371TIP3    H231529   4.415   5.154  16.150 -1.5594  1.8652 -1.5804
 3372TIP3   OH231530   4.187   3.642  13.882  0.4038  0.3290 -0.4562
 3372TIP3    H131531   4.196   3.550  13.908  1.6230  0.3637 -0.7023
 3372TIP3    H231532   4.157   3.638  13.791  1.4540  0.1538 -0.8037
 3373TIP3   OH231533   4.738   0.909   4.964  0.0391  0.4644 -0.2150
 3373TIP3    H131534   4.675   0.978   4.984 -1.3324 -0.9076  0.3275
 3373TIP3    H231535   4.719   0.840   5.028  2.6887  0.3631  0.5360
 3374TIP3   OH231536   1.788   4.034  13.566  0.0318 -0.3344 -0.1052
 3374TIP3    H131537   1.835   4.008  13.486  0.8092  0.3749  0.1140
 3374TIP3    H231538   1.736   4.110  13.540 -1.1488 -1.2377 -0.3941
 3375TIP3   OH231539   1.398   0.197   3.176  0.5106  0.5148  0.4896
 3375TIP3    H131540   1.400   0.251   3.098 -0.4463  0.9298  0.7483
 3375TIP3    H231541   1.323   0.139   3.164  0.5184  0.3986  0.9729
 3376TIP3   OH231542   1.724   6.638   4.878  0.1308  0.4279  0.1701
 3376TIP3    H131543   1.692   6.642   4.787  1.8355  2.5751 -0.3770
 3376TIP3    H231544   1.805   6.587   4.872 -0.2961 -0.3154  0.6679
 3377TIP3   OH231545   5.643   1.797  14.422 -0.4277 -0.2499 -0.3790
 3377TIP3    H131546   5.688   1.760  14.498  0.4524  1.2407 -0.1585
 3377TIP3    H231547   5.571   1.737  14.406 -0.4108 -0.7895  1.4089
 3378TIP3   OH231548   1.728   2.930  14.380 -0.5641  0.3022  0.4879
 3378TIP3    H131549   1.698   2.849  14.340 -1.2696 -0.0465  1.6991
 3378TIP3    H231550   1.797   2.903  14.440 -0.9026  0.5681  1.0033
 3379TIP3   OH231551   2.948   1.340  16.027 -0.2313 -0.3861  0.0407
 3379TIP3    H131552   2.864   1.373  16.059  0.0453 -1.0535  1.5178
 3379TIP3    H231553   2.932   1.315  15.937 -0.8378  2.3432 -0.6721
 3380TIP3   OH231554   4.753   1.429  13.447  0.6282  0.1584  0.1097
 3380TIP3    H131555   4.672   1.458  13.488  0.7116  0.9015 -0.2415
 3380TIP3    H231556   4.816   1.424  13.519  0.5946  0.7983  0.1901
 3381TIP3   OH231557   0.710   1.054   2.520  0.3353  0.6480  0.1522
 3381TIP3    H131558   0.739   1.145   2.513  1.1585  0.5091  1.7893
 3381TIP3    H231559   0.729   1.028   2.610  0.3013 -1.2248 -0.3521
 3382TIP3   OH231560   0.935   3.188  12.815  0.5382  0.1790 -0.2266
 3382TIP3    H131561   1.031   3.183  12.821  0.6888  2.8131  0.0291
 3382TIP3    H231562   0.919   3.262  12.756 -1.3387  0.2900  0.4110
 3383TIP3   OH231563   5.398   5.600  16.995  0.2542 -0.6071 -0.5573
 3383TIP3    H131564   5.309   5.593  16.960 -0.4579 -0.1844  1.1047
 3383TIP3    H231565   5.388   5.578  17.088  1.5567  1.4057  0.0828
 3384TIP3   OH231566   3.438   6.196  13.245 -0.3955 -0.2128  0.4585
 3384TIP3    H131567   3.516   6.156  13.205 -1.2686 -1.3250 -0.1552
 3384TIP3    H231568   3.396   6.244  13.174  1.1278  2.6204  1.3926
 3385TIP3   OH231569   1.425   0.641  11.439 -0.1637 -0.1055  0.1358
 3385TIP3    H131570   1.493   0.622  11.375 -0.0520 -1.1937  0.5779
 3385TIP3    H231571   1.470   0.691  11.507  0.1600 -0.7103  0.3650
 3386TIP3   OH231572   0.995   4.809   3.033  0.3607  0.1724 -0.1968
 3386TIP3    H131573   0.998   4.857   2.950  1.3263 -0.1524 -0.3617
 3386TIP3    H231574   0.911   4.764   3.032 -0.3627  1.5130 -0.2312
 3387TIP3   OH231575   0.894   0.652  17.170  0.6240  0.3798 -0.1909
 3387TIP3    H131576   0.971   0.650  17.114  0.1820 -0.1279 -0.7930
 3387TIP3    H231577   0.841   0.577  17.141  0.7338 -0.3273  1.3798
 3388TIP3   OH231578   1.642   1.999  14.614  0.1585 -0.2969  0.7843
 3388TIP3    H131579   1.555   2.035  14.631  0.2534  0.1219  0.3984
 3388TIP3    H231580   1.636   1.907  14.640 -0.5099 -0.3658  0.4029
 3389TIP3   OH231581   0.722   5.339  13.560 -0.3664 -0.3656 -0.1517
 3389TIP3    H131582   0.793   5.315  13.620  0.3631  0.6768 -0.5904
 3389TIP3    H231583   0.706   5.432  13.578 -2.0312 -0.7343  0.3694
 3390TIP3   OH231584   3.677   1.754   6.270 -0.1428 -0.5989 -0.0909
 3390TIP3    H131585   3.767   1.722   6.269  0.2242  0.4017 -1.9599
 3390TIP3    H231586   3.686   1.849   6.258 -1.4574 -0.5699 -0.9087
 3391TIP3   OH231587   5.285   0.468   0.053  0.2585 -0.6792 -0.0752
 3391TIP3    H131588   5.337   0.426   0.122 -0.2298 -0.9219  0.1470
 3391TIP3    H231589   5.196   0.433   0.065 -0.1646  0.4465  0.1305
 3392TIP3   OH231590   4.064   1.133  15.178 -0.1680 -0.0862  0.1473
 3392TIP3    H131591   4.086   1.171  15.093  0.6267  1.1743  0.9126
 3392TIP3    H231592   4.133   1.067  15.193 -1.5474 -1.8826 -1.1729
 3393TIP3   OH231593   4.403   2.054  15.046  0.2975 -0.8097  0.2826
 3393TIP3    H131594   4.368   2.030  14.961  0.2976  3.0192 -0.8741
 3393TIP3    H231595   4.353   2.131  15.072  1.7203 -0.6731  2.7977
 3394TIP3   OH231596   0.936   1.587   3.833  0.1587  0.1454 -0.6467
 3394TIP3    H131597   0.863   1.541   3.874  0.3939 -1.4005 -1.9146
 3394TIP3    H231598   0.894   1.654   3.780 -0.3423 -0.5307 -1.1204
 3395TIP3   OH231599   5.758   0.045   5.370 -0.3100  0.6388 -0.0796
 3395TIP3    H131600   5.771   0.018   5.461  3.0373  0.6190 -0.4963
 3395TIP3    H231601   5.664   0.038   5.356 -0.7997 -0.0710  3.1563
 3396TIP3   OH231602   4.975   1.993  12.864  0.1624  0.0717  0.6848
 3396TIP3    H131603   4.919   1.964  12.792  1.7534  1.3663 -1.1223
 3396TIP3    H231604   4.938   2.077  12.891  0.3364  0.1974  0.5267
 3397TIP3   OH231605   0.746   6.322   1.860 -0.6886  0.2667 -0.6997
 3397TIP3    H131606   0.816   6.291   1.804 -0.0589  0.1276  0.1556
 3397TIP3    H231607   0.746   6.417   1.848  1.0826  0.4834  0.9499
 3398TIP3   OH231608   5.052   2.354  14.430 -0.1789 -0.5116  0.2033
 3398TIP3    H131609   5.077   2.422  14.369 -0.1531  0.1081  0.8988
 3398TIP3    H231610   5.113   2.363  14.503 -0.5162 -0.9291  0.5445
 3399TIP3   OH231611   5.300   5.011  11.836 -0.3025 -0.0514 -0.4177
 3399TIP3    H131612   5.212   5.046  11.850 -0.6932 -1.2946  0.2754
 3399TIP3    H231613   5.358   5.086  11.850 -1.1855  0.5246  0.1638
 3400TIP3   OH231614   0.138   5.470  13.521  0.1967 -0.5740  0.3309
 3400TIP3    H131615   0.189   5.423  13.587  0.9427  0.0289  0.1959
 3400TIP3    H231616   0.062   5.503  13.569 -1.0969 -3.1462  0.0982
 3401TIP3   OH231617   4.934   2.726   6.408 -0.2047  0.0477 -0.2158
 3401TIP3    H131618   4.930   2.662   6.337  3.1968 -1.7894  1.1082
 3401TIP3    H231619   5.026   2.755   6.409 -0.6331  1.4638  2.1439
 3402TIP3   OH231620   1.658   2.299   1.857  0.0797 -0.2989 -0.2192
 3402TIP3    H131621   1.675   2.278   1.766 -1.2928  0.7475 -0.7320
 3402TIP3    H231622   1.723   2.367   1.878  1.4728 -1.6821  0.0948
 3403TIP3   OH231623   4.623   5.146   4.599  0.1096 -0.2953  0.0826
 3403TIP3    H131624   4.609   5.148   4.693  0.5562  0.3291  0.1358
 3403TIP3    H231625   4.562   5.079   4.567  0.7265 -1.2743  0.9426
 3404TIP3   OH231626   2.511   6.632   5.697 -0.4877  0.1386 -0.3436
 3404TIP3    H131627   2.541   6.548   5.732 -0.9978  0.8894  1.9666
 3404TIP3    H231628   2.449   6.608   5.628 -1.0286 -1.4071  0.6339
 3405TIP3   OH231629   3.779   5.912  13.971 -0.0695 -0.6817 -0.1184
 3405TIP3    H131630   3.752   6.000  13.941  1.3194  0.2497  1.3035
 3405TIP3    H231631   3.774   5.858  13.892 -2.5673  0.2725 -0.6720
 3406TIP3   OH231632   4.428   0.385   6.167  0.0645 -0.4251  0.2817
 3406TIP3    H131633   4.399   0.415   6.081  0.7267  0.8784  0.4910
 3406TIP3    H231634   4.389   0.299   6.177 -2.6787  0.7323  0.0085
 3407TIP3   OH231635   2.856   4.182  12.280  0.1959  0.4368  0.1164
 3407TIP3    H131636   2.805   4.256  12.247 -1.3912 -0.9143 -0.5379
 3407TIP3    H231637   2.929   4.174  12.219  0.6649  1.7505  0.4727
 3408TIP3   OH231638   5.452   5.232   1.553  0.3746  0.3564  1.3026
 3408TIP3    H131639   5.390   5.288   1.507  1.3439  0.8207  0.5413
 3408TIP3    H231640   5.522   5.292   1.582  0.7720 -0.2472  1.6095
 3409TIP3   OH231641   0.967   6.484   1.539 -0.1436 -0.1666  0.2136
 3409TIP3    H131642   1.016   6.410   1.504 -0.7303 -0.2529 -0.4132
 3409TIP3    H231643   1.003   6.560   1.493  0.5852 -0.0336  0.9869
 3410TIP3   OH231644   4.827   3.625   3.983  0.1069  0.5150  0.2721
 3410TIP3    H131645   4.820   3.553   4.046 -1.7709  1.2204  0.9279
 3410TIP3    H231646   4.747   3.619   3.931  1.7577 -0.1962 -2.2317
 3411TIP3   OH231647   2.340   3.482   2.029 -0.3842  0.2899 -0.3669
 3411TIP3    H131648   2.306   3.529   1.952 -0.2022 -0.2184 -0.7594
 3411TIP3    H231649   2.392   3.411   1.992 -1.0761 -0.5296  0.2184
 3412TIP3   OH231650   5.449   1.311   5.157  0.3451 -0.4456  0.2463
 3412TIP3    H131651   5.430   1.387   5.102  0.6963 -0.8838 -0.4834
 3412TIP3    H231652   5.538   1.286   5.133  0.2061 -1.1338  0.4389
 3413TIP3   OH231653   0.902   5.973  16.422  0.7535  0.3142  0.1444
 3413TIP3    H131654   0.808   5.957  16.415  0.7542 -0.2265  1.3290
 3413TIP3    H231655   0.910   6.055  16.469  0.8748  0.4690 -0.1447
 3414TIP3   OH231656   0.372   3.689   4.332  0.1703 -0.1744 -0.2792
 3414TIP3    H131657   0.434   3.738   4.385  2.5971 -0.9338 -2.3380
 3414TIP3    H231658   0.369   3.735   4.248 -1.8485 -0.3267 -0.3376
 3415TIP3   OH231659   4.749   1.233   2.847  0.0949 -0.2444  0.0139
 3415TIP3    H131660   4.735   1.192   2.933 -1.8853 -1.4196 -0.8264
 3415TIP3    H231661   4.772   1.324   2.867  1.2020 -0.8973  1.8227
 3416TIP3   OH231662   4.744   3.884   2.116  0.8125 -0.1117 -0.2779
 3416TIP3    H131663   4.657   3.889   2.157  0.5897  2.4391 -1.0159
 3416TIP3    H231664   4.804   3.869   2.190 -0.0347  0.0407  0.4529
 3417TIP3   OH231665   3.983   6.444   2.069  0.0868 -0.2518  0.3354
 3417TIP3    H131666   3.952   6.355   2.085  1.0748 -0.7661 -0.5687
 3417TIP3    H231667   3.904   6.492   2.042 -0.0953 -1.3627 -1.1767
 3418TIP3   OH231668   0.651   4.484   2.992 -0.2726  0.2069  0.3341
 3418TIP3    H131669   0.556   4.489   2.983 -0.2695 -2.7105 -2.0879
 3418TIP3    H231670   0.681   4.573   2.976 -2.4126  0.5676 -2.0727
 3419TIP3   OH231671   5.083   3.899  11.509  0.1817  0.3943 -0.2112
 3419TIP3    H131672   5.027   3.927  11.582  2.7639  1.1667  1.5199
 3419TIP3    H231673   5.042   3.818  11.479 -1.6290  0.6963  1.2999
 3420TIP3   OH231674   0.879   2.828  16.124 -0.5167  0.0279  0.6605
 3420TIP3    H131675   0.943   2.803  16.058 -1.3578 -0.7983  0.1531
 3420TIP3    H231676   0.903   2.918  16.147  0.8622 -0.2906  0.5304
 3421TIP3   OH231677   5.435   2.217   2.358 -0.4697  0.0744 -0.2505
 3421TIP3    H131678   5.530   2.219   2.346 -0.5908  0.1286 -1.1810
 3421TIP3    H231679   5.423   2.238   2.451  0.4478 -0.3505 -0.0263
 3422TIP3   OH231680   3.331   1.766  10.931 -0.7840  0.6857  0.2231
 3422TIP3    H131681   3.375   1.851  10.932  2.5390 -0.9780  2.0801
 3422TIP3    H231682   3.360   1.725  10.850 -0.9787  0.6144  0.1901
 3423TIP3   OH231683   1.785   2.220  12.318  0.5418  0.2727 -0.3767
 3423TIP3    H131684   1.771   2.182  12.405 -0.7783 -0.0263 -0.7164
 3423TIP3    H231685   1.727   2.296  12.315  0.5345  0.2443 -1.0284
 3424TIP3   OH231686   5.798   0.804  15.288 -0.1553  0.1620 -0.1368
 3424TIP3    H131687   5.788   0.870  15.220 -2.3699  0.9439  0.8848
 3424TIP3    H231688   5.824   0.854  15.366  1.4267 -0.6025 -0.1558
 3425TIP3   OH231689   1.858   0.014   2.276 -0.5910  0.0597 -0.3612
 3425TIP3    H131690   1.780   0.046   2.322 -1.3685 -1.5622 -0.5122
 3425TIP3    H231691   1.853  -0.082   2.283  1.2589 -0.0812 -0.5922
 3426TIP3   OH231692   5.149   0.380   5.118 -0.6672 -0.3811  0.3620
 3426TIP3    H131693   5.128   0.463   5.075 -1.8816 -0.9472 -0.1651
 3426TIP3    H231694   5.244   0.379   5.123 -0.5007 -0.2961 -2.3503
 3427TIP3   OH231695   4.721   1.109  12.177  0.1899  0.3059  0.0927
 3427TIP3    H131696   4.642   1.064  12.147 -0.4705 -1.5888  4.1680
 3427TIP3    H231697   4.697   1.201  12.182 -0.4027  0.3154 -2.6624
 3428TIP3   OH231698   1.338   1.774   4.123  0.2011  0.1243  0.0789
 3428TIP3    H131699   1.425   1.809   4.105 -0.7925  1.8561 -1.5584
 3428TIP3    H231700   1.288   1.849   4.157 -0.5407 -0.9399  1.3706
 3429TIP3   OH231701   4.328   0.282  10.259 -0.3220  0.1101 -0.2628
 3429TIP3    H131702   4.285   0.243  10.183 -0.7562 -1.3373  0.6995
 3429TIP3    H231703   4.399   0.335  10.222  1.5068 -3.0743 -1.5904
 3430TIP3   OH231704   3.148   0.310  13.378 -0.3134  0.0937  0.3319
 3430TIP3    H131705   3.219   0.268  13.328  0.7410 -0.1391  1.9903
 3430TIP3    H231706   3.069   0.264  13.351  0.2921 -0.2675 -0.8544
 3431TIP3   OH231707   4.823   4.601   4.506 -0.0856 -0.0983  0.0209
 3431TIP3    H131708   4.915   4.626   4.502  0.1925 -1.0239  0.5211
 3431TIP3    H231709   4.817   4.540   4.579 -1.0269 -0.3467 -0.2465
 3432TIP3   OH231710   2.482   2.919   4.129 -0.1295  0.5361  0.3695
 3432TIP3    H131711   2.503   2.877   4.212  0.5127  0.9795  0.4325
 3432TIP3    H231712   2.500   2.852   4.063  0.5688  0.6026  0.4938
 3433TIP3   OH231713   4.001   0.874   3.286  0.1917 -0.3132  0.6607
 3433TIP3    H131714   4.044   0.844   3.367 -0.0228  0.6490  1.1304
 3433TIP3    H231715   3.923   0.921   3.316 -0.8591 -1.5018 -0.1752
 3434TIP3   OH231716   0.322   4.714   1.814  0.0668  0.3076 -0.1106
 3434TIP3    H131717   0.375   4.697   1.737 -1.3379  0.3237 -1.0953
 3434TIP3    H231718   0.270   4.792   1.792 -1.6035 -0.6904  0.1719
 3435TIP3   OH231719   6.074   1.984   6.033  0.2001  0.1948  0.0505
 3435TIP3    H131720   6.162   1.951   6.017 -0.9798 -2.8745 -0.4608
 3435TIP3    H231721   6.036   1.923   6.096 -2.3954 -0.0448 -1.6448
 3436TIP3   OH231722   3.918   2.594  13.868 -0.3089  0.4206 -0.8042
 3436TIP3    H131723   3.988   2.616  13.806 -0.8097  1.8139 -0.8966
 3436TIP3    H231724   3.861   2.535  13.818 -0.3131  0.9447 -1.4327
 3437TIP3   OH231725   2.410   1.024  15.246  0.4398  0.1575  0.1262
 3437TIP3    H131726   2.326   1.030  15.290  0.2848 -1.2899  0.0686
 3437TIP3    H231727   2.475   1.023  15.316  0.3112 -0.1611  0.2438
 3438TIP3   OH231728   0.633   1.408   1.478 -0.6800 -0.1770 -0.6069
 3438TIP3    H131729   0.633   1.494   1.437 -3.0002 -1.2051 -2.9457
 3438TIP3    H231730   0.719   1.372   1.459  0.6065  1.8767  1.0619
 3439TIP3   OH231731   6.189   1.767  12.816 -0.1619  0.0163  0.2920
 3439TIP3    H131732   6.117   1.744  12.757 -1.3232 -1.9337  2.3893
 3439TIP3    H231733   6.228   1.683  12.840  1.3126  0.8868  1.0361
 3440TIP3   OH231734   0.379   2.074  12.893 -0.0935  0.1410 -0.4486
 3440TIP3    H131735   0.368   1.987  12.855  1.2544  0.1277 -0.8159
 3440TIP3    H231736   0.473   2.082  12.908 -0.6100 -0.0906  3.4646
 3441TIP3   OH231737   4.312   3.813   0.628 -0.1171  0.5553  0.3338
 3441TIP3    H131738   4.301   3.772   0.714  0.2661  0.8831  0.5442
 3441TIP3    H231739   4.403   3.844   0.628 -0.0898  0.4757 -0.2261
 3442TIP3   OH231740   2.636   6.326  13.808 -0.1530 -0.7954 -0.7325
 3442TIP3    H131741   2.689   6.292  13.880 -0.3243 -2.5562 -1.4060
 3442TIP3    H231742   2.583   6.251  13.780 -1.5290  0.4045 -1.3889
 3443TIP3   OH231743   3.802   6.658  11.826 -0.6398 -0.6220 -0.0499
 3443TIP3    H131744   3.713   6.635  11.799 -0.2751 -0.1523 -1.7506
 3443TIP3    H231745   3.791   6.729  11.889 -1.4884 -1.0304  0.2722
 3444TIP3   OH231746   1.605   0.811  12.444 -0.8624 -0.0368 -0.1180
 3444TIP3    H131747   1.688   0.845  12.409 -1.0287 -0.2631 -0.7384
 3444TIP3    H231748   1.631   0.745  12.508 -0.5354  1.2231  1.0785
 3445TIP3   OH231749   2.479   6.520  12.889 -0.0512  0.4409  0.1707
 3445TIP3    H131750   2.522   6.588  12.838  0.5835  0.6088  0.9250
 3445TIP3    H231751   2.474   6.555  12.978 -1.6937  0.3974  0.1109
 3446TIP3   OH231752   3.243   5.009  16.603  0.1367 -0.0869 -0.5264
 3446TIP3    H131753   3.322   4.973  16.644  0.5294  2.0923  0.6959
 3446TIP3    H231754   3.273   5.087  16.557 -1.4692  1.5032  1.0064
 3447TIP3   OH231755   1.967   0.930   2.056  0.5624 -0.3993 -0.6116
 3447TIP3    H131756   2.036   0.864   2.053 -0.4222 -1.4467 -0.9262
 3447TIP3    H231757   1.894   0.890   2.009 -0.8501 -0.0404  1.2008
 3448TIP3   OH231758   2.519   5.161   2.354 -0.0154  0.8294  0.2587
 3448TIP3    H131759   2.574   5.220   2.406  1.7189  1.1284 -1.7925
 3448TIP3    H231760   2.580   5.122   2.291 -2.0100  0.4564 -1.4881
 3449TIP3   OH231761   2.024   0.534   2.442  0.6499 -0.3685  0.5079
 3449TIP3    H131762   2.117   0.514   2.454  0.7917  0.5211  0.8875
 3449TIP3    H231763   2.020   0.580   2.358  0.1409 -3.1686 -1.0937
 3450TIP3   OH231764   3.483   2.749   3.677  0.1615 -1.1511 -0.5488
 3450TIP3    H131765   3.457   2.690   3.748 -0.7592 -0.6317 -0.4484
 3450TIP3    H231766   3.563   2.710   3.642 -1.4520 -3.5261 -1.7222
 3451TIP3   OH231767   6.614   5.747  14.982  0.3294 -0.0669 -0.6230
 3451TIP3    H131768   6.540   5.688  14.994 -0.0662  0.4836 -0.3499
 3451TIP3    H231769   6.662   5.709  14.908  1.7288 -2.4186  1.3957
 3452TIP3   OH231770   6.527   4.896   2.581  0.1919 -0.0158  0.5417
 3452TIP3    H131771   6.595   4.881   2.516  0.4711 -0.3354  0.8968
 3452TIP3    H231772   6.569   4.875   2.665 -1.0798 -2.7703  0.5442
 3453TIP3   OH231773   4.291   4.136   4.204 -0.4295 -0.4673 -0.2779
 3453TIP3    H131774   4.319   4.122   4.114  1.1018 -2.4911  0.4721
 3453TIP3    H231775   4.230   4.065   4.222 -1.7777  0.6984 -0.0991
 3454TIP3   OH231776   2.673   0.441   5.118  0.2641 -0.2250 -0.3171
 3454TIP3    H131777   2.725   0.518   5.096  0.5749 -1.0583 -2.7650
 3454TIP3    H231778   2.737   0.377   5.149  0.6393 -0.9850 -2.5799
 3455TIP3   OH231779   2.928   3.681  12.978  0.2393 -0.0093  0.1097
 3455TIP3    H131780   2.967   3.726  12.903  0.7493  1.1119  1.0301
 3455TIP3    H231781   2.929   3.588  12.954 -0.7040  0.4387 -1.7736
 3456TIP3   OH231782   1.438   0.862  15.162 -0.1520 -0.0172 -0.2965
 3456TIP3    H131783   1.482   0.926  15.218 -0.6616  0.7748 -0.7861
 3456TIP3    H231784   1.509   0.819  15.115  0.1952  0.2612 -0.0321
 3457TIP3   OH231785   4.449   6.375  14.993  0.7209 -0.3086 -0.3168
 3457TIP3    H131786   4.435   6.345  15.082 -0.2665  1.1933  0.0605
 3457TIP3    H231787   4.482   6.298  14.946 -3.1851 -2.4458  0.2168
 3458TIP3   OH231788   4.827   6.353  15.455  0.1755 -0.4564 -0.0494
 3458TIP3    H131789   4.767   6.279  15.464  0.5081 -0.6822  0.3692
 3458TIP3    H231790   4.800   6.397  15.375  0.0509 -1.1026 -0.3621
 3459TIP3   OH231791   6.278   3.065   4.611 -0.3140  0.0324  0.5618
 3459TIP3    H131792   6.221   3.065   4.533 -1.3690 -0.9052  1.3289
 3459TIP3    H231793   6.220   3.042   4.683  0.6749  0.8587  1.6422
 3460TIP3   OH231794   1.059   2.750  10.719  0.3284 -0.4093  0.1990
 3460TIP3    H131795   1.045   2.712  10.805 -0.3407 -1.5154 -0.3827
 3460TIP3    H231796   1.044   2.844  10.730 -1.1218 -0.7329  0.9827
 3461TIP3   OH231797   2.020   1.276   5.330  0.2115 -0.2372  0.5061
 3461TIP3    H131798   1.936   1.314   5.305  0.5899 -0.6688 -1.4811
 3461TIP3    H231799   2.063   1.344   5.383 -1.3818 -0.0268  1.5399
 3462TIP3   OH231800   4.184   0.058   5.676  0.2310  0.2038 -0.1522
 3462TIP3    H131801   4.219  -0.022   5.635  0.3492  0.5071 -0.6520
 3462TIP3    H231802   4.102   0.030   5.717  0.1312 -0.1135 -0.5628
 3463TIP3   OH231803   1.891   5.373   5.929  0.1861 -0.0145 -0.0043
 3463TIP3    H131804   1.871   5.463   5.955  0.4540 -0.2365  1.0183
 3463TIP3    H231805   1.985   5.374   5.908  0.1046  0.0299 -0.3673
 3464TIP3   OH231806   5.837   3.232   5.137  0.1035  0.6620  0.8740
 3464TIP3    H131807   5.746   3.261   5.136 -0.2810 -0.5378  0.9442
 3464TIP3    H231808   5.856   3.211   5.045  0.0014 -0.0415  1.0131
 3465TIP3   OH231809   2.432   1.128   6.654 -0.6802 -0.3646 -0.1501
 3465TIP3    H131810   2.447   1.129   6.559  1.7292 -2.4011  0.1488
 3465TIP3    H231811   2.509   1.083   6.690 -1.5119  0.4429  2.7929
 3466TIP3   OH231812   4.164   4.833  16.186 -0.2351 -0.0298 -0.0194
 3466TIP3    H131813   4.215   4.806  16.110 -1.1526  1.1521 -1.0704
 3466TIP3    H231814   4.154   4.753  16.238  0.4301 -0.8343 -1.1156
 3467TIP3   OH231815   3.150   1.182  16.663 -0.3244 -0.9792 -0.4740
 3467TIP3    H131816   3.063   1.168  16.626  0.8214  0.0689 -3.7583
 3467TIP3    H231817   3.174   1.270  16.635  0.5824 -0.0765  2.9963
 3468TIP3   OH231818   6.163   2.004  12.619 -0.2272  0.2395 -0.1383
 3468TIP3    H131819   6.210   2.042  12.694  0.5000  0.4328 -0.6826
 3468TIP3    H231820   6.134   1.918  12.650  0.5590  0.0813  0.1868
 3469TIP3   OH231821   3.060   5.620   1.883 -0.6361  0.3433 -0.5609
 3469TIP3    H131822   3.043   5.551   1.819  0.8982  0.9537 -1.6646
 3469TIP3    H231823   2.974   5.641   1.919 -1.1168 -2.1933 -0.1359
 3470TIP3   OH231824   4.830   0.113  16.452  0.2327  0.2941 -0.4345
 3470TIP3    H131825   4.883   0.126  16.531 -1.0440  0.0488  0.4721
 3470TIP3    H231826   4.801   0.022  16.457 -0.3844  0.4646 -0.8536
 3471TIP3   OH231827   4.705   3.500  13.023  0.2953 -0.0837  0.0206
 3471TIP3    H131828   4.684   3.497  12.930  0.9785 -1.8373 -0.0922
 3471TIP3    H231829   4.658   3.577  13.056 -0.2104  0.3578 -1.6971
 3472TIP3   OH231830   0.042   6.435  10.461  0.5395 -0.5176  0.2670
 3472TIP3    H131831   0.044   6.431  10.557  0.2811  2.1058  0.4166
 3472TIP3    H231832   0.069   6.347  10.433 -0.2026 -1.5902  2.7261
 3473TIP3   OH231833   3.742   1.346   0.328  0.2685 -0.2460  0.8401
 3473TIP3    H131834   3.749   1.257   0.292  2.2680  0.2192  0.0164
 3473TIP3    H231835   3.734   1.402   0.251 -1.7303  0.2468  1.3860
 3474TIP3   OH231836   4.754   1.478  12.955  0.0738 -0.3520  0.0793
 3474TIP3    H131837   4.772   1.476  13.049 -0.8528  2.0974  0.3406
 3474TIP3    H231838   4.829   1.524  12.917 -0.9985  1.3687  0.0098
 3475TIP3   OH231839   0.497   5.975   1.216  0.1820  0.2571 -0.5366
 3475TIP3    H131840   0.555   6.030   1.269  0.7774 -0.5501 -0.3261
 3475TIP3    H231841   0.461   6.033   1.149 -2.5145  1.9137  2.2130
 3476TIP3   OH231842   1.808   1.281   5.747 -0.2215 -0.3154  0.2651
 3476TIP3    H131843   1.751   1.319   5.814  1.8547  1.8052  0.9110
 3476TIP3    H231844   1.865   1.221   5.796  1.3597  1.3081  0.4666
 3477TIP3   OH231845   2.744   1.377   2.410  0.3966  0.0768 -0.3981
 3477TIP3    H131846   2.799   1.298   2.408 -1.3430 -1.1854  0.0033
 3477TIP3    H231847   2.796   1.443   2.365  1.7029 -1.4285 -1.1769
 3478TIP3   OH231848   4.282   4.377   3.095  0.6525 -0.4905 -0.5819
 3478TIP3    H131849   4.296   4.466   3.125  2.4888 -1.5179  1.7417
 3478TIP3    H231850   4.207   4.383   3.034  0.9134  2.6156 -0.6461
 3479TIP3   OH231851   6.213   6.106  16.149  0.3936 -0.8146 -0.3529
 3479TIP3    H131852   6.269   6.041  16.106  0.2616 -1.1171 -0.0669
 3479TIP3    H231853   6.272   6.159  16.201  0.3505 -1.4733  0.3771
 3480TIP3   OH231854   2.788   6.331  13.055  0.1330 -0.0900  0.1067
 3480TIP3    H131855   2.839   6.381  12.991 -0.7673  0.0896 -0.4839
 3480TIP3    H231856   2.744   6.398  13.108 -0.6358 -0.2448 -0.3272
 3481TIP3   OH231857   1.709   0.568  14.186 -0.1677 -0.2749  0.1594
 3481TIP3    H131858   1.745   0.650  14.152 -0.7192  0.3408  1.0418
 3481TIP3    H231859   1.717   0.506  14.114 -0.1392  0.6771 -0.6578
 3482TIP3   OH231860   3.397   0.077  12.705 -0.1968 -0.2092 -0.8041
 3482TIP3    H131861   3.461   0.100  12.772 -0.6567 -0.7710 -0.1627
 3482TIP3    H231862   3.387  -0.018  12.713 -0.4716 -0.2403 -1.4679
 3483TIP3   OH231863   6.496   4.986  12.876 -0.1547  1.0180 -0.2321
 3483TIP3    H131864   6.468   5.035  12.954 -0.7847  1.4558 -0.7223
 3483TIP3    H231865   6.591   4.978  12.885 -0.2699  0.7260  0.7716
 3484TIP3   OH231866   1.189   0.452   6.133 -0.6860 -0.2012 -0.4773
 3484TIP3    H131867   1.196   0.388   6.205 -0.4432 -0.3197 -0.6057
 3484TIP3    H231868   1.154   0.531   6.174 -1.1408 -0.4688 -0.3446
 3485TIP3   OH231869   1.840   1.251  10.808 -0.0451  0.2363 -0.2474
 3485TIP3    H131870   1.775   1.258  10.877  0.5586 -0.9792  0.4614
 3485TIP3    H231871   1.891   1.332  10.815 -0.4730  0.4682  0.2219
 3486TIP3   OH231872   1.709   3.741   3.861 -0.0066 -0.2828 -0.3036
 3486TIP3    H131873   1.685   3.832   3.877  0.2709 -0.0078 -1.3988
 3486TIP3    H231874   1.764   3.744   3.782 -1.7960 -1.6429 -1.6393
 3487TIP3   OH231875   0.455   2.516  16.857  0.0865  0.1066  0.7559
 3487TIP3    H131876   0.404   2.465  16.920  1.2928  0.8427  2.3523
 3487TIP3    H231877   0.413   2.602  16.855  0.3553  0.2444  0.9547
 3488TIP3   OH231878   0.650   2.185  13.055 -0.8084 -0.7709 -0.1636
 3488TIP3    H131879   0.668   2.278  13.039  0.0096 -1.1509 -1.5978
 3488TIP3    H231880   0.561   2.183  13.089 -1.4415  0.4133 -1.6726
 3489TIP3   OH231881   0.923   2.636   1.053 -0.1336 -0.7608  0.3541
 3489TIP3    H131882   0.960   2.709   1.103 -1.4294 -0.1573  0.4538
 3489TIP3    H231883   0.950   2.653   0.963  0.7532 -0.9216  0.5839
 3490TIP3   OH231884   1.600   0.661   3.752  0.1776  0.3366  0.0973
 3490TIP3    H131885   1.533   0.645   3.819  1.1208 -0.4443  0.8478
 3490TIP3    H231886   1.665   0.593   3.765  0.7374  0.6134 -1.1583
 3491TIP3   OH231887   2.086   1.201  11.918 -0.1126  0.7503  0.0258
 3491TIP3    H131888   2.024   1.139  11.879  0.0070 -0.2473  1.3613
 3491TIP3    H231889   2.158   1.146  11.949  0.2485  1.6103  0.7370
 3492TIP3   OH231890   4.237   5.137  16.673 -0.1214 -0.5368  0.7502
 3492TIP3    H131891   4.222   5.084  16.751  0.9874 -1.9723  0.0253
 3492TIP3    H231892   4.231   5.074  16.600  0.5340  0.4540 -0.1799
 3493TIP3   OH231893   6.372   2.686   5.226  0.3384  0.6792  0.5189
 3493TIP3    H131894   6.308   2.647   5.166 -1.5407 -0.2866  3.0654
 3493TIP3    H231895   6.443   2.622   5.229  0.7410  1.0394 -1.1588
 3494TIP3   OH231896   3.081   4.308   1.333  0.1889  0.4006 -0.0885
 3494TIP3    H131897   3.131   4.361   1.395  1.3840  1.4404 -1.8953
 3494TIP3    H231898   3.143   4.244   1.301 -0.2369  0.2949 -0.7065
 3495TIP3   OH231899   2.830   6.213  11.468 -1.0152  0.0435 -0.2652
 3495TIP3    H131900   2.805   6.135  11.418 -2.0086  0.4649 -0.4405
 3495TIP3    H231901   2.784   6.204  11.551  0.3246 -0.4594  0.4270
 3496TIP3   OH231902   3.871   0.176  15.396  0.5430  0.1633 -0.2498
 3496TIP3    H131903   3.795   0.229  15.373 -1.2126 -1.2770  2.0704
 3496TIP3    H231904   3.838   0.113  15.460  2.9608 -2.6604 -1.6941
 3497TIP3   OH231905   2.752   1.631  13.060 -0.3825 -0.0178 -0.0552
 3497TIP3    H131906   2.658   1.619  13.050 -0.5826  0.2649  1.4209
 3497TIP3    H231907   2.764   1.726  13.059 -0.0868 -0.0568 -0.3921
 3498TIP3   OH231908   1.069   1.918  12.187  0.2438 -0.3049 -0.2011
 3498TIP3    H131909   1.102   1.858  12.120  0.0263 -0.4496 -0.1819
 3498TIP3    H231910   1.058   1.863  12.265 -1.1314 -0.5206 -0.5335
 3499TIP3   OH231911   3.675   4.202   4.816 -0.5209  0.6058  0.4146
 3499TIP3    H131912   3.593   4.210   4.865 -0.6991 -0.8874  0.4001
 3499TIP3    H231913   3.680   4.109   4.794  0.7378  0.8475 -0.3612
 3500TIP3   OH231914   3.885   4.482   6.755  0.6874  0.0802  0.2108
 3500TIP3    H131915   3.850   4.457   6.841  0.2793 -0.7882 -0.2010
 3500TIP3    H231916   3.808   4.509   6.705  1.0218  1.3468  0.3673
 3501TIP3   OH231917   6.640   2.976   4.494  0.0826  0.0725  0.2858
 3501TIP3    H131918   6.654   2.995   4.401  0.2033  0.9233  0.4775
 3501TIP3    H231919   6.725   2.944   4.525 -0.2804 -1.3875 -0.1759
 3502TIP3   OH231920   3.032   0.771  16.977  0.0602 -0.1701  0.5969
 3502TIP3    H131921   3.027   0.861  17.009 -0.3285 -0.3450  1.0298
 3502TIP3    H231922   3.126   0.751  16.979  0.0898  0.0110  1.1030
 3503TIP3   OH231923   2.817   3.334  12.095  0.2101  0.3273 -0.4481
 3503TIP3    H131924   2.906   3.368  12.097 -0.0094  1.0200 -1.6521
 3503TIP3    H231925   2.796   3.328  12.002 -1.0628  0.3289 -0.1705
 3504TIP3   OH231926   1.322   4.538  13.612  0.6697  0.7100 -0.3652
 3504TIP3    H131927   1.286   4.586  13.538  0.8682  1.4558  0.0211
 3504TIP3    H231928   1.261   4.555  13.684 -1.1331 -2.3592 -1.0656
 3505TIP3   OH231929   0.776   4.437  13.539  0.8404 -0.4984  0.2514
 3505TIP3    H131930   0.822   4.491  13.603 -1.1778  1.1503  0.3825
 3505TIP3    H231931   0.813   4.464  13.454 -0.4770  1.5128  0.2676
 3506TIP3   OH231932   4.277   2.974  15.532  0.5018  0.3955  0.6805
 3506TIP3    H131933   4.268   2.992  15.439 -2.7659  0.8775  1.0400
 3506TIP3    H231934   4.356   3.022  15.558  1.1179  0.7212 -1.6971
 3507TIP3   OH231935   0.831   2.626  13.952  0.0658  0.1514  0.2088
 3507TIP3    H131936   0.882   2.604  13.874  1.7364  0.9096  1.0640
 3507TIP3    H231937   0.793   2.712  13.933 -1.2140 -0.5719 -0.5720
 3508TIP3   OH231938   0.700   1.602   5.408 -0.5549 -0.2144 -0.4355
 3508TIP3    H131939   0.653   1.685   5.394 -0.0879  0.3011  0.9138
 3508TIP3    H231940   0.670   1.573   5.494 -1.0564 -1.6927 -1.1029
 3509TIP3   OH231941   2.650   1.900  13.115 -0.3949  0.0135  0.3502
 3509TIP3    H131942   2.643   1.948  13.197  0.1084  1.6698 -0.5503
 3509TIP3    H231943   2.683   1.964  13.052  1.2833 -1.7766 -0.6614
 3510TIP3   OH231944   6.329   4.461  14.757 -0.2112 -0.0448 -0.6725
 3510TIP3    H131945   6.417   4.493  14.777 -0.3869  0.6597 -1.0180
 3510TIP3    H231946   6.330   4.443  14.663 -0.4705  0.0604 -0.6958
 3511TIP3   OH231947   5.551   0.378   0.018  0.3954  0.7213 -0.3551
 3511TIP3    H131948   5.485   0.430  -0.027  0.9639 -0.3232 -2.4306
 3511TIP3    H231949   5.573   0.308  -0.043 -0.3074 -1.9601  2.3052
 3512TIP3   OH231950   4.645   5.416   0.491  0.4787 -0.0262 -0.1433
 3512TIP3    H131951   4.680   5.487   0.437  0.2391 -0.4520 -0.8665
 3512TIP3    H231952   4.559   5.448   0.519  1.0580  0.6396  0.8775
 3513TIP3   OH231953   5.857   1.504  13.578 -0.1250  0.4175  0.0762
 3513TIP3    H131954   5.796   1.567  13.540 -0.5536  1.4700  2.3805
 3513TIP3    H231955   5.913   1.557  13.635 -0.3304 -1.2398  1.8481
 3514TIP3   OH231956   1.879   2.857  16.302 -0.0797  0.3008 -0.1363
 3514TIP3    H131957   1.810   2.879  16.239 -0.1395 -0.8341 -0.4918
 3514TIP3    H231958   1.922   2.780  16.263  1.7511  1.3389 -0.2064
 3515TIP3   OH231959   2.958   6.670   2.805 -0.2771 -0.0129 -0.0700
 3515TIP3    H131960   2.985   6.749   2.851  2.7899 -1.8664  1.5047
 3515TIP3    H231961   2.927   6.701   2.720  0.8974  2.8486  0.4839
 3516TIP3   OH231962   5.776   1.958   4.333 -0.1229  0.0453 -0.0060
 3516TIP3    H131963   5.801   1.888   4.272  0.1107  0.8356 -0.8387
 3516TIP3    H231964   5.821   1.936   4.415  0.1636 -0.6351 -0.3436
 3517TIP3   OH231965   1.520   0.859  16.973 -0.1395  0.3502 -0.2718
 3517TIP3    H131966   1.553   0.932  17.025  0.4828 -1.8411  2.5462
 3517TIP3    H231967   1.574   0.859  16.894  1.1523  1.7188  0.5835
 3518TIP3   OH231968   4.878   5.005  12.919  0.1654 -0.2710  0.4636
 3518TIP3    H131969   4.919   4.924  12.888 -1.2429 -1.9121  2.7027
 3518TIP3    H231970   4.785   4.983  12.925 -0.3442  1.7928  0.3031
 3519TIP3   OH231971   2.005   2.686   3.319  0.0049 -0.0595  0.5385
 3519TIP3    H131972   2.091   2.667   3.356 -0.2371  0.1566  1.2378
 3519TIP3    H231973   1.955   2.721   3.393  0.0162  1.9764 -0.3781
 3520TIP3   OH231974   6.491   0.255   2.676  0.3977  0.0113 -0.6609
 3520TIP3    H131975   6.464   0.325   2.735  0.6554 -0.8275  0.4808
 3520TIP3    H231976   6.568   0.290   2.631  0.6442  0.3981  0.0446
 3521TIP3   OH231977   3.358   1.765  15.349  0.0754 -0.0118  0.1544
 3521TIP3    H131978   3.440   1.812  15.366 -0.1935  0.0996  1.1476
 3521TIP3    H231979   3.299   1.833  15.316 -0.5908  0.5541  2.4323
 3522TIP3   OH231980   3.646   2.512   3.188  0.4024  0.7484  0.0726
 3522TIP3    H131981   3.633   2.568   3.112 -0.0247  1.2896  0.5441
 3522TIP3    H231982   3.706   2.561   3.244  2.8856 -0.8074 -1.1255
 3523TIP3   OH231983   2.904   6.052  14.526 -0.2466 -1.0010  0.1740
 3523TIP3    H131984   2.828   5.993  14.535 -1.2670  0.3614  0.7230
 3523TIP3    H231985   2.930   6.071  14.616  0.0933 -0.6373 -0.0020
 3524TIP3   OH231986   3.316   6.413  12.889  0.6553  0.1228 -0.2379
 3524TIP3    H131987   3.299   6.319  12.895 -0.7220  0.3229 -0.9340
 3524TIP3    H231988   3.278   6.449  12.969  1.6720  0.0228  0.2942
 3525TIP3   OH231989   5.517   1.671  11.948  0.3168 -0.3688  0.1552
 3525TIP3    H131990   5.587   1.611  11.971 -0.0507 -0.9861 -0.3191
 3525TIP3    H231991   5.438   1.631  11.984 -0.3714 -1.7202 -2.7557
 3526TIP3   OH231992   6.627   2.837  16.189 -0.3845  0.0646  0.3485
 3526TIP3    H131993   6.543   2.884  16.189  0.0184  0.8289 -0.6611
 3526TIP3    H231994   6.649   2.829  16.096  0.3902 -0.6313  0.5859
 3527TIP3   OH231995   6.210   1.433  11.722  0.6123  0.1394 -0.5318
 3527TIP3    H131996   6.166   1.518  11.724  1.6401  0.6944 -1.1879
 3527TIP3    H231997   6.256   1.432  11.639  0.8412 -0.9496 -0.3975
 3528TIP3   OH231998   6.067   1.668  11.691  0.1299 -0.3111  0.0523
 3528TIP3    H131999   5.979   1.661  11.656  0.3788  0.6071 -0.7582
 3528TIP3    H232000   6.120   1.703  11.619  0.8829  0.4207  0.9422
 3529TIP3   OH232001   5.323   0.499   3.500 -0.1955 -0.1605 -0.0003
 3529TIP3    H132002   5.234   0.521   3.473 -0.4011  0.3125  1.0619
 3529TIP3    H232003   5.375   0.576   3.477 -0.0862 -0.3803 -0.4898
 3530TIP3   OH232004   1.206   5.186   1.076 -0.0998 -0.2419  0.1525
 3530TIP3    H132005   1.164   5.197   1.162  0.4516 -0.1584  0.4147
 3530TIP3    H232006   1.213   5.091   1.066  0.8618 -0.2416  0.7147
 3531TIP3   OH232007   1.025   0.769  12.639 -0.0274  0.2901 -0.3579
 3531TIP3    H132008   1.028   0.789  12.546 -1.7517 -0.8524 -0.6737
 3531TIP3    H232009   0.939   0.729  12.653  1.0482 -1.5444  1.3151
 3532TIP3   OH232010   2.509   5.493   0.677  1.0215  0.5840 -0.2256
 3532TIP3    H132011   2.450   5.441   0.731  1.2357 -0.8967 -1.4109
 3532TIP3    H232012   2.592   5.445   0.678  1.3043  1.0384 -1.0995
 3533TIP3   OH232013   1.198   3.548  16.749 -0.0370  0.6288  0.1797
 3533TIP3    H132014   1.151   3.466  16.734  0.3890  0.3851  0.1968
 3533TIP3    H232015   1.218   3.581  16.661  0.5747  0.2684  0.1809
 3534TIP3   OH232016   5.400   2.049  16.785  0.1998  0.2903  0.4062
 3534TIP3    H132017   5.352   2.106  16.725 -0.0085  0.7121  0.9666
 3534TIP3    H232018   5.358   1.964  16.777 -1.2572  0.8747  1.5718
 3535TIP3   OH232019   5.068   0.371   3.812 -1.0207  0.3636  0.2199
 3535TIP3    H132020   5.004   0.410   3.872  0.0048  0.4579  1.2722
 3535TIP3    H232021   5.086   0.285   3.848  0.3392  0.7980  0.6051
 3536TIP3   OH232022   2.472   1.733   3.825 -0.0988 -0.5468 -0.1573
 3536TIP3    H132023   2.515   1.757   3.907  2.5527  0.3408 -1.7717
 3536TIP3    H232024   2.434   1.815   3.794  1.2866 -0.2816 -1.1882
 3537TIP3   OH232025   4.486   3.820  15.863 -0.1264  0.4673 -0.5844
 3537TIP3    H132026   4.501   3.767  15.784  1.2739  0.6907 -0.4714
 3537TIP3    H232027   4.451   3.902  15.830 -0.3839  0.2356 -0.8995
 3538TIP3   OH232028   1.332   5.127  11.158 -0.4281 -0.1778  0.1114
 3538TIP3    H132029   1.416   5.101  11.120 -0.3273  1.6580 -1.0010
 3538TIP3    H232030   1.349   5.214  11.196 -2.0324  0.6565 -1.0078
 3539TIP3   OH232031   2.616   6.395   0.020 -0.6313  0.5204  0.2009
 3539TIP3    H132032   2.689   6.367  -0.037 -0.2506 -0.7375  1.2672
 3539TIP3    H232033   2.659   6.432   0.096 -1.1431  1.9080 -0.1752
 3540TIP3   OH232034   2.096   4.100   1.462  0.0098 -0.2163 -0.0870
 3540TIP3    H132035   2.116   4.146   1.544 -1.5071 -0.0149  0.1793
 3540TIP3    H232036   2.036   4.158   1.415  0.9152 -0.3010 -1.3836
 3541TIP3   OH232037   0.731   3.241   5.354 -0.0166  0.2361 -0.6824
 3541TIP3    H132038   0.748   3.249   5.261 -1.0233  0.8718 -0.8181
 3541TIP3    H232039   0.797   3.296   5.396 -0.1728  0.7155 -1.0698
 3542TIP3   OH232040   4.027   6.772   4.284 -0.0066 -0.0799 -0.6527
 3542TIP3    H132041   4.051   6.680   4.273  0.0816 -0.1534  0.1195
 3542TIP3    H232042   4.004   6.802   4.196  1.8622 -0.3125 -1.2556
 3543TIP3   OH232043   2.361   1.467  14.688 -0.4104  0.2688 -0.0434
 3543TIP3    H132044   2.317   1.531  14.745 -1.4117 -0.4364 -0.0126
 3543TIP3    H232045   2.289   1.417  14.649  0.3110  0.1320 -1.2057
 3544TIP3   OH232046   3.385   6.305   5.770  0.3076  0.1728 -0.3941
 3544TIP3    H132047   3.395   6.222   5.816  1.1841  0.5520  0.1212
 3544TIP3    H232048   3.378   6.371   5.840  2.4292  0.8382 -0.7531
 3545TIP3   OH232049   5.184   0.290  11.544  0.3489  0.5139 -0.4404
 3545TIP3    H132050   5.269   0.262  11.577 -0.5543  0.4168  1.9187
 3545TIP3    H232051   5.204   0.351  11.473  2.3622  0.7756  0.3419
 3546TIP3   OH232052   6.579   3.021  16.720  0.1236  0.4518 -0.5445
 3546TIP3    H132053   6.619   2.938  16.745  0.3425  0.7971  0.2670
 3546TIP3    H232054   6.635   3.053  16.649  0.5050  0.2829 -0.3245
 3547TIP3   OH232055   0.412   2.798  16.935  0.1732  0.6862 -0.1054
 3547TIP3    H132056   0.422   2.854  17.012  1.3303  0.1653  0.1317
 3547TIP3    H232057   0.471   2.835  16.870  1.4100 -0.5900  0.2534
 3548TIP3   OH232058   3.489   4.565  14.475 -0.4254 -0.3505  0.0592
 3548TIP3    H132059   3.436   4.486  14.477 -1.1422  0.1031 -0.6987
 3548TIP3    H232060   3.454   4.619  14.547 -1.0960  0.0150 -0.5414
 3549TIP3   OH232061   4.067   2.453  14.041 -0.2915  0.3217  0.3249
 3549TIP3    H132062   4.006   2.477  13.972  0.5998 -0.5166 -0.7790
 3549TIP3    H232063   4.107   2.535  14.068 -2.0616  0.9110  1.2356
 3550TIP3   OH232064   1.000   6.442   3.088 -0.4123  0.5409 -0.6379
 3550TIP3    H132065   1.089   6.428   3.057 -0.7274  0.7781 -1.6764
 3550TIP3    H232066   0.981   6.367   3.144 -0.3073 -0.5769 -2.0977
 3551TIP3   OH232067   0.941   4.559  17.197  0.7766  0.3323 -0.1976
 3551TIP3    H132068   0.903   4.480  17.235 -0.9392  1.4946  0.5739
 3551TIP3    H232069   0.865   4.613  17.174  1.8344  0.5481 -3.4024
 3552TIP3   OH232070   3.201   6.460  16.211 -0.0225 -0.4456  0.0593
 3552TIP3    H132071   3.109   6.481  16.225 -0.5129 -1.8879 -0.8556
 3552TIP3    H232072   3.245   6.545  16.204 -1.3436  0.2437  0.0717
 3553TIP3   OH232073   3.345   0.243   4.327  0.1418 -0.2804  0.0833
 3553TIP3    H132074   3.368   0.334   4.349  1.8391 -0.9270  1.0849
 3553TIP3    H232075   3.380   0.230   4.239  0.0957 -0.0251  0.0272
 3554TIP3   OH232076   2.981   3.981   5.990 -0.2702  0.1260  0.1291
 3554TIP3    H132077   3.070   3.946   5.990  0.3411  1.6498 -0.3159
 3554TIP3    H232078   2.953   3.976   5.898 -1.6005 -2.6837  0.6425
 3555TIP3   OH232079   1.146   5.468   5.462  0.2363 -0.2429 -0.0198
 3555TIP3    H132080   1.077   5.464   5.396 -0.1331 -0.0802  0.3598
 3555TIP3    H232081   1.176   5.378   5.472  0.5648 -0.2105 -0.7025
 3556TIP3   OH232082   5.404   1.774  11.286 -0.5155  0.6369 -0.3539
 3556TIP3    H132083   5.318   1.741  11.313  0.6772 -1.1396  1.3292
 3556TIP3    H232084   5.406   1.759  11.191 -2.0481  0.6853 -0.4101
 3557TIP3   OH232085   1.497   1.230  13.350  0.4908  0.3948  0.0636
 3557TIP3    H132086   1.448   1.302  13.389 -0.6368 -0.6473  0.6048
 3557TIP3    H232087   1.575   1.222  13.405  0.3081  0.7915  0.3845
 3558TIP3   OH232088   6.644   4.862   0.841  0.2865  0.0814 -0.3300
 3558TIP3    H132089   6.712   4.868   0.775  1.3770  0.8754  0.8294
 3558TIP3    H232090   6.587   4.790   0.812  3.3262 -2.6488  0.2372
 3559TIP3   OH232091   0.004   6.134  15.009 -0.3624 -0.1882 -0.2065
 3559TIP3    H132092   0.035   6.043  15.007 -0.5549 -0.2587 -3.3985
 3559TIP3    H232093   0.080   6.185  14.981 -1.0872  0.3129 -1.2999
 3560TIP3   OH232094   0.492   0.931   4.000 -0.0054  0.5231 -0.7872
 3560TIP3    H132095   0.433   0.970   4.063 -1.0787 -1.1693 -0.7020
 3560TIP3    H232096   0.436   0.873   3.947  1.0639  1.0651 -2.5540
 3561TIP3   OH232097   0.761   1.369   3.479 -0.2278 -0.2791 -0.0252
 3561TIP3    H132098   0.774   1.293   3.423 -1.3620 -1.0704  0.7445
 3561TIP3    H232099   0.837   1.370   3.538 -1.0718 -1.8586  1.1131
 3562TIP3   OH232100   2.155   1.077  14.966  0.1294 -0.4616 -0.4808
 3562TIP3    H132101   2.112   1.110  14.887  0.4133 -1.8349 -1.2175
 3562TIP3    H232102   2.194   0.994  14.939 -0.1493 -1.1600  1.2163
 3563TIP3   OH232103   6.278   3.762   0.554 -0.2847 -0.0461  0.1841
 3563TIP3    H132104   6.196   3.733   0.515  1.2691 -1.4174 -2.1998
 3563TIP3    H232105   6.339   3.768   0.480  1.9842  0.1466  2.0147
 3564TIP3   OH232106   6.197   5.709   4.652  0.0415  0.5581  0.0623
 3564TIP3    H132107   6.165   5.644   4.715  0.8678 -0.0689 -0.1565
 3564TIP3    H232108   6.142   5.697   4.575  0.0422  0.2645  0.1070
 3565TIP3   OH232109   0.054   6.580   2.161  0.3859 -0.0344 -0.8567
 3565TIP3    H132110   0.075   6.515   2.093  0.3922 -0.1642 -0.7296
 3565TIP3    H232111   0.017   6.529   2.233  0.1338  0.1356 -0.8652
 3566TIP3   OH232112   5.982   5.697   0.091 -0.6489 -0.6432 -0.0466
 3566TIP3    H132113   6.061   5.651   0.120 -0.7029 -0.4479  0.4121
 3566TIP3    H232114   5.930   5.629   0.049  1.2781 -0.1217 -3.5039
 3567TIP3   OH232115   4.992   1.390  12.469 -0.1648 -0.1821 -0.4036
 3567TIP3    H132116   4.903   1.412  12.443  0.5528  0.6493 -2.2925
 3567TIP3    H232117   4.984   1.306  12.514 -2.0643  0.5976  0.7664
 3568TIP3   OH232118   3.332   1.032  16.810  0.5797 -0.4394  0.0332
 3568TIP3    H132119   3.307   0.945  16.842 -1.2751  0.2752  0.5800
 3568TIP3    H232120   3.257   1.061  16.758  1.2860  0.7389 -0.3468
 3569TIP3   OH232121   3.575   2.749  16.862 -0.0607  0.2882  0.0719
 3569TIP3    H132122   3.526   2.677  16.902 -3.0805  1.7641 -0.8705
 3569TIP3    H232123   3.531   2.828  16.892  2.2637  1.7288 -0.1629
 3570TIP3   OH232124   1.666   1.395   4.545 -0.1547 -0.1333 -0.0532
 3570TIP3    H132125   1.748   1.369   4.588  1.1146  3.1271 -0.3630
 3570TIP3    H232126   1.653   1.330   4.476  2.2073 -0.6654 -0.0347
 3571TIP3   OH232127   2.102   6.547  15.842 -0.2428  0.2969 -0.4995
 3571TIP3    H132128   2.014   6.553  15.877 -0.2838  0.2874 -0.5980
 3571TIP3    H232129   2.110   6.624  15.785 -0.0184  0.5604 -0.1156
 3572TIP3   OH232130   2.589   4.230  14.164 -0.1742  0.0248  0.6688
 3572TIP3    H132131   2.523   4.259  14.100 -1.8478 -2.2281  1.3110
 3572TIP3    H232132   2.540   4.179  14.228  1.7079  1.1019  3.0496
 3573TIP3   OH232133   0.849   5.156   5.623 -0.0382  0.1272 -0.6260
 3573TIP3    H132134   0.916   5.127   5.562  2.3787  1.7602  1.1755
 3573TIP3    H232135   0.788   5.206   5.569 -0.0618 -1.6528 -2.3403
 3574TIP3   OH232136   2.680   5.729  17.064  0.3400 -0.0593  0.0447
 3574TIP3    H132137   2.775   5.721  17.073  0.4927  1.6370 -0.0061
 3574TIP3    H232138   2.666   5.733  16.969  0.4119  1.8309  0.1013
 3575TIP3   OH232139   0.240   6.083  16.417 -0.5304  0.2501  0.3923
 3575TIP3    H132140   0.321   6.134  16.416 -0.7738  0.7083  2.5538
 3575TIP3    H232141   0.236   6.043  16.330  2.3078 -0.2383  0.4407
 3576TIP3   OH232142   5.283   3.256  14.485  0.2012 -0.1593  0.6863
 3576TIP3    H132143   5.263   3.167  14.514 -0.6416  0.1294  1.0219
 3576TIP3    H232144   5.242   3.312  14.551 -1.5835  0.5077 -0.9250
 3577TIP3   OH232145   0.514   1.918  16.877  0.5963 -0.1998  0.9302
 3577TIP3    H132146   0.592   1.872  16.909  0.5333 -0.7929  0.2464
 3577TIP3    H232147   0.530   1.930  16.783  0.6329  1.2262  1.1056
 3578TIP3   OH232148   5.902   1.879   4.557 -0.2198  0.3210 -0.3588
 3578TIP3    H132149   5.948   1.936   4.618  0.6895 -1.0631  0.2877
 3578TIP3    H232150   5.959   1.803   4.548 -0.1164  0.7207 -3.3430
 3579TIP3   OH232151   0.782   2.679  15.516 -0.6074 -0.2070  0.7044
 3579TIP3    H132152   0.810   2.756  15.466  0.0824 -1.2823 -0.5927
 3579TIP3    H232153   0.811   2.697  15.605  3.0881 -0.6880 -0.3093
 3580TIP3   OH232154   1.438   2.269   1.617 -0.3624  0.4852 -0.1292
 3580TIP3    H132155   1.352   2.311   1.611 -1.2141 -1.0977  0.5197
 3580TIP3    H232156   1.497   2.338   1.648 -1.9757  0.8796  2.1582
 3581TIP3   OH232157   5.479   0.100   5.374 -0.6450 -0.2069  0.0660
 3581TIP3    H132158   5.467   0.169   5.439  0.6200  1.0824 -1.0481
 3581TIP3    H232159   5.398   0.101   5.323 -1.3754 -0.7845  1.2066
 3582TIP3   OH232160   4.640   1.644  15.611  0.3127 -0.2192 -0.3075
 3582TIP3    H132161   4.601   1.730  15.598 -0.1481 -0.2024  1.0703
 3582TIP3    H232162   4.604   1.614  15.695  1.9682 -0.9059  0.1789
 3583TIP3   OH232163   2.866   2.281  16.783  0.1809  0.2453  0.0063
 3583TIP3    H132164   2.929   2.214  16.754  0.9247  1.1306 -0.4503
 3583TIP3    H232165   2.816   2.238  16.853  1.7644 -0.2371  0.8667
 3584TIP3   OH232166   6.405   3.757  14.800  0.3274  0.0670 -0.2586
 3584TIP3    H132167   6.349   3.710  14.738  0.5200  0.9817 -1.1534
 3584TIP3    H232168   6.383   3.720  14.886 -0.3307 -0.8469 -0.8107
 3585TIP3   OH232169   4.695   4.624   1.854 -0.9330 -0.1865 -0.6418
 3585TIP3    H132170   4.667   4.672   1.932  0.8831 -0.3765  0.1556
 3585TIP3    H232171   4.688   4.532   1.880 -2.5970 -0.3415 -1.5343
 3586TIP3   OH232172   0.774   0.330   1.216  0.2577  0.4215 -0.0431
 3586TIP3    H132173   0.851   0.345   1.271 -1.6442 -0.0171  2.8633
 3586TIP3    H232174   0.749   0.418   1.186  1.2011  0.6932 -0.0545
 3587TIP3   OH232175   5.706   0.181  10.597 -0.2323 -0.0051  0.9544
 3587TIP3    H132176   5.677   0.119  10.529 -2.1703  1.8975 -0.0423
 3587TIP3    H232177   5.800   0.167  10.603 -0.0606 -0.4713 -1.9144
 3588TIP3   OH232178   3.438   2.016  10.955  0.4409  0.3597 -0.5301
 3588TIP3    H132179   3.351   2.026  10.915  0.5555 -0.9624 -1.1409
 3588TIP3    H232180   3.458   2.103  10.990 -0.8264  0.8609 -0.9930
 3589TIP3   OH232181   1.401   5.324   5.622  0.3546 -0.3523 -0.5390
 3589TIP3    H132182   1.331   5.328   5.687  1.2631 -1.5071  0.5354
 3589TIP3    H232183   1.368   5.264   5.555 -1.0214  1.6468 -1.7330
 3590TIP3   OH232184   6.504   3.888  11.680  0.1848 -0.3728 -0.5823
 3590TIP3    H132185   6.516   3.977  11.646  0.8212 -0.6662 -1.1429
 3590TIP3    H232186   6.593   3.858  11.699 -0.0114 -0.9654 -0.5969
 3591TIP3   OH232187   2.868   0.382  13.653 -0.0377 -0.0409 -0.3877
 3591TIP3    H132188   2.829   0.374  13.740  1.3054  0.5975  0.2889
 3591TIP3    H232189   2.831   0.310  13.603 -0.5895 -0.5932  0.8072
 3592TIP3   OH232190   5.520   1.027   5.649  0.2112 -0.4894  0.2336
 3592TIP3    H132191   5.448   1.057   5.703 -0.9964 -1.6797 -0.6748
 3592TIP3    H232192   5.543   1.102   5.595  1.2582  0.6308  2.1640
 3593TIP3   OH232193   0.904   5.268  12.148 -0.3898 -0.6962  0.7963
 3593TIP3    H132194   0.942   5.341  12.198  1.2390 -1.3680  0.5971
 3593TIP3    H232195   0.812   5.291  12.137 -0.1962  0.6904  1.8864
 3594TIP3   OH232196   2.748   0.417  13.928 -0.1581  0.2163 -0.5737
 3594TIP3    H132197   2.732   0.327  13.897  1.3030 -0.6601  1.1471
 3594TIP3    H232198   2.694   0.425  14.006 -0.2796  0.8479 -0.7183
 3595TIP3   OH232199   4.544   3.701  13.119  0.3670 -0.4897  0.3363
 3595TIP3    H132200   4.507   3.627  13.168 -0.7654 -0.5951 -0.6562
 3595TIP3    H232201   4.561   3.768  13.185 -1.7266 -0.4007  0.8232
 3596TIP3   OH232202   2.974   2.941  14.104  0.1530 -0.0847  0.5414
 3596TIP3    H132203   3.030   2.903  14.037  1.1133 -1.7685  2.2309
 3596TIP3    H232204   2.885   2.932  14.071  0.7058  0.3511 -1.0828
 3597TIP3   OH232205   0.463   1.339  13.764  0.1373  0.2529 -0.7893
 3597TIP3    H132206   0.505   1.259  13.733  0.0962 -0.0230 -0.1487
 3597TIP3    H232207   0.394   1.357  13.700 -1.3841 -1.5338  0.2942
 3598TIP3   OH232208   2.384   4.136   1.398 -0.0592 -0.0200  0.9045
 3598TIP3    H132209   2.366   4.229   1.383  0.9195 -0.0137 -0.3257
 3598TIP3    H232210   2.465   4.135   1.448  0.1802 -0.2087  0.5213
 3599TIP3   OH232211   4.103   3.628  11.417  0.4378  0.0794  0.1974
 3599TIP3    H132212   4.089   3.709  11.368 -0.6897 -1.4517 -2.0804
 3599TIP3    H232213   4.164   3.578  11.364  0.2483 -1.0349  1.0187
 3600TIP3   OH232214   0.193   3.879   5.672 -0.3624  0.2536  0.2554
 3600TIP3    H132215   0.235   3.854   5.590  1.5783 -0.0600  1.3235
 3600TIP3    H232216   0.115   3.823   5.677  1.1044 -1.8741  0.0672
 3601TIP3   OH232217   4.507   4.052  14.490 -0.5699  0.0381  0.4620
 3601TIP3    H132218   4.459   4.042  14.572 -3.7605  0.1931 -1.3144
 3601TIP3    H232219   4.457   4.002  14.426  1.8277 -0.0460 -1.4199
 3602TIP3   OH232220   2.779   2.983   5.729 -0.4537 -0.5468 -0.1279
 3602TIP3    H132221   2.702   3.036   5.707  0.2617  0.0178 -1.3246
 3602TIP3    H232222   2.822   3.032   5.799 -1.2496 -0.9400  0.6495
 3603TIP3   OH232223   2.502   5.065  15.825 -0.1783 -0.0370  0.6534
 3603TIP3    H132224   2.496   5.121  15.748 -0.0979 -0.5407  0.2748
 3603TIP3    H232225   2.459   4.983  15.798  0.1986 -0.3537  1.0157
 3604TIP3   OH232226   3.815   5.015   6.620  1.1131  0.2304  0.1341
 3604TIP3    H132227   3.772   4.943   6.573  1.0131  1.6445 -2.0068
 3604TIP3    H232228   3.880   4.972   6.676  0.9391 -1.5484 -0.9982
 3605TIP3   OH232229   5.993   0.054  15.954  0.3533 -0.1016 -0.3152
 3605TIP3    H132230   5.995   0.062  16.049  0.9708 -0.0224 -0.3296
 3605TIP3    H232231   5.906   0.021  15.934  1.5660 -4.1050  0.5756
 3606TIP3   OH232232   5.700   2.442  12.999  0.1875 -0.0983 -0.2012
 3606TIP3    H132233   5.627   2.475  13.052  0.6131  1.1997 -0.4092
 3606TIP3    H232234   5.776   2.448  13.056  0.6257  1.1907 -0.9115
 3607TIP3   OH232235   3.512   1.692   1.616  0.1720  0.1317 -0.2522
 3607TIP3    H132236   3.512   1.606   1.659  0.6017 -0.6113 -1.7051
 3607TIP3    H232237   3.444   1.742   1.661  0.2252 -0.8220  0.9028
 3608TIP3   OH232238   1.287   2.690   2.002 -0.0249 -0.0461  0.7472
 3608TIP3    H132239   1.369   2.707   2.049 -0.8007  0.4925  1.9258
 3608TIP3    H232240   1.296   2.737   1.919  0.6910  0.3518  1.0473
 3609TIP3   OH232241   5.339   1.965   2.288  0.5672 -0.0617 -0.2817
 3609TIP3    H132242   5.374   2.053   2.295 -0.1705  0.3599 -1.6240
 3609TIP3    H232243   5.395   1.922   2.223 -0.6390  0.2500 -1.5627
 3610TIP3   OH232244   1.854   0.913  12.344  0.1895  0.0019 -0.2750
 3610TIP3    H132245   1.889   0.861  12.416 -1.8296 -0.9944  0.0215
 3610TIP3    H232246   1.877   0.865  12.265 -0.9915 -0.9694 -0.0464
 3611TIP3   OH232247   4.500   3.966   2.790 -0.1220 -0.1209  0.5935
 3611TIP3    H132248   4.549   4.008   2.719  0.1504 -0.4178  0.6012
 3611TIP3    H232249   4.518   3.873   2.779 -1.2558 -0.2922  0.1765
 3612TIP3   OH232250   3.068   5.564   5.574 -0.0678 -0.0443 -0.1292
 3612TIP3    H132251   3.015   5.638   5.605 -1.0241 -0.0671 -1.6151
 3612TIP3    H232252   3.146   5.565   5.629  0.1117  2.3138 -0.3743
 3613TIP3   OH232253   4.132   6.315  13.550  0.4885 -0.1582  0.3609
 3613TIP3    H132254   4.192   6.364  13.607  1.8680  0.9917 -1.9884
 3613TIP3    H232255   4.141   6.224  13.579  2.7489  0.1109  0.6235
 3614TIP3   OH232256   2.918   2.727  16.394 -0.1397 -0.1802 -0.1277
 3614TIP3    H132257   2.896   2.819  16.378 -1.5379 -0.7686 -1.7916
 3614TIP3    H232258   2.918   2.719  16.490 -0.0929  1.5261  0.0329
 3615TIP3   OH232259   6.111   3.897   1.802  0.1203  0.2916 -0.9344
 3615TIP3    H132260   6.204   3.897   1.776  0.5354 -0.4357  0.5029
 3615TIP3    H232261   6.101   3.816   1.852 -1.1570  0.6709 -0.5711
 3616TIP3   OH232262   6.466   5.089  13.116 -0.1443 -0.0234  0.2439
 3616TIP3    H132263   6.461   5.184  13.129 -0.0069 -0.1614  1.2945
 3616TIP3    H232264   6.541   5.061  13.167 -0.4823 -0.7793  0.3339
 3617TIP3   OH232265   1.825   5.541  16.844 -0.1985  0.0433 -0.2696
 3617TIP3    H132266   1.782   5.493  16.915 -0.2527  1.2917  0.5668
 3617TIP3    H232267   1.918   5.533  16.861 -0.0715 -2.1783 -1.7609
 3618TIP3   OH232268   2.042   2.454   3.796  0.4307  0.2858 -0.1074
 3618TIP3    H132269   2.077   2.368   3.774 -1.0609  0.0434 -1.6552
 3618TIP3    H232270   1.966   2.436   3.852  0.9599  0.6722  0.7518
 3619TIP3   OH232271   2.969   4.422   1.740 -0.7061 -0.0890 -0.3692
 3619TIP3    H132272   2.984   4.408   1.834 -1.5257 -0.0636 -0.2298
 3619TIP3    H232273   2.995   4.340   1.700 -1.0292 -0.3544 -0.0418
 3620TIP3   OH232274   3.563   4.618  17.180 -0.6679 -0.0914  0.2190
 3620TIP3    H132275   3.609   4.583  17.257  1.3323  2.2182  0.1720
 3620TIP3    H232276   3.537   4.542  17.130  1.5175 -1.5532  1.2265
 3621TIP3   OH232277   6.659   4.121  11.124 -0.5975 -0.1035 -0.0288
 3621TIP3    H132278   6.688   4.112  11.214 -0.2155 -0.1971 -0.1599
 3621TIP3    H232279   6.738   4.146  11.075 -1.0007  0.9578 -0.1690
 3622TIP3   OH232280   0.906   4.538   0.369  0.0528  1.2427  0.0459
 3622TIP3    H132281   0.895   4.619   0.418  0.7009  1.0862  0.4557
 3622TIP3    H232282   0.853   4.550   0.290  0.3576  2.1636 -0.0195
 3623TIP3   OH232283   5.210   5.809   3.600  0.3197  0.5538  0.5466
 3623TIP3    H132284   5.137   5.854   3.558  0.0592 -0.1703  0.2180
 3623TIP3    H232285   5.232   5.864   3.675  0.4134  1.5547 -0.1959
 3624TIP3   OH232286   6.490   0.772  13.726 -0.4013  0.0545  0.4050
 3624TIP3    H132287   6.566   0.715  13.722 -0.5783 -0.2259  1.0191
 3624TIP3    H232288   6.443   0.755  13.644 -0.4141 -0.6276  0.5500
 3625TIP3   OH232289   4.223   3.814   2.965 -0.4163  0.1883  0.3881
 3625TIP3    H132290   4.226   3.729   3.008 -1.4892 -0.1997 -0.2775
 3625TIP3    H232291   4.210   3.877   3.036 -0.0023 -0.2412  0.8433
 3626TIP3   OH232292   5.830   4.604   4.961  0.0418 -0.6979  1.0454
 3626TIP3    H132293   5.861   4.570   4.877  1.1473  0.9543  0.7637
 3626TIP3    H232294   5.758   4.662   4.939  0.0620 -0.5854  1.2737
 3627TIP3   OH232295   4.895   5.476  16.973 -0.0521 -0.2354  0.0642
 3627TIP3    H132296   4.808   5.452  16.941  0.3560 -1.8863  0.1487
 3627TIP3    H232297   4.954   5.454  16.902  0.1907  2.1914 -0.5456
 3628TIP3   OH232298   5.005   4.121   2.525  0.2391 -0.2779 -0.1820
 3628TIP3    H132299   5.057   4.065   2.583 -1.9032 -0.9698  1.1147
 3628TIP3    H232300   5.070   4.172   2.476  2.1171 -0.4126  2.1087
 3629TIP3   OH232301   6.009   4.392  12.116  0.0826 -0.8582 -0.1072
 3629TIP3    H132302   6.084   4.357  12.163 -0.6452 -2.8913 -0.4122
 3629TIP3    H232303   6.021   4.361  12.026 -1.4069 -1.6744 -0.0345
 3630TIP3   OH232304   1.931   6.022   1.288  0.4104  0.3615  0.4798
 3630TIP3    H132305   1.979   6.084   1.343  0.7208 -0.2109  0.8554
 3630TIP3    H232306   2.000   5.976   1.239  0.1531  0.6733 -0.1906
 3631TIP3   OH232307   5.102   3.840   1.482  0.4378  0.0560  0.3896
 3631TIP3    H132308   5.175   3.891   1.516  0.0441  0.7584  0.2004
 3631TIP3    H232309   5.033   3.850   1.547 -0.4929  1.8250 -0.8212
 3632TIP3   OH232310   4.662   0.661  15.968  0.6078  1.1857  0.2768
 3632TIP3    H132311   4.619   0.746  15.961 -0.7408  0.3942 -1.3292
 3632TIP3    H232312   4.755   0.680  15.950  0.1706  2.1776 -1.0662
 3633TIP3   OH232313   4.034   4.378   4.027 -0.0965 -0.0718 -0.1135
 3633TIP3    H132314   3.948   4.418   4.045  0.1612  0.6431 -0.4657
 3633TIP3    H232315   4.070   4.360   4.114 -0.2545  0.3731  0.0459
 3634TIP3   OH232316   4.073   1.322   4.281  0.1951  0.1442  0.5184
 3634TIP3    H132317   4.043   1.357   4.364 -1.8447  2.0773 -0.9691
 3634TIP3    H232318   3.994   1.314   4.228  1.7706  1.8014 -2.2309
 3635TIP3   OH232319   5.476   2.307  17.238 -0.1895  0.9173 -0.3286
 3635TIP3    H132320   5.442   2.237  17.182  1.3296 -0.1082  0.0230
 3635TIP3    H232321   5.464   2.387  17.186  0.1594  0.1184 -1.6617
 3636TIP3   OH232322   3.656   4.830   5.186  0.4556  0.2763  0.2828
 3636TIP3    H132323   3.715   4.768   5.229 -0.4273  0.0195  1.1348
 3636TIP3    H232324   3.579   4.778   5.164  0.4775  0.6443 -0.6972
 3637TIP3   OH232325   1.107   2.767   2.910 -0.2775 -0.3751 -0.3119
 3637TIP3    H132326   1.062   2.683   2.920  0.5750 -0.6311  1.6417
 3637TIP3    H232327   1.199   2.748   2.932  0.4298  0.5395 -2.3622
 3638TIP3   OH232328   1.322   1.244  12.411  0.4193 -0.4469 -0.4299
 3638TIP3    H132329   1.354   1.332  12.392 -2.7560  0.2743 -3.0280
 3638TIP3    H232330   1.260   1.257  12.483 -0.8416 -0.3475 -1.5138
 3639TIP3   OH232331   3.539   3.122   2.176 -0.5308 -0.6603 -0.0226
 3639TIP3    H132332   3.618   3.081   2.140 -1.5777 -1.2080 -1.8147
 3639TIP3    H232333   3.546   3.214   2.151 -0.5242 -0.7393 -0.3177
 3640TIP3   OH232334   0.148   5.726  16.791  0.6900  0.1696  0.8325
 3640TIP3    H132335   0.096   5.755  16.716  0.8465  0.2471  0.7559
 3640TIP3    H232336   0.107   5.770  16.866  1.0100  0.6902  0.7000
 3641TIP3   OH232337   0.826   2.082  15.390 -0.1243 -0.2090  0.0760
 3641TIP3    H132338   0.771   2.005  15.378  0.1820 -0.4370  0.1372
 3641TIP3    H232339   0.910   2.058  15.353 -0.7980  1.0534 -2.3586
 3642TIP3   OH232340   1.734   3.866   2.327  0.4342 -0.2916  0.0351
 3642TIP3    H132341   1.641   3.848   2.343  0.1034  1.6062  0.4988
 3642TIP3    H232342   1.734   3.955   2.291  2.0413 -0.4721 -0.4156
 3643TIP3   OH232343   0.479   5.927  11.503 -0.0378 -0.0351 -0.2932
 3643TIP3    H132344   0.541   5.854  11.516  1.0111  0.8925 -0.0034
 3643TIP3    H232345   0.449   5.916  11.413  0.4590 -0.5696 -0.4021
 3644TIP3   OH232346   0.962   2.615  10.451 -0.1249 -0.3670  0.0050
 3644TIP3    H132347   1.007   2.554  10.392  0.6908  0.4243 -0.1939
 3644TIP3    H232348   1.030   2.647  10.509 -0.6604 -0.0536  0.4585
 3645TIP3   OH232349   3.296   3.708   3.758 -0.4746  0.0449 -0.3735
 3645TIP3    H132350   3.262   3.723   3.846  0.6100 -1.3032  0.2726
 3645TIP3    H232351   3.217   3.699   3.704 -1.1548 -0.9056  0.7580
 3646TIP3   OH232352   5.783   1.518   3.279  0.7727 -0.2793  0.5835
 3646TIP3    H132353   5.711   1.570   3.315 -1.3680 -1.8092 -1.3276
 3646TIP3    H232354   5.802   1.454   3.348 -0.4113 -0.5102  0.7122
 3647TIP3   OH232355   5.001   3.944  13.366  0.2507 -0.7952  0.1002
 3647TIP3    H132356   5.030   4.014  13.307  0.5439 -1.5182 -0.6135
 3647TIP3    H232357   5.062   3.948  13.440 -0.7624  0.8101  0.8945
 3648TIP3   OH232358   0.988   5.171   0.345 -0.3265 -0.3051 -0.7280
 3648TIP3    H132359   0.998   5.247   0.403  4.1256 -1.6211  0.4273
 3648TIP3    H232360   1.003   5.206   0.257 -1.0824  0.6278 -0.4911
 3649TIP3   OH232361   5.371   2.966  12.356  0.1436 -0.1874  0.3692
 3649TIP3    H132362   5.458   3.006  12.359 -0.3580  1.0035 -0.7337
 3649TIP3    H232363   5.360   2.940  12.265 -1.0839  0.6292  0.2754
 3650TIP3   OH232364   3.770   1.380   5.385 -0.0399  0.4436  0.2553
 3650TIP3    H132365   3.799   1.367   5.475  0.5218  1.6277  0.2524
 3650TIP3    H232366   3.785   1.472   5.368 -0.7957  0.3773 -0.8304
 3651TIP3   OH232367   4.091   5.384  13.382  0.3724 -0.3570  0.5327
 3651TIP3    H132368   4.184   5.370  13.362  0.3369 -0.3095  0.3274
 3651TIP3    H232369   4.058   5.432  13.306  0.2755 -0.0042  0.8009
 3652TIP3   OH232370   1.243   4.366  16.391  0.4053  0.1482 -0.4174
 3652TIP3    H132371   1.294   4.400  16.317 -0.2997  0.4810 -0.7557
 3652TIP3    H232372   1.207   4.444  16.433  0.9996 -0.0291  0.4174
 3653TIP3   OH232373   3.772   0.814   4.338 -0.5177 -0.0652  0.2947
 3653TIP3    H132374   3.685   0.854   4.331 -1.2162 -1.3836  1.0700
 3653TIP3    H232375   3.826   0.880   4.379 -1.1188  0.8278 -0.3264
 3654TIP3   OH232376   6.179   6.132  11.198 -0.3479  0.0840 -0.1080
 3654TIP3    H132377   6.156   6.218  11.234 -0.9327 -0.0511 -0.1585
 3654TIP3    H232378   6.114   6.116  11.130  1.3143  0.7582 -1.8957
 3655TIP3   OH232379   5.657   1.195  14.176 -0.1979  0.0553  0.1053
 3655TIP3    H132380   5.593   1.131  14.206  0.1000  0.4202  1.5625
 3655TIP3    H232381   5.622   1.279  14.203  0.0605  0.4009 -0.6250
 3656TIP3   OH232382   5.003   3.691   3.575  0.5310 -0.0554  0.3894
 3656TIP3    H132383   4.977   3.757   3.510  2.1234  0.8988  0.6960
 3656TIP3    H232384   5.041   3.741   3.647 -0.6325 -1.1544  1.7971
 3657TIP3   OH232385   1.750   4.094   1.109 -0.6831  0.1544 -0.0158
 3657TIP3    H132386   1.774   4.093   1.016 -1.6788  0.1003 -0.2853
 3657TIP3    H232387   1.792   4.173   1.144 -2.6636  1.8050 -1.1859
 3658TIP3   OH232388   0.191   2.406  15.796  0.0340  0.6359  0.1229
 3658TIP3    H132389   0.199   2.368  15.709  0.8157 -0.1970  0.5496
 3658TIP3    H232390   0.274   2.450  15.812  0.6763 -0.8988  1.2143
 3659TIP3   OH232391   2.909   5.622  16.584  0.8520  0.7493  0.3765
 3659TIP3    H132392   2.839   5.598  16.645  1.5398  3.5990  2.3710
 3659TIP3    H232393   2.863   5.661  16.509  0.0225 -2.5252 -0.9048
 3660TIP3   OH232394   3.645   4.071   5.444  0.1897  0.7772 -0.2745
 3660TIP3    H132395   3.583   4.037   5.509  2.2367 -0.6837  0.9783
 3660TIP3    H232396   3.667   4.158   5.476 -1.0912  1.2318 -0.6275
 3661TIP3   OH232397   2.974   6.224  16.488 -0.2767 -0.4953 -0.0719
 3661TIP3    H132398   2.965   6.245  16.581  0.4421  1.6749 -0.4494
 3661TIP3    H232399   2.886   6.199  16.460 -1.0146  1.1818  0.6656
 3662TIP3   OH232400   2.475   6.002   3.253 -0.4442 -0.3707  0.3032
 3662TIP3    H132401   2.472   6.016   3.158 -1.8768 -0.3065  0.3521
 3662TIP3    H232402   2.428   5.920   3.266  0.1561 -0.6223  0.9262
 3663TIP3   OH232403   1.544   4.311  12.965  0.3041 -0.4027 -0.5104
 3663TIP3    H132404   1.610   4.361  13.012  1.1532 -2.7083  0.8338
 3663TIP3    H232405   1.476   4.374  12.944  1.1303  1.2178  1.5357
 3664TIP3   OH232406   1.788   5.816  14.498  0.0481  0.5339 -0.2671
 3664TIP3    H132407   1.706   5.768  14.485  0.4166 -1.2382  3.2459
 3664TIP3    H232408   1.764   5.889  14.555  0.9624 -0.3386  1.2728
 3665TIP3   OH232409   5.818   5.724   6.605 -0.2876  0.0995  0.6679
 3665TIP3    H132410   5.724   5.732   6.586 -0.6574  0.1486  2.4552
 3665TIP3    H232411   5.824   5.647   6.662  0.7341  0.2598  0.7759
 3666TIP3   OH232412   5.592   1.067  14.909  0.0359  0.2430  0.4889
 3666TIP3    H132413   5.600   1.161  14.926  0.5428  0.2002  0.4742
 3666TIP3    H232414   5.506   1.058  14.867  1.2248  1.1000 -2.2879
 3667TIP3   OH232415   3.201   2.108  13.357  0.3379  0.2044 -0.1516
 3667TIP3    H132416   3.184   2.191  13.401  0.4214 -0.1172  0.4855
 3667TIP3    H232417   3.196   2.042  13.426 -1.4382 -0.5170 -0.9418
 3668TIP3   OH232418   6.106   6.392   0.154 -0.2674 -0.3337 -0.1848
 3668TIP3    H132419   6.103   6.418   0.061  0.2354  1.4627  0.2828
 3668TIP3    H232420   6.046   6.452   0.197 -1.1809 -1.7491  0.5400
 3669TIP3   OH232421   0.633   0.301   5.486  0.0755 -0.3137  0.1748
 3669TIP3    H132422   0.602   0.357   5.415  0.5454  1.5323  1.3975
 3669TIP3    H232423   0.682   0.231   5.443 -0.3465  0.3249 -1.3533
 3670TIP3   OH232424   0.222   3.400  15.324 -0.0403  0.0723 -0.2055
 3670TIP3    H132425   0.289   3.342  15.289 -1.1513 -1.5627  0.3189
 3670TIP3    H232426   0.270   3.479  15.351  1.6106 -0.9570 -0.0935
 3671TIP3   OH232427   2.869   6.471  12.547 -0.2577  0.1977 -0.2002
 3671TIP3    H132428   2.852   6.377  12.535 -0.4573  0.6355 -3.9376
 3671TIP3    H232429   2.959   6.483  12.516 -0.0446  1.1674  0.7771
 3672TIP3   OH232430   1.316   0.321  13.832 -0.2482  0.4854  0.2001
 3672TIP3    H132431   1.240   0.268  13.811  0.7460 -0.3946 -1.2946
 3672TIP3    H232432   1.339   0.364  13.749  0.2380  1.5676  0.8805
 3673TIP3   OH232433   0.637   6.413  14.213 -0.1830 -0.1799 -0.0845
 3673TIP3    H132434   0.695   6.427  14.138  2.1811 -0.9635  1.5372
 3673TIP3    H232435   0.589   6.332  14.192 -0.5964  0.3845 -1.3609
 3674TIP3   OH232436   2.348   3.568  12.582  0.2904 -0.4127  0.5675
 3674TIP3    H132437   2.408   3.495  12.566  2.1169  0.9994  0.8875
 3674TIP3    H232438   2.358   3.625  12.506 -2.3897 -1.2863 -0.5098
 3675TIP3   OH232439   3.936   4.325  17.200  0.4378 -0.0650 -0.3363
 3675TIP3    H132440   3.846   4.294  17.198  0.2298  0.5993 -1.6763
 3675TIP3    H232441   3.986   4.251  17.233 -0.2576 -1.3278 -2.0433
 3676TIP3   OH232442   5.548   1.565   3.681  0.3116 -0.3482 -0.7496
 3676TIP3    H132443   5.608   1.528   3.746 -1.7754 -0.7833  1.0176
 3676TIP3    H232444   5.556   1.659   3.692  1.4946 -0.3832 -1.3048
 3677TIP3   OH232445   4.592   2.489  11.230  0.7381  0.1034 -0.5399
 3677TIP3    H132446   4.529   2.429  11.269  1.8873  0.2847  1.6524
 3677TIP3    H232447   4.539   2.550  11.178 -0.8623  0.1005  1.0692
 3678TIP3   OH232448   0.438   5.717  12.042 -0.5478  0.1050 -0.1341
 3678TIP3    H132449   0.381   5.645  12.016 -0.6481  0.5805 -1.2701
 3678TIP3    H232450   0.389   5.764  12.110 -0.8484 -0.3907 -0.0127
 3679TIP3   OH232451   2.158   4.337   0.052  0.3619  0.4244 -0.3838
 3679TIP3    H132452   2.086   4.322   0.113 -1.0004  2.2750 -1.4885
 3679TIP3    H232453   2.220   4.390   0.102 -0.5397  1.5534 -0.4465
 3680TIP3   OH232454   1.459   2.062  15.499 -0.4105  0.6786  0.4194
 3680TIP3    H132455   1.444   2.066  15.405 -0.3986  1.4139  0.4391
 3680TIP3    H232456   1.416   1.982  15.528 -0.3266  0.4013 -0.2252
 3681TIP3   OH232457   4.172   1.905   2.385 -0.0397  0.7250 -0.1026
 3681TIP3    H132458   4.087   1.924   2.344  0.2384  0.5258 -0.7789
 3681TIP3    H232459   4.151   1.895   2.478 -1.2265 -2.0164 -0.6051
 3682TIP3   OH232460   2.015   0.454   3.128  0.2139 -0.0466  0.6511
 3682TIP3    H132461   1.987   0.542   3.154 -0.0992 -0.1423  0.6398
 3682TIP3    H232462   2.001   0.401   3.207 -0.2474 -0.2300  0.4465
 3683TIP3   OH232463   1.518   5.149  16.064  0.4999 -0.3477 -0.3079
 3683TIP3    H132464   1.584   5.218  16.074 -1.5256  1.7395 -1.0819
 3683TIP3    H232465   1.514   5.107  16.150  0.9705  1.2052  0.4846
 3684TIP3   OH232466   2.609   3.178  13.340 -0.3450 -0.0675  0.1197
 3684TIP3    H132467   2.648   3.094  13.365 -1.6451 -0.3219  1.3027
 3684TIP3    H232468   2.519   3.158  13.317 -0.5674  0.9645  0.0427
 3685TIP3   OH232469   5.310   6.038  13.722 -0.5104 -0.5198  0.2913
 3685TIP3    H132470   5.310   5.943  13.712 -1.3862 -0.4841 -0.0882
 3685TIP3    H232471   5.242   6.056  13.787 -0.9991 -0.0951 -0.3175
 3686TIP3   OH232472   3.909   6.027  13.508  0.1239  0.1456 -0.1816
 3686TIP3    H132473   3.995   6.067  13.522  1.6987 -1.6589 -3.9954
 3686TIP3    H232474   3.867   6.081  13.440 -0.4745 -0.7548 -0.5453
 3687TIP3   OH232475   2.208   5.236  11.581  0.3922  0.5377  0.5639
 3687TIP3    H132476   2.205   5.311  11.641 -0.8862  1.4005 -0.5404
 3687TIP3    H232477   2.264   5.266  11.509 -0.8847  0.7747 -0.3300
 3688TIP3   OH232478   1.704   6.457  14.488 -0.2805  0.0173  0.1320
 3688TIP3    H132479   1.738   6.417  14.568  0.1547  0.9753  0.4371
 3688TIP3    H232480   1.781   6.469  14.432 -0.3638  0.6356  0.1416
 3689TIP3   OH232481   3.346   1.805  14.783  0.5685 -0.5704 -0.1358
 3689TIP3    H132482   3.373   1.765  14.866  1.6520  0.4365 -0.0017
 3689TIP3    H232483   3.251   1.817  14.792  1.0700  2.1719  2.1017
 3690TIP3   OH232484   1.692   3.482  11.682  0.0575  0.3229  0.0257
 3690TIP3    H132485   1.672   3.482  11.589  0.2985  0.5770 -0.0243
 3690TIP3    H232486   1.607   3.492  11.725  0.0168  0.8405 -0.1765
 3691TIP3   OH232487   2.865   4.032   3.686  0.0379 -0.2890  0.0250
 3691TIP3    H132488   2.844   4.056   3.596  0.7992 -1.6351 -0.5349
 3691TIP3    H232489   2.861   3.936   3.687  0.1556 -0.2917  1.3854
 3692TIP3   OH232490   5.221   0.321  15.450 -0.6895 -0.3904  0.2488
 3692TIP3    H132491   5.261   0.366  15.524 -1.9166  0.6338  0.3075
 3692TIP3    H232492   5.191   0.238  15.485 -1.4023  0.1547  0.9299
 3693TIP3   OH232493   0.196   2.910  13.153  0.4365  0.4485  0.2880
 3693TIP3    H132494   0.230   2.928  13.241 -0.2399 -0.6195  0.7835
 3693TIP3    H232495   0.271   2.878  13.104  0.3102 -1.2224  1.1701
 3694TIP3   OH232496   6.579   4.249  16.637 -0.2001 -0.2235  0.5741
 3694TIP3    H132497   6.624   4.322  16.679 -0.5454 -0.2614  1.0123
 3694TIP3    H232498   6.649   4.195  16.600 -0.0353  1.8000 -2.2023
 3695TIP3   OH232499   5.733   5.734   5.703 -0.3397 -0.0890 -0.2279
 3695TIP3    H132500   5.675   5.673   5.657 -0.6089  0.1263 -0.1786
 3695TIP3    H232501   5.673   5.787   5.757 -0.2815  1.3415 -1.5437
 3696TIP3   OH232502   0.912   0.298   0.232  0.2283 -0.3009 -0.5857
 3696TIP3    H132503   0.880   0.315   0.320 -1.6069 -1.2314 -1.0547
 3696TIP3    H232504   0.996   0.344   0.228 -1.5142  3.1090  0.3421
 3697TIP3   OH232505   2.039   1.711   1.032 -0.1246 -0.2200  0.5857
 3697TIP3    H132506   1.996   1.637   1.075 -0.2735 -1.1429 -1.1046
 3697TIP3    H232507   1.975   1.742   0.968  0.1135  1.0991  0.9717
 3698TIP3   OH232508   3.423   2.998   1.246 -0.3729 -0.6122 -0.1982
 3698TIP3    H132509   3.340   3.027   1.209  0.2641 -0.5511 -1.6151
 3698TIP3    H232510   3.487   3.014   1.177  0.9173 -0.1486  1.0738
 3699TIP3   OH232511   6.716   5.155   4.277  0.3485  0.7027 -0.3228
 3699TIP3    H132512   6.640   5.122   4.229 -0.1311  1.3507 -0.0127
 3699TIP3    H232513   6.749   5.078   4.324 -0.1288  0.4240 -0.4332
 3700TIP3   OH232514   4.767   0.141  15.817 -0.0335 -0.2955 -0.9183
 3700TIP3    H132515   4.813   0.221  15.844 -1.6544  0.8807 -1.5607
 3700TIP3    H232516   4.716   0.167  15.740 -2.0654 -1.4478 -0.0208
 3701TIP3   OH232517   5.206   1.391   5.295  0.2640 -0.0718 -0.6851
 3701TIP3    H132518   5.283   1.374   5.241  0.8435 -2.5369  0.8497
 3701TIP3    H232519   5.227   1.471   5.342  1.1497  0.2441 -1.5883
 3702TIP3   OH232520   2.971   4.144  11.288  0.3354 -0.1820 -0.0130
 3702TIP3    H132521   2.928   4.151  11.202  0.4646 -1.3216 -0.1779
 3702TIP3    H232522   2.898   4.129  11.349  0.2995 -0.0020 -0.0116
 3703TIP3   OH232523   6.365   6.340   0.772 -0.5098 -0.2041 -0.3090
 3703TIP3    H132524   6.377   6.259   0.723 -0.6810 -0.1987 -0.3606
 3703TIP3    H232525   6.437   6.397   0.742 -0.9121 -0.0174 -0.9316
 3704TIP3   OH232526   4.057   6.760  11.618  0.5188  0.5550 -0.0850
 3704TIP3    H132527   4.051   6.742  11.712  1.7243 -2.3925 -0.4918
 3704TIP3    H232528   3.968   6.746  11.586 -0.0546  2.2935  0.7201
 3705TIP3   OH232529   5.569   4.274   2.204 -0.3593 -0.6521 -0.3067
 3705TIP3    H132530   5.557   4.335   2.131 -0.1735  0.3397  0.4826
 3705TIP3    H232531   5.548   4.325   2.282 -0.2480 -1.6135  0.3662
 3706TIP3   OH232532   2.929   1.176   6.677 -0.7338 -0.0898 -0.1359
 3706TIP3    H132533   3.001   1.162   6.738  0.5999 -1.4477 -1.9719
 3706TIP3    H232534   2.855   1.130   6.716 -0.0050 -0.6263  0.6386
 3707TIP3   OH232535   4.199   6.208  17.170 -0.4121  0.1284  0.0337
 3707TIP3    H132536   4.108   6.198  17.198 -0.1813 -0.3938  0.6240
 3707TIP3    H232537   4.202   6.168  17.083 -1.2630  2.2782 -0.9956
 3708TIP3   OH232538   0.778   1.719   3.296 -0.0410 -0.2701  0.7982
 3708TIP3    H132539   0.850   1.659   3.275  1.2655  1.5901 -0.2365
 3708TIP3    H232540   0.771   1.775   3.218 -0.3427  1.7729  2.2745
 3709TIP3   OH232541   6.747   4.851   2.087 -0.2873  0.1703  0.1886
 3709TIP3    H132542   6.840   4.848   2.066  0.0848 -0.1750  1.7833
 3709TIP3    H232543   6.712   4.921   2.033  0.9033  0.3007 -0.4197
 3710TIP3   OH232544   2.187   5.828  11.319  0.1163  0.2792 -0.2873
 3710TIP3    H132545   2.129   5.885  11.370 -1.4895 -1.8781  0.3630
 3710TIP3    H232546   2.185   5.865  11.231 -1.5636  0.7735 -0.0669
 3711TIP3   OH232547   6.167   4.501   3.458  0.0800  0.5574  0.2851
 3711TIP3    H132548   6.097   4.475   3.518 -0.3541  1.0836  0.0141
 3711TIP3    H232549   6.220   4.422   3.447 -0.4547  0.1639  0.5166
 3712TIP3   OH232550   2.829   0.380  12.223 -0.2967  0.2711 -0.2818
 3712TIP3    H132551   2.866   0.335  12.299  0.9692  0.3970 -0.8126
 3712TIP3    H232552   2.789   0.459  12.260  0.3498  0.3583  0.2444
 3713TIP3   OH232553   0.809   6.036   4.623 -0.1913  0.0037 -0.3321
 3713TIP3    H132554   0.889   6.020   4.673 -0.7460  0.4457  0.7140
 3713TIP3    H232555   0.756   5.958   4.638 -0.9644  0.7583  0.9817
 3714TIP3   OH232556   0.737   3.630   1.236 -0.3175  0.6897  0.2633
 3714TIP3    H132557   0.680   3.580   1.295 -0.9400 -1.5635 -2.1547
 3714TIP3    H232558   0.683   3.648   1.159  0.9715  2.1683 -0.3310
 3715TIP3   OH232559   6.122   4.513   3.923  0.3362  0.2724  1.1572
 3715TIP3    H132560   6.151   4.478   3.838 -0.4070 -0.0747  1.0419
 3715TIP3    H232561   6.074   4.593   3.901  0.4223  0.3568  1.2757
 3716TIP3   OH232562   0.282   2.430  15.137 -0.0710  0.1079 -0.1037
 3716TIP3    H132563   0.193   2.417  15.106  0.0146 -0.8835  0.0625
 3716TIP3    H232564   0.334   2.442  15.057 -0.2267 -0.1008 -0.2350
 3717TIP3   OH232565   5.510   1.225   0.023 -0.4416  0.2220 -0.0866
 3717TIP3    H132566   5.521   1.320   0.037 -0.7230  0.3989 -1.0644
 3717TIP3    H232567   5.417   1.210   0.036 -0.2518 -0.0872  0.9970
 3718TIP3   OH232568   6.118   5.746  12.831 -0.1513 -0.2485 -0.0392
 3718TIP3    H132569   6.145   5.660  12.798  1.1713 -0.1175  0.6359
 3718TIP3    H232570   6.042   5.770  12.779 -0.0294 -1.4715 -0.7855
 3719TIP3   OH232571   5.353   1.646  16.723  0.3113 -0.1455  0.0266
 3719TIP3    H132572   5.383   1.564  16.684  0.4496 -0.4378  0.7480
 3719TIP3    H232573   5.263   1.655  16.693  0.5501 -0.1611 -0.6964
 3720TIP3   OH232574   0.677   5.463   2.695 -0.6858  0.1426 -0.0980
 3720TIP3    H132575   0.752   5.406   2.713  0.3261  1.3002 -0.5744
 3720TIP3    H232576   0.628   5.418   2.626 -0.0412 -0.2942 -0.2708
 3721TIP3   OH232577   6.588   5.601   2.993 -0.7970  0.3740 -0.0619
 3721TIP3    H132578   6.669   5.608   2.942 -0.0023 -0.4114  1.0813
 3721TIP3    H232579   6.610   5.637   3.079 -1.3615 -0.8320  0.5902
 3722TIP3   OH232580   6.268   4.403  16.402 -0.0160 -1.0258 -0.2947
 3722TIP3    H132581   6.320   4.482  16.383 -1.7038  0.2159  0.1134
 3722TIP3    H232582   6.225   4.382  16.319 -0.5017 -0.7989 -0.1042
 3723TIP3   OH232583   2.417   0.650  11.511  0.4548  0.3597  0.0079
 3723TIP3    H132584   2.429   0.721  11.574 -1.8472  0.4345  0.4019
 3723TIP3    H232585   2.387   0.576  11.564  0.0438 -0.0562 -0.7948
 3724TIP3   OH232586   1.493   1.735  15.279  0.3043  0.1972  0.0475
 3724TIP3    H132587   1.501   1.750  15.373 -0.3636 -1.7541  0.4297
 3724TIP3    H232588   1.401   1.712  15.266  0.7926 -1.2766 -0.8389
 3725TIP3   OH232589   1.204   2.648  15.451 -0.1728  0.4945  0.3105
 3725TIP3    H132590   1.158   2.570  15.420  0.0140  1.0244 -1.3365
 3725TIP3    H232591   1.290   2.616  15.477 -0.5373 -0.0553  0.8563
 3726TIP3   OH232592   1.303   1.116  12.759 -0.3350 -0.1192 -0.5136
 3726TIP3    H132593   1.354   1.077  12.687  0.6436  0.9648 -0.4188
 3726TIP3    H232594   1.276   1.041  12.812  0.7401 -0.7609 -0.8428
 3727TIP3   OH232595   3.879   6.771   1.431  0.2502 -0.4330  0.1268
 3727TIP3    H132596   3.943   6.840   1.448 -0.2233 -0.2549  1.2366
 3727TIP3    H232597   3.805   6.816   1.391  0.3986 -0.4818 -0.2079
 3728TIP3   OH232598   4.849   5.168   0.939 -0.0389  0.1576  0.0327
 3728TIP3    H132599   4.901   5.229   0.992  0.6083 -0.6458  0.3300
 3728TIP3    H232600   4.806   5.223   0.873 -1.0525  1.2012  1.5418
 3729TIP3   OH232601   4.559   2.928   1.964  0.2318 -0.5753 -0.0669
 3729TIP3    H132602   4.565   2.979   2.045  0.0576 -1.0103  0.2173
 3729TIP3    H232603   4.519   2.988   1.902  1.7120  0.2592 -0.2472
 3730TIP3   OH232604   0.979   5.470   2.426  0.0807  0.1517  0.5429
 3730TIP3    H132605   1.066   5.432   2.439  0.8715  1.7202 -0.0544
 3730TIP3    H232606   0.974   5.541   2.490 -0.7782  0.0186  0.6198
 3731TIP3   OH232607   5.695   4.664  11.465  0.0847 -0.0373 -0.0240
 3731TIP3    H132608   5.781   4.704  11.482  1.0290 -1.3415 -1.5292
 3731TIP3    H232609   5.648   4.673  11.548  2.0575 -0.2298  1.1668
 3732TIP3   OH232610   3.030   5.652  17.151  0.5169 -0.4466 -0.6693
 3732TIP3    H132611   3.000   5.605  17.229  2.1917  1.3390  1.0975
 3732TIP3    H232612   3.125   5.646  17.155  0.6388  0.3618 -2.1726
 3733TIP3   OH232613   6.088   1.455   5.448  0.5165  0.2018 -0.0064
 3733TIP3    H132614   6.003   1.494   5.430  1.7080  2.3700 -1.1408
 3733TIP3    H232615   6.076   1.406   5.529 -2.7220 -2.4743 -1.9661
 3734TIP3   OH232616   2.799   2.304   0.452  0.4945  0.0397  0.3757
 3734TIP3    H132617   2.875   2.281   0.400  1.7060  0.1589  2.0486
 3734TIP3    H232618   2.728   2.251   0.416  0.9270  1.2544 -2.3598
 3735TIP3   OH232619   5.957   3.853   1.258 -0.3407  0.4952  0.0056
 3735TIP3    H132620   6.020   3.780   1.259 -0.6400  0.2350  0.0420
 3735TIP3    H232621   5.962   3.888   1.169 -0.0642  0.5436  0.0402
 3736TIP3   OH232622   1.456   2.202   2.979 -0.1605  0.1328  0.4019
 3736TIP3    H132623   1.527   2.241   2.928 -1.6811 -0.0856 -1.9794
 3736TIP3    H232624   1.497   2.176   3.061  1.9504  2.2612  0.0754
 3737TIP3   OH232625   2.086   1.766  13.503 -0.0677  0.0549  0.0461
 3737TIP3    H132626   2.180   1.751  13.496  0.0166  0.7518 -0.2915
 3737TIP3    H232627   2.051   1.681  13.529  0.6129 -0.2979 -0.1728
 3738TIP3   OH232628   2.324   5.078  14.314  0.1658  0.3218 -0.8436
 3738TIP3    H132629   2.276   5.090  14.231 -0.3171 -0.0228 -0.6176
 3738TIP3    H232630   2.304   4.988  14.340  0.7240  0.2660 -0.6049
 3739TIP3   OH232631   3.380   4.759   4.034 -0.4663 -0.2027 -0.0440
 3739TIP3    H132632   3.330   4.802   3.965  0.4894  0.4817 -0.3188
 3739TIP3    H232633   3.358   4.808   4.114 -1.2438 -0.7321  0.0796
 3740TIP3   OH232634   1.020   4.668   1.106  0.4037 -0.3613 -0.6251
 3740TIP3    H132635   1.020   4.622   1.023 -1.3919 -1.8583  0.1792
 3740TIP3    H232636   0.928   4.683   1.126  0.6463 -2.3520  2.3335
 3741TIP3   OH232637   5.082   4.027  13.705 -0.0637 -0.5895  0.2172
 3741TIP3    H132638   5.166   3.986  13.726 -0.3494 -2.5287 -2.2026
 3741TIP3    H232639   5.105   4.104  13.653  0.2123 -2.1783 -2.1050
 3742TIP3   OH232640   6.350   0.411  12.101 -0.0358 -0.3986  0.0941
 3742TIP3    H132641   6.430   0.372  12.135 -0.3061 -0.9207  0.1364
 3742TIP3    H232642   6.310   0.342  12.048  0.1107  0.2295 -0.8484
 3743TIP3   OH232643   4.164   2.402   2.000  0.3012  0.1301  0.7040
 3743TIP3    H132644   4.233   2.465   2.020 -0.3734  1.0945  0.0183
 3743TIP3    H232645   4.102   2.408   2.073  0.4329 -0.0264  0.8300
 3744TIP3   OH232646   0.993   3.811   5.562 -0.3130 -0.9285  0.4422
 3744TIP3    H132647   0.927   3.749   5.529 -2.4051  1.9264 -0.8837
 3744TIP3    H232648   1.072   3.758   5.571 -1.5554 -3.4293 -2.3916
 3745TIP3   OH232649   5.757   2.731  12.892 -0.5008  0.0906  0.3051
 3745TIP3    H132650   5.851   2.743  12.876 -0.6240 -0.5269 -0.9664
 3745TIP3    H232651   5.732   2.659  12.834 -1.6462 -0.1318  1.0549
 3746TIP3   OH232652   0.382   4.235   2.250 -0.3692 -0.5403 -0.2960
 3746TIP3    H132653   0.365   4.156   2.198  0.0021  0.0492 -1.3470
 3746TIP3    H232654   0.296   4.271   2.269 -0.5013 -0.5486 -0.8623
 3747TIP3   OH232655   3.940   0.246  16.187 -0.4472 -0.1308 -0.1574
 3747TIP3    H132656   3.974   0.158  16.197 -0.2173 -0.0964 -0.6101
 3747TIP3    H232657   4.015   0.297  16.156 -0.8104  0.0283 -0.7753
 3748TIP3   OH232658   6.083   1.105   3.650  0.7134  0.0988  0.0320
 3748TIP3    H132659   6.089   1.039   3.719 -1.5273 -1.0653 -0.8313
 3748TIP3    H232660   6.105   1.058   3.570  0.6367  0.7953 -0.4018
 3749TIP3   OH232661   1.058   4.071   2.944  0.2990  0.2794  0.0487
 3749TIP3    H132662   1.041   4.012   3.017 -0.0864 -2.3905 -2.1510
 3749TIP3    H232663   1.147   4.102   2.959  0.0036  0.2510  1.9699
 3750TIP3   OH232664   2.003   3.150   5.913 -0.3497  0.6511 -1.0109
 3750TIP3    H132665   1.920   3.107   5.936 -0.3574  1.1264 -0.1095
 3750TIP3    H232666   2.036   3.183   5.997  0.9639  0.0948 -1.2904
 3751TIP3   OH232667   2.581   4.882   6.044  0.0815  0.0135  0.2792
 3751TIP3    H132668   2.673   4.909   6.037  0.7862 -2.2615  0.4127
 3751TIP3    H232669   2.539   4.953   6.092  1.9263  0.7217  0.9008
 3752TIP3   OH232670   1.111   5.720   1.389  0.4226 -0.1837 -0.0945
 3752TIP3    H132671   1.052   5.748   1.459 -1.0738 -1.0979 -0.9488
 3752TIP3    H232672   1.149   5.801   1.356  1.4053  0.2320  1.9813
 3753TIP3   OH232673   2.442   3.926  17.184 -0.1170 -0.0666 -0.2744
 3753TIP3    H132674   2.411   4.011  17.154 -1.3954 -0.7670 -0.9864
 3753TIP3    H232675   2.518   3.907  17.129 -1.7269 -0.7982 -2.3253
 3754TIP3   OH232676   3.614   2.803   2.450 -0.4761  0.0020 -0.5479
 3754TIP3    H132677   3.537   2.749   2.433 -0.9898  0.7475 -0.6134
 3754TIP3    H232678   3.588   2.859   2.524 -0.3466  0.9308 -1.1920
 3755TIP3   OH232679   5.336   4.334   6.157  0.2416 -0.4360  0.8866
 3755TIP3    H132680   5.280   4.406   6.188  0.8034  0.0733  0.7299
 3755TIP3    H232681   5.284   4.255   6.172 -0.8254  0.0904  0.0800
 3756TIP3   OH232682   5.318   1.388  11.263  0.0615  0.6843  0.0608
 3756TIP3    H132683   5.283   1.465  11.308  1.0701  0.8442  0.5752
 3756TIP3    H232684   5.356   1.335  11.332 -2.6334 -1.3937  0.0160
 3757TIP3   OH232685   1.319   0.714   0.885 -0.5615 -0.1573  0.1242
 3757TIP3    H132686   1.392   0.684   0.940 -0.1454  1.0413  0.2292
 3757TIP3    H232687   1.346   0.694   0.795 -0.7076 -0.9801  0.2602
 3758TIP3   OH232688   0.753   2.202   2.650  0.4777 -0.1992 -0.1957
 3758TIP3    H132689   0.812   2.164   2.715  0.6398  1.6093  0.7373
 3758TIP3    H232690   0.809   2.253   2.592 -0.0332  0.7576  0.1367
 3759TIP3   OH232691   3.622   3.724   4.160 -0.4045  0.0216  0.2634
 3759TIP3    H132692   3.561   3.740   4.089  0.8120  2.5606 -0.2781
 3759TIP3    H232693   3.658   3.810   4.181  1.9520 -1.1977  1.4970
 3760TIP3   OH232694   5.415   4.562   3.010  0.3679 -0.3286 -0.5290
 3760TIP3    H132695   5.382   4.540   3.097 -0.2019 -0.2793 -0.7249
 3760TIP3    H232696   5.504   4.527   3.008 -0.2676 -2.0011 -0.5799
 3761TIP3   OH232697   2.726   6.037  11.284 -0.2620  0.2181 -0.0396
 3761TIP3    H132698   2.739   6.103  11.216  0.0698 -0.1271 -0.3116
 3761TIP3    H232699   2.677   5.967  11.241  0.8919 -0.4907 -0.2313
 3762TIP3   OH232700   5.345   3.864   4.729 -0.4280 -0.4301 -0.0687
 3762TIP3    H132701   5.304   3.942   4.692 -0.5956 -0.3950  0.1834
 3762TIP3    H232702   5.273   3.801   4.735 -0.6354 -0.0974  1.1314
 3763TIP3   OH232703   5.210   0.670   1.725 -0.3561 -0.0118 -0.1139
 3763TIP3    H132704   5.261   0.685   1.646 -0.1804  0.2312  0.0455
 3763TIP3    H232705   5.258   0.716   1.794 -0.2213 -0.6578  0.2348
 3764TIP3   OH232706   0.494   3.226   3.815  0.5710 -0.6832  0.2172
 3764TIP3    H132707   0.467   3.136   3.829 -0.2266 -0.2732  1.3924
 3764TIP3    H232708   0.447   3.276   3.882 -1.5413  1.0666 -2.4504
 3765TIP3   OH232709   0.562   2.162   1.444 -0.0283 -0.2040  0.5322
 3765TIP3    H132710   0.643   2.196   1.404 -1.7313  0.6425 -2.3897
 3765TIP3    H232711   0.502   2.236   1.441 -1.2388 -1.1285  1.7108
 3766TIP3   OH232712   5.353   3.476  12.806 -0.2357 -1.0135 -0.4010
 3766TIP3    H132713   5.306   3.415  12.750 -0.8368 -0.8256 -0.1025
 3766TIP3    H232714   5.349   3.438  12.893  0.9488 -1.4497 -0.5293
 3767TIP3   OH232715   5.640   3.468  14.233 -0.5920  0.1186  0.1511
 3767TIP3    H132716   5.598   3.384  14.252 -1.7851  0.6188 -0.1775
 3767TIP3    H232717   5.710   3.476  14.297 -0.4585 -1.1406  0.1593
 3768TIP3   OH232718   4.811   6.320   3.768  0.3574 -0.1213 -0.7066
 3768TIP3    H132719   4.762   6.357   3.842  1.4654 -3.2233  1.6524
 3768TIP3    H232720   4.882   6.382   3.752 -0.2989  0.9162  0.3759
 3769TIP3   OH232721   6.159   0.035   2.024  0.2967 -0.2499  0.0460
 3769TIP3    H132722   6.072  -0.001   2.041  0.2077 -0.9960 -1.8234
 3769TIP3    H232723   6.219  -0.024   2.070 -0.2140  0.8304  2.1664
 3770TIP3   OH232724   3.161   3.474   1.793  0.0415 -0.1864  0.2592
 3770TIP3    H132725   3.084   3.433   1.832  0.6463 -1.0387  0.5730
 3770TIP3    H232726   3.235   3.437   1.842  0.5079  2.4673  1.6075
 3771TIP3   OH232727   2.820   2.303   2.828  0.5387 -0.2818 -0.1975
 3771TIP3    H132728   2.867   2.300   2.744 -1.7784  1.0772 -1.6148
 3771TIP3    H232729   2.728   2.298   2.803 -0.2549  1.6846  2.1669
 3772TIP3   OH232730   3.198   0.180   0.267 -0.5174 -0.0047 -0.2945
 3772TIP3    H132731   3.176   0.087   0.257  0.2550 -0.2148 -0.1193
 3772TIP3    H232732   3.220   0.209   0.178 -1.4310  0.1933 -0.4615
 3773TIP3   OH232733   5.304   5.633  12.709 -0.0484  0.1777 -0.0002
 3773TIP3    H132734   5.231   5.666  12.657  1.4227  0.8040 -1.7237
 3773TIP3    H232735   5.325   5.705  12.769  1.4419  1.4250 -1.9561
 3774TIP3   OH232736   3.011   3.655   2.766 -0.1044 -0.3196  0.2492
 3774TIP3    H132737   2.931   3.603   2.751 -0.5321 -0.2599  2.1762
 3774TIP3    H232738   3.061   3.603   2.829  0.8248  0.2280 -0.0394
 3775TIP3   OH232739   4.016   3.401  15.274  0.4432 -0.1453  0.0118
 3775TIP3    H132740   4.089   3.463  15.274  1.3428 -1.2000 -0.1518
 3775TIP3    H232741   3.944   3.450  15.233  1.7342  0.1379 -1.9993
 3776TIP3   OH232742   5.268   1.863  17.148  0.1502  0.2886 -0.1243
 3776TIP3    H132743   5.203   1.799  17.178 -0.5554  2.0303  2.1983
 3776TIP3    H232744   5.318   1.816  17.081 -1.7895 -1.9453 -0.0866
 3777TIP3   OH232745   4.777   6.219  10.122  0.2555  0.1254  0.3317
 3777TIP3    H132746   4.843   6.239  10.055 -0.2220  1.8385  0.3459
 3777TIP3    H232747   4.743   6.133  10.097  0.0479  0.7472 -1.6763
 3778TIP3   OH232748   2.922   2.979   0.772 -0.1876 -0.2104  1.0541
 3778TIP3    H132749   2.944   2.909   0.710 -2.2971 -0.7832  0.8975
 3778TIP3    H232750   2.972   2.959   0.850  1.3266 -0.3453  0.0775
 3779TIP3   OH232751   4.261   3.563   3.051  0.4943  0.4736 -0.0586
 3779TIP3    H132752   4.186   3.503   3.052  1.1690 -0.3774 -0.0334
 3779TIP3    H232753   4.300   3.554   3.137  1.7128 -0.4775 -0.7031
 3780TIP3   OH232754   0.087   5.272   2.727 -0.2904 -0.6455 -0.6430
 3780TIP3    H132755   0.044   5.261   2.813 -0.9356  1.2799 -0.7052
 3780TIP3    H232756   0.180   5.259   2.745 -0.4206 -0.2271  0.3481
 3781TIP3   OH232757   6.723   6.070  15.278 -0.1016 -0.5759  0.4197
 3781TIP3    H132758   6.634   6.089  15.309 -0.0677  0.3543 -0.0421
 3781TIP3    H232759   6.723   6.100  15.187  0.8078 -0.1776  0.5458
 3782TIP3   OH232760   4.829   3.250   1.681  0.4830  0.8269 -0.0092
 3782TIP3    H132761   4.822   3.186   1.610 -0.2168 -1.1540  1.8031
 3782TIP3    H232762   4.745   3.296   1.679  0.5119  0.8673 -0.5205
 3783TIP3   OH232763   4.212   6.675  15.496 -0.1829  0.8221 -0.2176
 3783TIP3    H132764   4.148   6.730  15.540  0.8292  1.0321  1.0395
 3783TIP3    H232765   4.172   6.588  15.495 -0.0364  0.7094  1.5922
 3784TIP3   OH232766   2.592   6.206   3.789  0.2772 -0.0688  0.4781
 3784TIP3    H132767   2.582   6.172   3.878  3.4496 -1.0418  0.5028
 3784TIP3    H232768   2.580   6.130   3.733 -0.7967  0.3761  0.0813
 3785TIP3   OH232769   0.030   3.218  14.943 -0.2684 -0.6229  0.0865
 3785TIP3    H132770  -0.041   3.155  14.933 -1.1076  0.4670 -0.9039
 3785TIP3    H232771   0.020   3.251  15.032 -0.5793 -0.9682  0.1849
 3786TIP3   OH232772   1.887   5.118   6.073  0.4012 -0.2769  0.0336
 3786TIP3    H132773   1.959   5.079   6.124 -0.9565  0.7471  2.8290
 3786TIP3    H232774   1.904   5.212   6.077 -1.1281 -0.0262  0.7919
 3787TIP3   OH232775   1.965   1.579   5.852 -0.3279 -0.5834 -0.0471
 3787TIP3    H132776   1.918   1.568   5.770 -0.6862 -1.8322  0.3053
 3787TIP3    H232777   2.057   1.584   5.827 -0.4246 -1.1406 -0.5154
 3788TIP3   OH232778   3.476   0.448  15.945  0.0182 -0.0576 -0.2838
 3788TIP3    H132779   3.508   0.532  15.979  0.0844 -0.0912 -0.2632
 3788TIP3    H232780   3.517   0.440  15.859 -1.9060  1.0979 -1.3596
 3789TIP3   OH232781   1.650   1.349   2.931  0.3594 -0.3697  0.1223
 3789TIP3    H132782   1.742   1.325   2.920  0.8356  1.7849 -0.7880
 3789TIP3    H232783   1.621   1.299   3.007  2.1743 -1.3241  0.2181
 3790TIP3   OH232784   0.189   1.614  13.411  0.6607  0.0156 -0.1067
 3790TIP3    H132785   0.146   1.600  13.327  2.3599  1.6413 -1.2908
 3790TIP3    H232786   0.281   1.592  13.394  0.7215 -1.3273  1.8046
 3791TIP3   OH232787   0.871   4.463  14.248  0.5864 -0.0600  0.7960
 3791TIP3    H132788   0.797   4.503  14.295  0.1730  0.1689 -0.0375
 3791TIP3    H232789   0.891   4.384  14.298  0.2685  0.2830  1.4628
 3792TIP3   OH232790   5.755   1.123   6.293 -0.7975  0.5077 -0.5567
 3792TIP3    H132791   5.759   1.218   6.289 -1.8972  0.6120  0.7085
 3792TIP3    H232792   5.754   1.102   6.387 -1.1627 -0.7232 -0.8194
 3793TIP3   OH232793   1.321   6.615   3.312 -0.4308 -0.2268 -0.2751
 3793TIP3    H132794   1.338   6.648   3.224  2.9372  1.5234  0.9311
 3793TIP3    H232795   1.327   6.520   3.304 -0.1658 -0.0858 -1.9282
 3794TIP3   OH232796   3.589   0.445   5.595  1.0847  0.9473 -0.1588
 3794TIP3    H132797   3.652   0.501   5.551  0.5376  1.3603 -0.4161
 3794TIP3    H232798   3.511   0.499   5.605  1.3118  0.9621  1.6100
 3795TIP3   OH232799   4.747   6.400   2.082 -0.3750  0.5273 -0.4952
 3795TIP3    H132800   4.823   6.451   2.054  0.6233 -0.5838  0.1476
 3795TIP3    H232801   4.772   6.309   2.067 -1.2533  0.1069  0.5097
 3796TIP3   OH232802   1.909   4.892   6.295  0.2566  0.0800  0.0712
 3796TIP3    H132803   1.973   4.946   6.249  0.2408 -0.7644 -0.9708
 3796TIP3    H232804   1.961   4.833   6.349  0.3097  0.4346  0.4054
 3797TIP3   OH232805   0.236   0.135  13.363  0.0388 -0.1206 -0.6780
 3797TIP3    H132806   0.312   0.094  13.322 -0.0094 -0.7179 -0.1880
 3797TIP3    H232807   0.249   0.119  13.457  0.6336  2.0435 -0.3633
 3798TIP3   OH232808   4.224   4.395  11.246  0.3403 -0.3525  0.4002
 3798TIP3    H132809   4.238   4.489  11.230 -0.6220 -0.0799  1.1003
 3798TIP3    H232810   4.267   4.352  11.173  0.1203  0.6769 -0.3530
 3799TIP3   OH232811   3.290   4.197   5.528 -0.3734  0.1528 -0.3452
 3799TIP3    H132812   3.348   4.140   5.578 -0.4138  0.8039  0.4553
 3799TIP3    H232813   3.208   4.197   5.576 -0.2687  1.1461 -0.1487
 3800TIP3   OH232814   5.969   4.424  13.958 -0.2194  0.2431 -0.3374
 3800TIP3    H132815   5.980   4.330  13.943 -0.1701  0.4969 -1.9227
 3800TIP3    H232816   5.875   4.439  13.954 -0.3900 -0.0183  1.7840
 3801TIP3   OH232817   4.977   6.369   4.747 -0.0630  0.5961 -0.5327
 3801TIP3    H132818   4.900   6.414   4.714 -1.9380 -0.5132  2.2196
 3801TIP3    H232819   4.996   6.410   4.831  2.2222  0.7021 -1.0596
 3802TIP3   OH232820   4.561   2.514   3.790  0.5891 -0.3532 -0.0154
 3802TIP3    H132821   4.535   2.605   3.797  0.2747 -0.5593  1.8311
 3802TIP3    H232822   4.653   2.516   3.765  0.5313  0.4549 -0.1501
 3803TIP3   OH232823   3.069   4.271  12.992  0.3294  0.0989 -0.3941
 3803TIP3    H132824   2.982   4.270  12.951  0.4134  0.8951 -0.6002
 3803TIP3    H232825   3.102   4.182  12.979 -0.1930 -0.0318 -0.8753
 3804TIP3   OH232826   4.241   5.024   4.371 -0.2690  0.3910  0.0671
 3804TIP3    H132827   4.219   5.000   4.461 -1.9385 -1.8945 -0.9113
 3804TIP3    H232828   4.336   5.014   4.366 -0.2862 -0.5481  1.2732
 3805TIP3   OH232829   0.727   1.712  11.935  0.4364 -0.0749  0.6467
 3805TIP3    H132830   0.737   1.749  11.847  1.5796  0.8851  1.1579
 3805TIP3    H232831   0.716   1.618  11.920 -1.9955  0.3621 -0.6498
 3806TIP3   OH232832   3.240   0.879   0.506  0.1085 -0.4578  0.2265
 3806TIP3    H132833   3.169   0.939   0.530  2.4936  3.0725 -1.1512
 3806TIP3    H232834   3.255   0.828   0.586 -1.8026  0.9317  1.5384
 3807TIP3   OH232835   4.746   3.366  15.275  0.0886 -0.2994 -0.0634
 3807TIP3    H132836   4.695   3.307  15.330  0.3867 -0.3105  0.2029
 3807TIP3    H232837   4.819   3.312  15.244 -0.3064 -0.4112 -0.8052
 3808TIP3   OH232838   3.101   0.218   5.347 -0.4800 -0.7590 -0.3009
 3808TIP3    H132839   3.190   0.225   5.311 -0.7374 -0.9231 -0.9641
 3808TIP3    H232840   3.103   0.274   5.425  0.1076 -0.4783 -0.5111
 3809TIP3   OH232841   4.229   2.766  17.221 -0.1326 -0.1143  0.0655
 3809TIP3    H132842   4.295   2.697  17.220 -0.5792 -0.5587  0.8897
 3809TIP3    H232843   4.197   2.767  17.311  0.7719  2.0318  0.3813
 3810TIP3   OH232844   5.977   0.248  15.347 -0.0813 -0.5736  0.0357
 3810TIP3    H132845   5.996   0.326  15.398 -1.1609 -0.5094  0.3424
 3810TIP3    H232846   5.993   0.274  15.256 -0.7960  0.1128  0.1009
 3811TIP3   OH232847   5.640   0.578   1.389  0.4090 -0.3656  0.4077
 3811TIP3    H132848   5.549   0.588   1.360  0.3458 -1.7192  0.0894
 3811TIP3    H232849   5.650   0.484   1.400  1.5572 -0.1517  1.1737
 3812TIP3   OH232850   4.259   3.115   4.691 -0.6495  0.8407 -0.2917
 3812TIP3    H132851   4.214   3.147   4.770  0.4617  2.5716 -0.3194
 3812TIP3    H232852   4.349   3.099   4.720 -0.2407  1.4733 -1.1767
 3813TIP3   OH232853   5.277   6.519  14.384  0.1458  0.2480  0.1070
 3813TIP3    H132854   5.289   6.590  14.320 -1.7360 -1.3148 -2.0765
 3813TIP3    H232855   5.327   6.446  14.348 -0.6019 -0.5285  0.6260
 3814TIP3   OH232856   1.098   6.384   4.318 -0.0971  0.3308 -0.4464
 3814TIP3    H132857   1.177   6.418   4.276  0.2208 -1.6794 -1.5406
 3814TIP3    H232858   1.131   6.323   4.385 -0.7006 -0.1818 -0.6149
 3815TIP3   OH232859   1.641   6.188   6.105  0.2868  0.1924  0.4636
 3815TIP3    H132860   1.578   6.234   6.048  0.3491 -0.5247 -0.1930
 3815TIP3    H232861   1.607   6.099   6.110 -0.3750  0.5479  2.5454
 3816TIP3   OH232862   0.572   4.476   2.146 -0.0794 -0.0277 -0.1617
 3816TIP3    H132863   0.519   4.398   2.162  1.5648 -1.3404 -0.8770
 3816TIP3    H232864   0.548   4.537   2.216 -1.8362 -0.9277  0.0531
 3817TIP3   OH232865   6.330   3.299  12.991 -0.3083 -0.7697  0.3262
 3817TIP3    H132866   6.247   3.306  13.037  0.1802 -1.3475  1.3006
 3817TIP3    H232867   6.390   3.260  13.055  1.2360  1.4902  0.3207
 3818TIP3   OH232868   3.571   1.315  11.382  0.0372  0.1061  0.0508
 3818TIP3    H132869   3.567   1.301  11.288 -1.8995 -0.5958  0.2031
 3818TIP3    H232870   3.537   1.403  11.395 -0.0625  0.0582  0.1207
 3819TIP3   OH232871   0.497   6.467   5.819  0.1329 -0.2856  0.1274
 3819TIP3    H132872   0.502   6.557   5.789  0.2324  0.3236  1.8676
 3819TIP3    H232873   0.410   6.436   5.793 -0.1135  0.5062  0.0176
 3820TIP3   OH232874   2.881   1.409   2.719 -0.5119  0.3119  0.1267
 3820TIP3    H132875   2.974   1.389   2.730 -0.4597  0.0251 -0.7286
 3820TIP3    H232876   2.836   1.327   2.742 -0.5237  0.3159  0.1172
 3821TIP3   OH232877   6.473   6.646   2.381 -0.4062 -0.4469  0.3405
 3821TIP3    H132878   6.514   6.661   2.466 -0.4422 -0.9555  0.4466
 3821TIP3    H232879   6.525   6.575   2.341 -0.1373  0.0577 -0.2295
 3822TIP3   OH232880   4.861   4.846  14.972  0.3389  0.4891 -0.0742
 3822TIP3    H132881   4.774   4.875  14.943  0.1407  0.5003  0.5174
 3822TIP3    H232882   4.889   4.784  14.905 -0.6337 -0.4055  0.3259
 3823TIP3   OH232883   2.541   6.372   4.241 -0.4017 -0.3169  0.1207
 3823TIP3    H132884   2.479   6.443   4.255 -0.4217 -0.6089  1.5392
 3823TIP3    H232885   2.580   6.355   4.327  2.6085  0.7186 -0.9729
 3824TIP3   OH232886   6.503   3.978  10.927  0.0043 -0.0135  0.3264
 3824TIP3    H132887   6.537   4.023  11.005 -0.4556  0.9202 -0.0028
 3824TIP3    H232888   6.494   3.886  10.954  0.4254  0.1902  1.1826
 3825TIP3   OH232889   3.642   1.024  16.163 -0.2297 -0.3456 -0.5881
 3825TIP3    H132890   3.553   1.018  16.197 -0.1772 -0.7159 -0.5218
 3825TIP3    H232891   3.630   1.044  16.070 -0.4276 -2.5342 -1.0665
 3826TIP3   OH232892   6.178   4.685  14.720 -0.0914 -0.3190  0.4270
 3826TIP3    H132893   6.109   4.635  14.676  0.8056 -2.1617  1.0307
 3826TIP3    H232894   6.243   4.619  14.745  3.0560  1.6219 -2.1917
 3827TIP3   OH232895   4.382   5.344   1.730 -0.7422  0.3305  0.3379
 3827TIP3    H132896   4.350   5.382   1.812  1.0312  1.5485  0.5149
 3827TIP3    H232897   4.415   5.419   1.680 -1.2460 -0.4723 -1.2438
 3828TIP3   OH232898   0.876   3.267  17.045  0.0167  0.3924  0.1278
 3828TIP3    H132899   0.963   3.228  17.049  1.1033  2.6700 -0.1444
 3828TIP3    H232900   0.832   3.220  16.975  1.3176 -0.2374 -0.2862
 3829TIP3   OH232901   2.948   3.475  14.167 -0.1472  0.1005 -0.3727
 3829TIP3    H132902   2.944   3.550  14.227 -2.5323 -1.4008  1.4221
 3829TIP3    H232903   2.986   3.405  14.219  0.0134 -0.5724 -1.3882
 3830TIP3   OH232904   5.842   3.581   2.229  0.1122  0.0569 -0.4650
 3830TIP3    H132905   5.856   3.673   2.208  1.9974 -0.4164 -1.3844
 3830TIP3    H232906   5.805   3.544   2.150  0.0058 -0.1177 -0.3331
 3831TIP3   OH232907   3.487   0.128   0.537  0.0633 -0.5869 -0.2644
 3831TIP3    H132908   3.419   0.120   0.604 -0.1230  1.1798 -0.2142
 3831TIP3    H232909   3.567   0.099   0.581 -0.1132  0.2569  0.6450
 3832TIP3   OH232910   0.540   0.023   2.984  0.0441 -0.1599 -0.0636
 3832TIP3    H132911   0.605   0.048   2.919  0.0579  1.1617  0.4476
 3832TIP3    H232912   0.466  -0.011   2.932  0.9691 -1.3039 -0.6506
 3833TIP3   OH232913   5.152   0.589  16.589 -0.1005 -0.0293 -0.5197
 3833TIP3    H132914   5.212   0.517  16.570  0.3899 -0.1494  1.3135
 3833TIP3    H232915   5.066   0.547  16.598 -0.0347 -0.2064 -0.7229
 3834TIP3   OH232916   2.084   1.200   3.945 -0.3218  0.2865  0.3113
 3834TIP3    H132917   2.071   1.291   3.920  0.1174  0.6525  1.3554
 3834TIP3    H232918   2.078   1.200   4.041  0.6905 -0.6035  0.3907
 3835TIP3   OH232919   3.956   6.697  10.841  0.6581 -0.0757  0.0074
 3835TIP3    H132920   3.974   6.661  10.754 -0.9136 -1.7394  0.3476
 3835TIP3    H232921   3.954   6.621  10.898  0.1802  0.8670  1.2512
 3836TIP3   OH232922   1.670   4.954   5.988 -0.2005 -0.0522  0.1560
 3836TIP3    H132923   1.747   4.984   6.036  0.8932 -1.5614 -0.6047
 3836TIP3    H232924   1.646   5.028   5.932  1.1714  0.1803 -0.1489
 3837TIP3   OH232925   4.875   0.360   4.594 -0.3437 -0.6671  0.4537
 3837TIP3    H132926   4.893   0.269   4.569  1.3922  0.2370 -1.6715
 3837TIP3    H232927   4.920   0.370   4.679  2.3381 -0.8715 -0.8744
 3838TIP3   OH232928   3.184   4.956  13.081 -0.3879  0.2979  0.5954
 3838TIP3    H132929   3.174   4.910  12.998  0.3374 -0.4176  0.8937
 3838TIP3    H232930   3.249   5.024  13.063  1.0938 -0.9781  1.0076
 3839TIP3   OH232931   1.710   5.890  11.214 -0.2433 -0.0071  0.0234
 3839TIP3    H132932   1.635   5.896  11.274 -0.7752  0.6289 -0.6950
 3839TIP3    H232933   1.754   5.809  11.240 -1.8576 -1.0336 -0.3258
 3840TIP3   OH232934   4.972   2.893  15.398 -0.1685 -0.2116 -1.0272
 3840TIP3    H132935   5.002   2.853  15.316  1.8889 -1.2535  0.2200
 3840TIP3    H232936   5.043   2.879  15.460 -1.4858  1.0307  0.8274
 3841TIP3   OH232937   4.102   1.921  11.355  0.0175 -0.4628  0.2772
 3841TIP3    H132938   4.195   1.931  11.337 -0.3045  2.6609  0.0511
 3841TIP3    H232939   4.096   1.840  11.405  3.0887  0.2367  1.9241
 3842TIP3   OH232940   0.668   3.351   5.774  0.6805  0.3414  0.0262
 3842TIP3    H132941   0.718   3.402   5.838  0.1497 -1.3899  1.8234
 3842TIP3    H232942   0.611   3.295   5.825 -1.7191  0.8151 -1.9853
 3843TIP3   OH232943   5.295   5.428   3.165 -0.0029 -0.1836 -0.2192
 3843TIP3    H132944   5.386   5.410   3.189 -0.2457  0.0496  0.9247
 3843TIP3    H232945   5.250   5.442   3.249 -0.8644  0.7929 -0.8249
 3844TIP3   OH232946   2.579   2.950   6.006 -0.4150 -0.0562  0.3027
 3844TIP3    H132947   2.652   3.011   5.996 -0.7257  0.2285 -0.2315
 3844TIP3    H232948   2.619   2.864   5.999  0.0994  0.0673  1.5353
 3845TIP3   OH232949   0.147   2.761   5.090  0.6512  0.1830  0.2605
 3845TIP3    H132950   0.188   2.676   5.110 -0.0198  0.0653  1.1908
 3845TIP3    H232951   0.054   2.742   5.085  0.3562  1.0967  1.8732
 3846TIP3   OH232952   4.001   5.584  14.727  0.0223  0.1163  0.4607
 3846TIP3    H132953   3.930   5.528  14.697 -1.3642  1.3762  1.2680
 3846TIP3    H232954   4.013   5.648  14.656 -1.1406  1.2136  1.2380
 3847TIP3   OH232955   3.209   0.544  13.278  0.1384  0.2024  0.2914
 3847TIP3    H132956   3.158   0.466  13.301 -0.0042  0.0197 -0.6343
 3847TIP3    H232957   3.300   0.514  13.279  0.2205  0.4796  1.7508
 3848TIP3   OH232958   0.543   4.202   0.476  0.4398  0.7832 -0.3843
 3848TIP3    H132959   0.597   4.192   0.398  0.5688 -0.8708 -0.1166
 3848TIP3    H232960   0.479   4.269   0.453 -0.8264 -1.1183 -2.6639
 3849TIP3   OH232961   3.471   1.659   3.491 -0.3844 -0.6288  0.0258
 3849TIP3    H132962   3.469   1.574   3.447 -0.0410 -0.2790 -0.6811
 3849TIP3    H232963   3.471   1.723   3.419 -4.4350  0.0867  0.5651
 3850TIP3   OH232964   6.128   5.575   1.413 -0.5593  0.1192  0.2847
 3850TIP3    H132965   6.092   5.603   1.498 -1.9489  0.7728 -0.5084
 3850TIP3    H232966   6.109   5.481   1.409 -2.0889  0.4319 -0.0674
 3851TIP3   OH232967   3.065   4.022  14.980 -0.2119 -0.7023  0.1727
 3851TIP3    H132968   3.025   4.030  14.894 -1.2681  1.8234  0.8333
 3851TIP3    H232969   3.114   4.104  14.991  0.7990 -1.4708  1.5207
 3852TIP3   OH232970   3.296   4.672   0.031  1.0481  0.1773  0.4552
 3852TIP3    H132971   3.378   4.679  -0.018  0.6453 -2.6755 -0.7050
 3852TIP3    H232972   3.319   4.618   0.108 -0.0895 -2.2379 -0.8339
 3853TIP3   OH232973   0.672   4.706   1.405  0.2691 -0.5606  0.3209
 3853TIP3    H132974   0.689   4.613   1.417 -0.3789 -0.6078  0.8934
 3853TIP3    H232975   0.662   4.718   1.311  0.3157 -1.0708  0.2520
 3854TIP3   OH232976   6.280   5.342   1.210  0.0762  0.1951  0.1988
 3854TIP3    H132977   6.348   5.334   1.278 -0.2949  1.0501  0.6763
 3854TIP3    H232978   6.198   5.344   1.258 -0.1577  1.3710 -0.2387
 3855TIP3   OH232979   0.420   4.014   5.798 -0.3816  0.1244  0.6023
 3855TIP3    H132980   0.380   4.046   5.878 -0.2133  0.6002  0.5029
 3855TIP3    H232981   0.378   3.930   5.780 -2.0374  1.0648 -0.0371
 3856TIP3   OH232982   4.665   2.178  11.511 -0.0303 -0.0743  0.3727
 3856TIP3    H132983   4.630   2.250  11.458 -0.6356 -1.8625 -1.7491
 3856TIP3    H232984   4.725   2.133  11.451 -1.7169 -2.9315  0.7587
 3857TIP3   OH232985   5.857   3.031  12.321  0.2190 -0.5915  0.0680
 3857TIP3    H132986   5.933   3.039  12.263  0.3018 -0.9115  0.1326
 3857TIP3    H232987   5.891   2.989  12.400 -0.1208 -1.1664 -0.0882
 3858TIP3   OH232988   4.772   3.148   6.091  0.5253 -0.1953  0.1121
 3858TIP3    H132989   4.810   3.217   6.036 -0.0778  0.7172  0.8341
 3858TIP3    H232990   4.730   3.195   6.163 -1.9010 -1.1796 -0.6049
 3859TIP3   OH232991   0.875   5.675   4.342 -0.5113 -1.1660 -0.0586
 3859TIP3    H132992   0.903   5.678   4.433 -0.0535  0.5619 -0.2341
 3859TIP3    H232993   0.793   5.724   4.340  0.6862  0.8850 -0.9549
 3860TIP3   OH232994   2.992   0.434  14.142 -0.3272  0.1127  0.1910
 3860TIP3    H132995   2.933   0.471  14.077 -0.5929 -0.4810  0.1024
 3860TIP3    H232996   2.954   0.459  14.226 -1.7209 -1.8449  0.1747
 3861TIP3   OH232997   4.648   5.540  13.685 -0.3940  0.6114 -0.4080
 3861TIP3    H132998   4.554   5.527  13.680 -0.1886 -1.2841  0.2699
 3861TIP3    H232999   4.685   5.475  13.625  0.5223  0.5787  0.1769
 3862TIP3   OH233000   2.973   3.698  14.867  0.0003 -0.0590 -0.3593
 3862TIP3    H133001   2.977   3.769  14.931 -0.0983  0.0087 -0.4265
 3862TIP3    H233002   2.893   3.650  14.889 -0.2372  0.1906 -0.6655
 3863TIP3   OH233003   5.303   0.399  14.285 -0.7061 -0.1342  0.1093
 3863TIP3    H133004   5.294   0.324  14.344  0.2358 -0.6226 -0.3510
 3863TIP3    H233005   5.234   0.460  14.312 -2.0632 -1.5661 -0.1266
 3864TIP3   OH233006   5.100   1.967  11.009 -0.1198 -0.5656  0.1019
 3864TIP3    H133007   5.182   1.991  11.052 -0.5710 -3.1892  2.5305
 3864TIP3    H233008   5.127   1.912  10.935  0.3537 -1.3247  0.8262
 3865TIP3   OH233009   4.954   6.377  14.785  0.1459  0.6037  0.3286
 3865TIP3    H133010   5.042   6.399  14.817  0.4477 -0.9118  0.5656
 3865TIP3    H233011   4.964   6.371  14.690 -0.1173  2.2612  0.1846
 3866TIP3   OH233012   5.316   6.489   2.552  0.1778  0.0391 -0.2257
 3866TIP3    H133013   5.381   6.428   2.586 -2.2597 -1.5104  1.7963
 3866TIP3    H233014   5.245   6.434   2.521 -1.5819  1.7802  0.5995
 3867TIP3   OH233015   5.371   4.763   4.787 -0.0584 -0.3016  0.2955
 3867TIP3    H133016   5.465   4.761   4.804 -0.0093  0.4055  0.1120
 3867TIP3    H233017   5.363   4.802   4.700 -0.3526 -3.0676 -0.9681
 3868TIP3   OH233018   6.067   1.607  13.224 -0.2485 -0.3180 -0.3454
 3868TIP3    H133019   6.117   1.596  13.143 -0.7558 -0.5979 -0.6282
 3868TIP3    H233020   6.046   1.517  13.252 -0.6752 -0.2008 -0.2864
 3869TIP3   OH233021   3.962   1.487   2.565  0.5412  0.1217  0.5456
 3869TIP3    H133022   3.950   1.469   2.658  0.7312  0.8981  0.7226
 3869TIP3    H233023   4.053   1.517   2.558  0.6953 -0.4574  0.0278
 3870TIP3   OH233024   3.921   1.907  16.230 -0.3369  0.0017  0.1768
 3870TIP3    H133025   3.837   1.952  16.234 -0.3963 -0.0773 -0.1733
 3870TIP3    H233026   3.973   1.947  16.299 -0.9136 -0.4588  0.8899
 3871TIP3   OH233027   3.227   2.974  13.639 -0.4989 -0.1491  0.2661
 3871TIP3    H133028   3.296   3.038  13.622  0.1637 -0.7516  0.6182
 3871TIP3    H233029   3.223   2.922  13.558  0.3072 -0.8731  0.6738
 3872TIP3   OH233030   2.647   2.752  14.520  0.1200 -0.1129  0.0370
 3872TIP3    H133031   2.618   2.810  14.449 -0.6884 -0.6203 -0.0505
 3872TIP3    H233032   2.650   2.665  14.480  3.1515  0.1351 -0.3367
 3873TIP3   OH233033   2.771   1.396   4.447 -0.1208 -1.2245  0.1782
 3873TIP3    H133034   2.813   1.365   4.366 -0.8794  1.1377 -1.1718
 3873TIP3    H233035   2.844   1.411   4.507  0.5619 -1.7430 -0.5068
 3874TIP3   OH233036   2.548   0.077   2.411 -0.2941 -0.7356 -0.3744
 3874TIP3    H133037   2.549   0.059   2.505  1.7921 -0.4193 -0.3101
 3874TIP3    H233038   2.546   0.173   2.406 -2.3544 -0.7700 -0.6838
 3875TIP3   OH233039   5.956   2.526  17.189  0.0721  0.8734  0.5453
 3875TIP3    H133040   5.885   2.552  17.131  0.4374  0.3636 -0.1363
 3875TIP3    H233041   6.023   2.594  17.177  1.1166 -0.4440 -1.3928
 3876TIP3   OH233042   0.092   1.977  12.564 -0.3789  0.0412 -0.6809
 3876TIP3    H133043   0.024   1.912  12.580  0.8534 -1.3452 -0.9430
 3876TIP3    H233044   0.103   1.979  12.469  2.2987 -2.2580 -0.4611
 3877TIP3   OH233045   5.334   1.040  16.704 -0.0756 -0.3542 -0.0861
 3877TIP3    H133046   5.309   1.083  16.623 -1.4060 -0.2725  0.3575
 3877TIP3    H233047   5.260   1.054  16.763  1.2983  0.4706  1.4961
 3878TIP3   OH233048   2.578   2.125   0.981  0.1324 -0.5639  0.3382
 3878TIP3    H133049   2.538   2.210   0.959  2.4542  0.7377  0.9198
 3878TIP3    H233050   2.570   2.119   1.076  0.4358 -0.7416  0.3517
 3879TIP3   OH233051   6.205   3.591  15.268 -0.1151 -0.1382  0.1795
 3879TIP3    H133052   6.138   3.523  15.275  0.1236 -0.4670 -0.6045
 3879TIP3    H233053   6.274   3.565  15.329  0.9366 -1.7390 -1.6443
 3880TIP3   OH233054   3.623   3.792   0.990 -0.2200  0.0682  0.2023
 3880TIP3    H133055   3.658   3.829   0.908  2.3142  3.0443  2.5053
 3880TIP3    H233056   3.685   3.723   1.013 -0.0522  0.2857  0.4059
 3881TIP3   OH233057   6.637   1.686  13.601 -0.8122 -0.3732  0.0235
 3881TIP3    H133058   6.723   1.726  13.591 -0.7075 -0.1784  1.4751
 3881TIP3    H233059   6.607   1.668  13.512  0.3026  0.4576 -0.5239
 3882TIP3   OH233060   1.181   3.165   3.181  0.0598 -0.6608  0.2194
 3882TIP3    H133061   1.189   3.261   3.181  1.7018 -0.7774 -0.1193
 3882TIP3    H233062   1.201   3.141   3.272  0.5113 -0.7485  0.0949
 3883TIP3   OH233063   2.415   1.586   3.599 -0.3190  0.3865 -0.4220
 3883TIP3    H133064   2.469   1.507   3.605 -0.0163  0.5662 -0.7384
 3883TIP3    H233065   2.436   1.636   3.678  0.2303  0.6121 -0.7058
 3884TIP3   OH233066   0.347   1.023   1.994 -0.7397 -0.4911 -0.5428
 3884TIP3    H133067   0.396   1.102   2.017 -0.4277 -0.9462  0.3399
 3884TIP3    H233068   0.318   1.039   1.903 -1.8974  1.2574  0.0930
 3885TIP3   OH233069   0.713   0.895   6.034 -0.5099 -0.4926  0.0846
 3885TIP3    H133070   0.757   0.883   6.118  0.3938  0.6330 -0.2043
 3885TIP3    H233071   0.649   0.824   6.029  1.0477 -1.9632  0.6712
 3886TIP3   OH233072   0.060   4.215  12.779  0.1762 -0.3041 -0.5941
 3886TIP3    H133073   0.093   4.297  12.743  0.1720 -0.7591 -1.6625
 3886TIP3    H233074  -0.026   4.238  12.815  1.8900  1.0363  2.8279
 3887TIP3   OH233075   6.515   0.778   3.949  0.2428  0.2698  0.1478
 3887TIP3    H133076   6.524   0.683   3.958  0.6813  0.3501  0.5477
 3887TIP3    H233077   6.451   0.803   4.016 -0.1229  0.2158 -0.1767
 3888TIP3   OH233078   0.454   6.483  12.685 -0.3985 -0.6800  0.2103
 3888TIP3    H133079   0.386   6.514  12.625  0.9457 -0.7515 -1.3735
 3888TIP3    H233080   0.521   6.551  12.682 -0.3738 -0.6126  1.7601
 3889TIP3   OH233081   3.216   4.830  16.956  0.4728 -0.3567  0.3570
 3889TIP3    H133082   3.270   4.909  16.957 -2.6289  1.9223 -0.7482
 3889TIP3    H233083   3.179   4.825  17.044  0.5038 -0.4302  0.3654
 3890TIP3   OH233084   0.753   0.837   1.946  0.0774  0.0242  0.1978
 3890TIP3    H133085   0.812   0.777   1.992 -0.3792 -1.6250 -1.3094
 3890TIP3    H233086   0.665   0.810   1.973 -0.2099 -1.1751 -1.8683
 3891TIP3   OH233087   6.027   2.546  12.252  0.3813  0.1063 -0.0151
 3891TIP3    H133088   6.013   2.534  12.158  0.8554 -0.0981 -0.0592
 3891TIP3    H233089   5.944   2.583  12.284  0.4318  0.7384 -0.6099
 3892TIP3   OH233090   5.393   2.460   4.076 -0.3805 -0.2081  0.6072
 3892TIP3    H133091   5.466   2.522   4.077 -0.1419 -0.4601 -0.3919
 3892TIP3    H233092   5.431   2.379   4.041 -0.6511 -0.9723  2.0627
 3893TIP3   OH233093   2.106   6.425   6.142  0.4093 -0.0656 -0.5392
 3893TIP3    H133094   2.016   6.415   6.174  0.8789  1.1995  1.2927
 3893TIP3    H233095   2.109   6.515   6.110  1.0871 -0.0167 -0.3422
 3894TIP3   OH233096   6.217   5.236   2.944 -0.0750  0.1747  0.4276
 3894TIP3    H133097   6.278   5.295   2.900 -0.7846  0.3250 -0.3488
 3894TIP3    H233098   6.194   5.171   2.878  0.4509 -0.7995  1.1833
 3895TIP3   OH233099   3.819   5.392   3.514  0.5400  0.2965  0.8607
 3895TIP3    H133100   3.828   5.422   3.605  1.4058  1.2037  0.4814
 3895TIP3    H233101   3.878   5.447   3.465  0.7771 -0.8337 -0.1353
 3896TIP3   OH233102   2.707   5.375  14.055 -0.0969  0.4574  0.2601
 3896TIP3    H133103   2.644   5.328  14.110 -1.2648  0.4534 -1.0753
 3896TIP3    H233104   2.718   5.320  13.978  0.7080  1.0002 -0.0248
 3897TIP3   OH233105   1.042   2.368   5.041 -0.0462 -0.3806 -0.3147
 3897TIP3    H133106   1.009   2.289   4.999 -0.4863  0.0263 -0.7331
 3897TIP3    H233107   1.080   2.337   5.123 -0.4217 -0.9993 -0.3729
 3898TIP3   OH233108   5.453   4.018  16.294 -0.0200 -0.4295  0.0722
 3898TIP3    H133109   5.383   4.031  16.357  0.0881  1.7745 -0.2012
 3898TIP3    H233110   5.408   3.993  16.213 -0.4126  0.0326  0.1469
 3899TIP3   OH233111   5.764   5.393  15.048 -0.3826 -0.6243  0.3321
 3899TIP3    H133112   5.720   5.379  14.964  0.2747 -0.8643  0.0250
 3899TIP3    H233113   5.704   5.448  15.098  0.0773  1.1090 -1.0050
 3900TIP3   OH233114   1.113   5.523   3.041 -0.4815 -0.1774 -0.7013
 3900TIP3    H133115   1.116   5.441   2.991 -4.1457 -0.6505 -0.3156
 3900TIP3    H233116   1.120   5.592   2.975  0.2782 -0.7967 -1.2774
 3901TIP3   OH233117   2.359   6.205   1.700  0.4242  0.7201  0.2409
 3901TIP3    H133118   2.375   6.111   1.707  3.5681  1.1372 -0.6727
 3901TIP3    H233119   2.405   6.232   1.621 -1.6413  2.8085 -0.3204
 3902TIP3   OH233120   2.917   6.264   4.570  0.4551  0.2930  0.0288
 3902TIP3    H133121   2.972   6.341   4.585  1.4252 -0.1195 -1.3545
 3902TIP3    H233122   2.969   6.191   4.604 -0.1000  0.1318  0.5450
 3903TIP3   OH233123   4.560   0.148   5.628  0.4000  0.1486 -0.5829
 3903TIP3    H133124   4.648   0.160   5.663  0.7327  0.3187 -1.4778
 3903TIP3    H233125   4.528   0.069   5.672 -0.9941  2.9462  3.7112
 3904TIP3   OH233126   0.483   0.814   0.458 -0.6015 -0.0992 -0.0329
 3904TIP3    H133127   0.485   0.740   0.519  2.1725  0.2762  0.3727
 3904TIP3    H233128   0.446   0.778   0.377 -2.8161 -0.9849  1.3294
 3905TIP3   OH233129   1.941   1.197   4.915  0.0824  0.1766  0.2597
 3905TIP3    H133130   2.006   1.258   4.882 -0.5919  1.1437  0.6861
 3905TIP3    H233131   1.986   1.148   4.983  0.4313  0.6902  0.4015
 3906TIP3   OH233132   5.221   3.688  14.268  0.4722 -0.1189 -0.1671
 3906TIP3    H133133   5.299   3.668  14.215 -0.0068  0.2623 -1.0128
 3906TIP3    H233134   5.237   3.642  14.351  1.9112  0.5192 -0.0815
 3907TIP3   OH233135   4.031   0.013  15.659 -0.3516 -0.5144  0.1796
 3907TIP3    H133136   4.091   0.087  15.664 -0.3385 -0.4921 -0.2401
 3907TIP3    H233137   4.004  -0.003  15.749  1.0011 -1.1103  0.4963
 3908TIP3   OH233138   6.079   4.679   1.972 -0.0921  0.3156  0.1098
 3908TIP3    H133139   6.125   4.759   1.946  0.9660 -0.4623 -0.4360
 3908TIP3    H233140   6.130   4.645   2.046  0.4815 -0.8010 -0.7927
 3909TIP3   OH233141   0.318   1.253   4.643 -0.2646  0.4126 -0.1653
 3909TIP3    H133142   0.244   1.255   4.703  0.3415  2.2841  0.5886
 3909TIP3    H233143   0.393   1.229   4.698  0.1049  1.0627 -0.3689
 3910TIP3   OH233144   3.726   5.827  16.532 -0.2626 -0.0314  0.4333
 3910TIP3    H133145   3.812   5.860  16.560 -0.2966 -0.4703  1.0796
 3910TIP3    H233146   3.723   5.738  16.566 -0.2260 -0.6651 -1.1785
 3911TIP3   OH233147   4.475   2.653   3.111  0.5002 -0.6101  0.1289
 3911TIP3    H133148   4.412   2.678   3.178 -1.0894 -1.9203 -0.8233
 3911TIP3    H233149   4.516   2.573   3.145  1.5214  0.1433  0.6688
 3912TIP3   OH233150   1.631   0.536  12.231 -0.6263 -0.6524  0.2155
 3912TIP3    H133151   1.574   0.565  12.159 -0.1672 -1.1073 -0.3391
 3912TIP3    H233152   1.590   0.455  12.261 -0.4335 -0.8268  0.0077
 3913TIP3   OH233153   2.367   3.022  17.013  0.0357  0.0261  0.3520
 3913TIP3    H133154   2.366   3.089  17.080  1.1568  0.3286  0.0931
 3913TIP3    H233155   2.387   3.069  16.932 -1.4525 -0.3114 -0.2160
 3914TIP3   OH233156   2.598   1.515   5.274 -0.1145  0.1529  0.1114
 3914TIP3    H133157   2.540   1.452   5.318 -1.2739  1.3426  0.2942
 3914TIP3    H233158   2.633   1.467   5.199 -2.9291  0.0406 -1.1926
 3915TIP3   OH233159   4.952   3.386   5.295 -0.0959 -0.0972 -0.1449
 3915TIP3    H133160   4.963   3.297   5.261  0.9649  0.1029 -0.3294
 3915TIP3    H233161   4.857   3.399   5.297 -0.2707 -1.3577  0.2089
 3916TIP3   OH233162   2.374   0.316  12.236 -0.5749 -0.3283  0.2342
 3916TIP3    H133163   2.368   0.396  12.288 -2.4711 -1.0350  1.1375
 3916TIP3    H233164   2.287   0.276  12.243 -0.5179 -1.0039 -2.5773
 3917TIP3   OH233165   5.518   1.285   0.818  0.1259  0.2057  0.2395
 3917TIP3    H133166   5.567   1.269   0.738  0.6019  3.7824 -0.2695
 3917TIP3    H233167   5.432   1.245   0.803 -0.1831  1.7839 -2.5267
 3918TIP3   OH233168   5.616   0.475  13.104  0.5732 -0.0805  0.6521
 3918TIP3    H133169   5.576   0.561  13.121 -0.2645 -0.0425 -1.4019
 3918TIP3    H233170   5.551   0.428  13.052  1.7528 -1.3268  0.2830
 3919TIP3   OH233171   5.019   4.191   1.390  0.2144  0.1579  0.0432
 3919TIP3    H133172   5.049   4.282   1.392 -0.0502  0.2849 -1.2661
 3919TIP3    H233173   4.932   4.195   1.351  0.2548 -0.6665 -0.1405
 3920TIP3   OH233174   4.242   3.384  15.532 -0.8893 -0.3331 -0.1068
 3920TIP3    H133175   4.191   3.437  15.470  1.4671  1.8553 -0.2585
 3920TIP3    H233176   4.187   3.378  15.610 -2.3532 -0.0115 -1.0919
 3921TIP3   OH233177   2.625   5.212  16.665 -0.6264  0.3379 -0.1457
 3921TIP3    H133178   2.678   5.188  16.589 -0.0169  2.6676 -0.5249
 3921TIP3    H233179   2.649   5.149  16.732  0.3792 -0.4967 -1.2649
 3922TIP3   OH233180   1.372   0.057  12.385  0.3447 -0.5964 -0.2719
 3922TIP3    H133181   1.314   0.022  12.453  0.0763  0.3270 -0.0196
 3922TIP3    H233182   1.426  -0.018  12.358  0.6474 -0.9051  1.1507
 3923TIP3   OH233183   5.118   1.679   0.059 -0.1693 -0.7776  0.4399
 3923TIP3    H133184   5.025   1.671   0.081 -0.0251 -0.5360  1.1419
 3923TIP3    H233185   5.155   1.731   0.130  0.4134 -0.4666 -0.0837
 3924TIP3   OH233186   3.142   0.025  12.561 -0.3346 -0.8900  0.0125
 3924TIP3    H133187   3.232   0.051  12.582 -1.1352 -0.4360  3.1381
 3924TIP3    H233188   3.142  -0.070  12.572  0.3766 -1.2494 -2.6566
 3925TIP3   OH233189   5.816   3.664   4.826  0.1947  0.2532 -0.1753
 3925TIP3    H133190   5.755   3.733   4.852  0.6710  1.2572 -1.6343
 3925TIP3    H233191   5.793   3.645   4.735  0.3778 -1.1948  0.0699
 3926TIP3   OH233192   2.737   5.064  15.557  0.2638 -0.3798 -0.0287
 3926TIP3    H133193   2.642   5.055  15.550  0.1185  1.5444 -0.6688
 3926TIP3    H233194   2.768   5.070  15.466  0.4565  4.0050  0.2309
 3927TIP3   OH233195   0.859   4.709   4.742 -0.0070 -0.2574 -0.9832
 3927TIP3    H133196   0.794   4.683   4.807 -0.0864  2.1042 -0.0626
 3927TIP3    H233197   0.931   4.647   4.754 -0.0947  0.0477  1.2652
 3928TIP3   OH233198   2.018   5.702   4.248  0.5021  0.7843 -0.2732
 3928TIP3    H133199   2.017   5.756   4.327  2.3346  0.4536  0.0026
 3928TIP3    H233200   1.931   5.663   4.245  0.0617  1.6238  1.0083
 3929TIP3   OH233201   5.575   3.382  15.980 -0.7792  1.3460 -1.0004
 3929TIP3    H133202   5.503   3.321  15.967  0.1350 -0.5618  2.3515
 3929TIP3    H233203   5.534   3.458  16.023 -0.6239 -0.3105  2.1716
 3930TIP3   OH233204   2.982   1.080  11.497  0.0047 -0.0571  0.0772
 3930TIP3    H133205   2.954   1.017  11.563 -0.9535  0.3328  0.0537
 3930TIP3    H233206   3.007   1.158  11.548  0.1274 -0.0661  0.0323
 3931TIP3   OH233207   2.710   4.812   4.714 -0.4434 -0.2640 -0.0930
 3931TIP3    H133208   2.667   4.784   4.795 -0.8387 -0.4168 -0.3537
 3931TIP3    H233209   2.659   4.771   4.644 -1.3101  1.4446 -0.5037
 3932TIP3   OH233210   0.452   0.757   5.923  0.3342 -0.0046 -0.2909
 3932TIP3    H133211   0.367   0.763   5.880 -0.2520  0.0427  0.8437
 3932TIP3    H233212   0.471   0.664   5.927  0.0031 -0.0556  0.0881
 3933TIP3   OH233213   2.231   5.338   1.149 -0.1605  0.4855  0.3533
 3933TIP3    H133214   2.158   5.312   1.094  0.4960 -1.3344  0.3169
 3933TIP3    H233215   2.233   5.434   1.143 -3.4628  0.6790  1.5725
 3934TIP3   OH233216   5.238   2.016   2.881  0.4731  0.0262  0.3546
 3934TIP3    H133217   5.233   2.017   2.785 -1.2681 -0.4336  0.4190
 3934TIP3    H233218   5.161   2.065   2.909  0.6699 -0.3266  1.5267
 3935TIP3   OH233219   6.194   6.101   5.266  0.3198 -0.3435 -0.1448
 3935TIP3    H133220   6.199   6.193   5.290  1.9552 -0.6585  0.8211
 3935TIP3    H233221   6.237   6.096   5.180 -1.1942  0.0279 -0.9365
 3936TIP3   OH233222   2.436   1.015  13.936 -0.2172 -0.2432  0.5939
 3936TIP3    H133223   2.377   0.941  13.950  0.3837 -0.7518  0.4818
 3936TIP3    H233224   2.418   1.075  14.009  1.3661 -1.8680  2.3904
 3937TIP3   OH233225   2.738   3.015   2.172  0.2736 -0.7606 -0.1398
 3937TIP3    H133226   2.821   3.059   2.192  0.3811 -1.2071  0.4057
 3937TIP3    H233227   2.674   3.086   2.166  0.5742 -0.4726  0.0519
 3938TIP3   OH233228   1.048   4.670   2.731  0.0570  0.9926  0.2814
 3938TIP3    H133229   1.035   4.764   2.740  0.4134  1.1992 -1.2427
 3938TIP3    H233230   0.965   4.638   2.695  1.2392  1.3303 -2.9597
 3939TIP3   OH233231   1.698   4.826  12.564  0.1585 -0.1221  0.0519
 3939TIP3    H133232   1.738   4.797  12.482  2.4246 -0.1581  1.1614
 3939TIP3    H233233   1.728   4.916  12.575 -0.5112  0.0359  0.6275
 3940TIP3   OH233234   2.489   1.117   4.965  0.4028 -0.4631 -0.2014
 3940TIP3    H133235   2.444   1.120   4.881 -0.5894  0.4308  0.3429
 3940TIP3    H233236   2.437   1.058   5.019  0.8822 -0.8215 -0.1245
 3941TIP3   OH233237   5.296   3.671   3.717 -0.0363  0.2658  0.0331
 3941TIP3    H133238   5.387   3.661   3.747 -0.2002  2.1854  1.3083
 3941TIP3    H233239   5.295   3.633   3.629  2.7042  2.7091 -1.1380
 3942TIP3   OH233240   2.470   3.885  14.961 -0.4644 -0.4842 -0.2864
 3942TIP3    H133241   2.549   3.909  14.913 -0.5940  1.8716  0.6199
 3942TIP3    H233242   2.496   3.891  15.054 -1.3900 -0.7623 -0.0084
 3943TIP3   OH233243   1.818   2.027   0.892  0.5918  0.4743  0.2775
 3943TIP3    H133244   1.862   1.954   0.849 -1.9806  0.3189 -2.2431
 3943TIP3    H233245   1.746   1.987   0.941  1.6855  0.9544  2.3143
 3944TIP3   OH233246   2.864   4.573  12.472  0.6042  0.5799 -0.3683
 3944TIP3    H133247   2.956   4.590  12.452  0.7657 -1.7786 -1.7692
 3944TIP3    H233248   2.816   4.633  12.415  1.2258 -0.7484 -2.3174
 3945TIP3   OH233249   2.947   5.870  12.767  0.3004 -0.0138  0.2161
 3945TIP3    H133250   2.913   5.946  12.814 -1.2403 -0.4044 -0.2059
 3945TIP3    H233251   2.895   5.867  12.686  0.0694 -1.7338  0.4026
 3946TIP3   OH233252   0.258   2.676   6.666 -0.6866 -0.3855 -0.0624
 3946TIP3    H133253   0.319   2.648   6.734 -0.8952  0.9441  0.7076
 3946TIP3    H233254   0.264   2.609   6.598  3.1358  0.7327 -0.9256
 3947TIP3   OH233255   2.697   4.011   2.900 -0.1609  0.0669  0.0427
 3947TIP3    H133256   2.779   3.983   2.858  0.5774 -0.0423  1.5488
 3947TIP3    H233257   2.654   4.065   2.833 -0.4688 -2.6126 -2.0258
 3948TIP3   OH233258   0.235   3.055  12.710  0.2076 -0.2393  0.1778
 3948TIP3    H133259   0.242   3.141  12.668 -1.6203 -0.5875 -0.8778
 3948TIP3    H233260   0.234   2.993  12.637  0.8186 -1.1235  0.9054
 3949TIP3   OH233261   5.556   1.430  13.557  0.0885  0.7135  0.6781
 3949TIP3    H133262   5.491   1.362  13.576  0.0215  0.6308  0.1742
 3949TIP3    H233263   5.577   1.468  13.642 -1.6658  1.7127  0.6978
 3950TIP3   OH233264   5.274   1.867   5.124  0.4723  0.8379  0.0958
 3950TIP3    H133265   5.206   1.872   5.057  1.3150 -0.5818 -0.8945
 3950TIP3    H233266   5.237   1.913   5.199 -0.9271  1.5030 -0.9714
 3951TIP3   OH233267   0.652   2.491   3.354 -0.2745  0.0147 -0.0531
 3951TIP3    H133268   0.723   2.486   3.419 -0.6394 -0.5786  0.2966
 3951TIP3    H233269   0.680   2.434   3.283 -1.5880 -2.2817  1.2251
 3952TIP3   OH233270   3.082   1.890  12.203 -0.3863  0.0804  0.1625
 3952TIP3    H133271   3.076   1.827  12.274  0.4761 -0.2953 -0.0934
 3952TIP3    H233272   3.169   1.929  12.213 -0.5599  0.5762 -0.2295
 3953TIP3   OH233273   2.436   0.655  14.439  0.4488 -0.2968  1.0538
 3953TIP3    H133274   2.388   0.573  14.426 -0.1888  0.4069 -1.2980
 3953TIP3    H233275   2.527   0.633  14.424  0.1770 -0.4180 -0.5637
 3954TIP3   OH233276   5.827   0.296  16.179 -0.6374  0.2266 -0.3137
 3954TIP3    H133277   5.892   0.332  16.239 -0.3948 -1.3007  0.3436
 3954TIP3    H233278   5.869   0.300  16.093 -0.4893  1.1964 -0.1997
 3955TIP3   OH233279   2.914   4.955  16.947 -0.0135 -0.0392 -0.4287
 3955TIP3    H133280   2.991   4.965  17.004  0.6301 -0.1931 -1.2690
 3955TIP3    H233281   2.944   4.984  16.861 -1.4908  1.8809 -0.3235
 3956TIP3   OH233282   5.773   3.000  11.046  0.0410  0.0856 -0.0998
 3956TIP3    H133283   5.713   2.968  10.979 -0.3071  0.2745  0.1215
 3956TIP3    H233284   5.846   2.938  11.045  0.0761  0.1295 -0.7057
 3957TIP3   OH233285   5.259   5.760  12.212 -0.1192 -0.0660 -0.4639
 3957TIP3    H133286   5.336   5.746  12.157  1.5638 -1.3151  2.1406
 3957TIP3    H233287   5.290   5.813  12.285 -0.7238 -3.6337  2.5843
 3958TIP3   OH233288   4.212   0.415   3.124 -0.1194 -0.1327  0.2160
 3958TIP3    H133289   4.151   0.461   3.180 -2.0885 -3.1225  0.6396
 3958TIP3    H233290   4.172   0.417   3.037  0.9485  0.9658 -0.2714
 3959TIP3   OH233291   3.688   1.189  16.368  0.4097  0.3846 -0.9615
 3959TIP3    H133292   3.672   1.124  16.299  3.0745 -1.3481 -0.0214
 3959TIP3    H233293   3.768   1.233  16.340  1.8388 -0.7155  1.2371
 3960TIP3   OH233294   2.416   5.178   3.858 -0.3367 -0.1509  0.3649
 3960TIP3    H133295   2.501   5.182   3.816 -0.6228 -4.0817 -0.7309
 3960TIP3    H233296   2.401   5.267   3.891  3.1067  1.1627 -1.4514
 3961TIP3   OH233297   3.677   5.887   5.510 -0.0593 -1.0678 -0.2319
 3961TIP3    H133298   3.582   5.899   5.511 -0.1364 -1.6082 -1.1252
 3961TIP3    H233299   3.708   5.942   5.438  0.2802 -1.0908 -0.1032
 3962TIP3   OH233300   6.536   3.186   1.367 -0.2271 -0.8506  0.3856
 3962TIP3    H133301   6.462   3.147   1.413 -0.7921  0.6379  0.7775
 3962TIP3    H233302   6.600   3.115   1.357 -1.8500 -2.2425 -0.2836
 3963TIP3   OH233303   5.892   3.124  13.206  0.0076 -0.4387 -0.3975
 3963TIP3    H133304   5.846   3.045  13.179 -1.6823 -0.1012  1.4093
 3963TIP3    H233305   5.916   3.167  13.124 -4.1044  0.0973 -1.4090
 3964TIP3   OH233306   5.603   3.368   0.984 -0.1840 -0.2613  0.4353
 3964TIP3    H133307   5.554   3.317   1.048 -1.0084 -1.5429 -1.1605
 3964TIP3    H233308   5.631   3.304   0.919  0.2352  1.0709 -0.7226
 3965TIP3   OH233309   6.461   0.056   0.524 -0.7085 -0.1196  0.0271
 3965TIP3    H133310   6.539   0.002   0.537 -0.9277 -0.6975 -0.9696
 3965TIP3    H233311   6.412   0.010   0.455 -0.8213  1.4187 -0.9364
 3966TIP3   OH233312   3.318   5.238  10.876  0.1916  0.5282  0.4933
 3966TIP3    H133313   3.339   5.311  10.817 -0.2188  0.8204  0.7081
 3966TIP3    H233314   3.290   5.169  10.817 -0.6218  0.9611  0.3657
 3967TIP3   OH233315   3.345   1.950  11.604  0.0643  0.6048 -0.2374
 3967TIP3    H133316   3.352   1.881  11.537  2.8236  0.0365  0.5620
 3967TIP3    H233317   3.308   1.905  11.680 -0.0742  0.4920 -0.3703
 3968TIP3   OH233318   4.952   1.818  11.201  0.2016 -0.4028 -0.5871
 3968TIP3    H133319   5.013   1.869  11.147  0.2936 -0.0687 -0.1718
 3968TIP3    H233320   4.866   1.837  11.166  0.1682  0.6466  0.0562
 3969TIP3   OH233321   1.976   5.438   4.404 -0.3123 -0.1206 -0.3099
 3969TIP3    H133322   1.973   5.464   4.312 -0.8117  1.9646  0.2734
 3969TIP3    H233323   1.909   5.371   4.413 -0.3479 -0.2432 -1.4315
 3970TIP3   OH233324   5.202   0.633   2.286  0.5936  0.0963 -0.1934
 3970TIP3    H133325   5.172   0.626   2.376  0.7360  0.1949 -0.1382
 3970TIP3    H233326   5.124   0.661   2.237  0.5510  0.1765 -0.0797
 3971TIP3   OH233327   1.737   1.360  10.534 -0.2280 -0.2819  0.6911
 3971TIP3    H133328   1.816   1.374  10.483 -0.4574 -1.4333 -0.0093
 3971TIP3    H233329   1.768   1.345  10.623  0.2964 -0.0516  0.5489
 3972TIP3   OH233330   1.449   0.566   5.395  0.4736  0.7734  0.4565
 3972TIP3    H133331   1.386   0.591   5.463 -1.6888 -0.9364 -0.8285
 3972TIP3    H233332   1.533   0.560   5.441 -0.7354  0.7298  2.7389
 3973TIP3   OH233333   1.891   5.808   2.058  0.0358 -0.5245 -0.3388
 3973TIP3    H133334   1.853   5.803   1.971  0.5276 -0.2064 -0.5710
 3973TIP3    H233335   1.902   5.901   2.075 -1.3979 -0.5099  0.6507
 3974TIP3   OH233336   5.069   1.214   2.696  0.0987  0.2986 -0.5725
 3974TIP3    H133337   5.079   1.218   2.791 -0.5015 -1.1975 -0.4210
 3974TIP3    H233338   4.978   1.239   2.680 -0.5831 -2.0227 -0.5007
 3975TIP3   OH233339   3.925   3.908  12.356  0.7741  0.4009  0.1944
 3975TIP3    H133340   3.918   3.989  12.405  1.8487  0.9730 -0.5664
 3975TIP3    H233341   3.841   3.899  12.311  0.1920  0.4319  1.2737
 3976TIP3   OH233342   3.892   5.230  11.782  0.0542  0.3414 -0.2462
 3976TIP3    H133343   3.903   5.176  11.703 -0.7394 -1.4930  0.8590
 3976TIP3    H233344   3.962   5.295  11.777  2.7166 -2.4388 -0.2863
 3977TIP3   OH233345   2.807   3.196  11.281  0.2873  0.5827 -0.2468
 3977TIP3    H133346   2.742   3.233  11.341 -0.8266 -0.2135 -0.9499
 3977TIP3    H233347   2.758   3.175  11.202  1.3042 -0.4762 -0.6210
 3978TIP3   OH233348   5.906   1.820   6.735  0.1777 -0.2917 -0.5599
 3978TIP3    H133349   5.900   1.813   6.639  0.3732 -0.3455 -0.5684
 3978TIP3    H233350   5.871   1.906   6.755  1.4776  0.3027 -0.8055
 3979TIP3   OH233351   3.636   4.920   1.809 -0.0047  0.3010  0.0297
 3979TIP3    H133352   3.605   4.902   1.720  0.8683  3.1111 -0.9069
 3979TIP3    H233353   3.622   4.838   1.856 -2.4172 -0.6219 -2.1394
 3980TIP3   OH233354   0.518   0.172  13.033 -0.7277  0.1846  0.0175
 3980TIP3    H133355   0.506   0.090  12.986  0.7800  0.2893 -0.5862
 3980TIP3    H233356   0.506   0.148  13.125  1.5444 -1.1413  0.0195
 3981TIP3   OH233357   4.860   6.449   0.272 -0.0129  0.4235 -0.0602
 3981TIP3    H133358   4.769   6.465   0.298  1.1535  1.1306  3.8597
 3981TIP3    H233359   4.901   6.535   0.277  1.4767 -0.3292  0.7472
 3982TIP3   OH233360   4.410   6.008  15.567 -0.5203  0.3815  0.8555
 3982TIP3    H133361   4.402   5.913  15.568 -2.9337  0.5192 -0.6373
 3982TIP3    H233362   4.322   6.039  15.543  0.4590  2.9330  0.4127
 3983TIP3   OH233363   0.105   2.160  15.905  0.0975  0.1617  0.1340
 3983TIP3    H133364   0.154   2.226  15.856 -1.8154  1.4078 -0.1798
 3983TIP3    H233365   0.055   2.210  15.970 -2.0865 -0.8382 -0.7083
 3984TIP3   OH233366   0.684   4.632  10.917 -0.1943  0.0659  0.0942
 3984TIP3    H133367   0.727   4.574  10.854  0.2261 -0.6432  1.0181
 3984TIP3    H233368   0.729   4.716  10.908 -0.9507  0.3377 -1.4177
 3985TIP3   OH233369   2.995   3.649  13.544 -0.2631  0.5383  0.0428
 3985TIP3    H133370   2.912   3.651  13.591 -0.0688 -0.0621  0.4156
 3985TIP3    H233371   2.969   3.643  13.452 -0.6358 -0.4802  0.2047
 3986TIP3   OH233372   3.462   2.277  14.895  0.4424 -0.6257  0.2431
 3986TIP3    H133373   3.555   2.265  14.876  0.8136  0.7023  1.1852
 3986TIP3    H233374   3.434   2.194  14.935  1.0853 -1.2169 -0.5193
 3987TIP3   OH233375   6.276   3.212  11.480  0.2189 -0.2013 -0.0503
 3987TIP3    H133376   6.283   3.208  11.385  1.7974  0.3440  0.0248
 3987TIP3    H233377   6.320   3.294  11.504 -1.0212  0.1571  1.0718
 3988TIP3   OH233378   4.909   6.483  11.590  0.2835 -0.4804  0.3011
 3988TIP3    H133379   4.995   6.509  11.554 -0.5400  0.7436 -0.8467
 3988TIP3    H233380   4.885   6.555  11.648  0.0382 -0.8364  0.6413
 3989TIP3   OH233381   6.069   6.294  12.196  0.3902  0.2109 -0.5129
 3989TIP3    H133382   6.115   6.376  12.176 -1.0513  1.7383  2.1162
 3989TIP3    H233383   6.088   6.278  12.288  0.9332 -2.6619 -1.0735
 3990TIP3   OH233384   4.314   1.443   4.328 -0.4672 -0.2800  0.0088
 3990TIP3    H133385   4.226   1.409   4.313 -1.0393  0.9764  0.4623
 3990TIP3    H233386   4.372   1.369   4.309 -1.6292 -1.2066  0.0287
 3991TIP3   OH233387   5.147   4.177  13.482  0.3351  0.2999  0.2615
 3991TIP3    H133388   5.101   4.171  13.398 -0.4488 -1.8031  0.7975
 3991TIP3    H233389   5.228   4.127  13.469  0.1477 -0.1490  0.7853
 3992TIP3   OH233390   5.498   1.482   5.591  0.0982 -1.1200  0.4291
 3992TIP3    H133391   5.410   1.520   5.600  0.3951 -0.2513 -0.2285
 3992TIP3    H233392   5.509   1.430   5.671 -1.0555 -1.3399  0.4653
 3993TIP3   OH233393   1.187   2.594   5.049 -0.2120  0.3095  0.1964
 3993TIP3    H133394   1.138   2.512   5.044  0.7591 -0.1873 -1.7268
 3993TIP3    H233395   1.119   2.662   5.056 -1.1948 -0.4266 -1.7171
 3994TIP3   OH233396   0.846   4.433  12.300  0.3287  0.3519 -0.1074
 3994TIP3    H133397   0.779   4.477  12.247 -0.0014 -0.2515 -0.1881
 3994TIP3    H233398   0.865   4.496  12.370 -0.3889  0.4923 -0.0314
 3995TIP3   OH233399   6.408   5.488   4.700 -0.1508  0.5231  0.7579
 3995TIP3    H133400   6.384   5.465   4.610 -2.8019  0.2016  1.5067
 3995TIP3    H233401   6.429   5.582   4.697 -0.6413  0.6005 -0.0976
 3996TIP3   OH233402   3.885   5.450   4.741 -0.1562 -0.0838  0.6405
 3996TIP3    H133403   3.845   5.496   4.815 -0.5976  1.9277 -0.8125
 3996TIP3    H233404   3.972   5.489   4.733 -1.3153  2.0774 -1.9425
 3997TIP3   OH233405   3.547   6.362   4.904 -0.4561 -0.0344 -0.0389
 3997TIP3    H133406   3.533   6.445   4.859 -0.4005 -0.3083 -0.5637
 3997TIP3    H233407   3.460   6.338   4.936 -0.5307  0.0611 -0.1684
 3998TIP3   OH233408   5.048   0.082  13.115 -0.0171 -0.0271 -0.0796
 3998TIP3    H133409   5.027  -0.002  13.076  0.2517 -0.2283  0.2085
 3998TIP3    H233410   4.963   0.123  13.132 -0.1611 -0.5218  0.3903
 3999TIP3   OH233411   4.478   2.089  16.422 -0.3203  0.1901 -0.2130
 3999TIP3    H133412   4.454   2.166  16.474  0.4216  0.5567 -0.4144
 3999TIP3    H233413   4.573   2.084  16.430 -0.1904  0.3394 -1.6616
 4000TIP3   OH233414   1.970   5.871  10.853 -0.4099 -0.0276 -0.0717
 4000TIP3    H133415   1.908   5.811  10.811 -0.0884 -0.0873 -0.4694
 4000TIP3    H233416   1.956   5.955  10.810 -0.0443 -0.1006 -0.3341
 4001TIP3   OH233417   5.990   1.083   1.388  0.3266 -0.2483 -0.5824
 4001TIP3    H133418   5.929   1.137   1.440  1.6130  1.3703 -0.7155
 4001TIP3    H233419   5.957   1.088   1.299 -0.0633 -0.3988 -0.4459
 4002TIP3   OH233420   0.884   3.001   2.010  0.2935  0.7116 -0.1950
 4002TIP3    H133421   0.965   3.007   1.960  0.7727  0.5068  0.5374
 4002TIP3    H233422   0.908   2.950   2.088 -0.5256  0.6906  0.0497
 4003TIP3   OH233423   2.071   4.191   6.909  0.2895  0.1344  0.1756
 4003TIP3    H133424   2.053   4.144   6.990  1.6328 -0.6842  0.0009
 4003TIP3    H233425   2.160   4.167   6.885 -0.0464  0.4372 -1.4968
 4004TIP3   OH233426   3.870   4.437  16.788 -0.3144 -0.1794 -0.3596
 4004TIP3    H133427   3.876   4.476  16.875  3.3953  1.0185 -1.0785
 4004TIP3    H233428   3.922   4.356  16.794 -0.7970 -0.5600 -1.2134
 4005TIP3   OH233429   0.350   3.526  12.170 -0.0159 -0.0879  0.2274
 4005TIP3    H133430   0.286   3.511  12.101  0.3649  1.2592 -0.4348
 4005TIP3    H233431   0.400   3.602  12.141  0.9886 -0.2812  1.3811
 4006TIP3   OH233432   4.936   5.630  16.409  0.3715 -0.8510 -0.5801
 4006TIP3    H133433   4.896   5.544  16.413  1.1628 -1.1188  3.2092
 4006TIP3    H233434   4.873   5.688  16.451  0.1233  0.3574 -2.5447
 4007TIP3   OH233435   5.415   0.727   0.172  0.5321 -0.0712  0.3712
 4007TIP3    H133436   5.382   0.710   0.260  0.7210  0.0743  0.4688
 4007TIP3    H233437   5.377   0.657   0.119 -0.9904  0.8394  0.2314
 4008TIP3   OH233438   1.831   0.952  15.084 -0.1638  0.1461 -0.4063
 4008TIP3    H133439   1.770   0.879  15.080  0.6930 -0.5523 -0.7647
 4008TIP3    H233440   1.855   0.969  14.993 -1.4598  1.8092 -0.4567
 4009TIP3   OH233441   1.304   1.510  13.176  0.4384  0.3584  0.1181
 4009TIP3    H133442   1.279   1.557  13.097  1.0537  0.7672  0.1632
 4009TIP3    H233443   1.395   1.537  13.192  0.2377  0.4683  1.0886
 4010TIP3   OH233444   3.083   3.341   4.859 -0.6760 -0.3497  0.0837
 4010TIP3    H133445   3.016   3.372   4.921 -0.6220  2.3140 -1.1396
 4010TIP3    H233446   3.051   3.368   4.773  1.2478 -0.4239 -0.6697
 4011TIP3   OH233447   3.084   2.838   0.033  0.0400  0.2884  0.2441
 4011TIP3    H133448   3.020   2.831   0.104 -0.2866 -0.0183 -0.0772
 4011TIP3    H233449   3.060   2.918  -0.013  0.1379  0.3882  0.3644
 4012TIP3   OH233450   6.622   2.964  11.193  0.1709  0.0848  0.4909
 4012TIP3    H133451   6.602   3.057  11.200 -0.3663  0.1617 -1.6952
 4012TIP3    H233452   6.556   2.930  11.133  0.1771 -1.7734  1.5092
 4013TIP3   OH233453   4.113   4.653  12.175  0.1274  0.1846 -0.1635
 4013TIP3    H133454   4.125   4.748  12.165  1.1628  0.0268 -0.4738
 4013TIP3    H233455   4.028   4.636  12.133 -0.7254  1.1663  1.1128
 4014TIP3   OH233456   6.132   5.052   0.203  0.0357  0.4327 -0.5606
 4014TIP3    H133457   6.174   4.978   0.158  0.0352  0.2086 -0.1988
 4014TIP3    H233458   6.039   5.042   0.184 -0.3408 -1.4642  2.0404
 4015TIP3   OH233459   4.218   0.438  12.975 -0.2235 -0.2783 -0.2982
 4015TIP3    H133460   4.184   0.389  12.900 -0.3893  0.6028 -0.7931
 4015TIP3    H233461   4.140   0.474  13.017 -0.1571 -0.9990  0.4676
 4016TIP3   OH233462   2.451   2.417   0.474 -0.2983  0.2765 -0.0707
 4016TIP3    H133463   2.494   2.488   0.425 -1.3745  1.1486  0.2217
 4016TIP3    H233464   2.409   2.364   0.408 -0.4915  0.6014 -0.2125
 4017TIP3   OH233465   1.046   5.937   0.574  0.8400 -0.3617 -0.0426
 4017TIP3    H133466   1.064   6.001   0.505 -1.6933  0.8715  0.3584
 4017TIP3    H233467   0.965   5.894   0.546 -0.2339  0.1747  2.1311
 4018TIP3   OH233468   1.882   2.625   1.116 -0.3205 -0.3908 -0.5292
 4018TIP3    H133469   1.865   2.705   1.067 -0.6030 -0.1043  0.0366
 4018TIP3    H233470   1.872   2.650   1.208 -1.2564 -1.2614 -0.3814
 4019TIP3   OH233471   2.984   1.204  14.317 -0.1297 -0.2585 -0.2842
 4019TIP3    H133472   2.895   1.238  14.313  0.1908  0.5012 -1.2065
 4019TIP3    H233473   3.026   1.256  14.386 -0.5798 -1.0634  0.6040
 4020TIP3   OH233474   0.297   3.563  11.496 -0.5093  0.8607  0.1549
 4020TIP3    H133475   0.339   3.586  11.579  1.0213  0.5354 -0.5098
 4020TIP3    H233476   0.369   3.536  11.440 -1.3747  2.2115 -1.6668
 4021TIP3   OH233477   0.447   0.227   1.591  0.3845  0.0774  0.1261
 4021TIP3    H133478   0.512   0.279   1.544  0.1399  1.2037  1.0080
 4021TIP3    H233479   0.494   0.149   1.620  0.4161 -0.8632 -2.3716
 4022TIP3   OH233480   5.489   5.142  12.628 -0.2341  0.1828  0.5641
 4022TIP3    H133481   5.442   5.126  12.710 -2.1620 -1.6541 -0.8188
 4022TIP3    H233482   5.489   5.056  12.584  0.0132  1.3222 -1.7256
 4023TIP3   OH233483   6.147   1.047   4.572 -0.1203  0.1293  0.6262
 4023TIP3    H133484   6.232   1.082   4.597 -0.4928  1.1469  0.5169
 4023TIP3    H233485   6.161   1.006   4.487 -0.1901  2.1525 -0.3729
 4024TIP3   OH233486   2.351   4.563   0.432 -0.4091  0.0426 -0.1389
 4024TIP3    H133487   2.415   4.495   0.448 -0.8642 -0.3425  0.0605
 4024TIP3    H233488   2.388   4.616   0.361 -0.7298 -1.2878 -1.3143
 4025TIP3   OH233489   6.197   3.880  14.442 -0.2037 -0.0149  0.8117
 4025TIP3    H133490   6.265   3.820  14.471  0.3421 -0.2359 -0.8717
 4025TIP3    H233491   6.186   3.941  14.515  0.6147 -0.9719  1.7488
 4026TIP3   OH233492   3.248   4.423  11.398 -0.5337 -0.3937  0.0955
 4026TIP3    H133493   3.278   4.380  11.319 -1.7239 -1.4584  0.2090
 4026TIP3    H233494   3.220   4.510  11.369 -0.0972 -0.4422 -0.4831
 4027TIP3   OH233495   4.158   4.223   3.461 -0.0557 -0.7508 -0.1261
 4027TIP3    H133496   4.249   4.194   3.461 -0.0656 -0.8302  1.9154
 4027TIP3    H233497   4.140   4.245   3.369  2.6518  1.2615 -0.2463
 4028TIP3   OH233498   1.600   1.401  15.477 -0.1379  0.1063 -0.7745
 4028TIP3    H133499   1.679   1.435  15.433 -0.2746  0.4101 -0.7878
 4028TIP3    H233500   1.616   1.419  15.570 -0.6369  1.0930 -0.8741
 4029TIP3   OH233501   1.129   3.956   1.666 -0.3922  0.2422  0.1340
 4029TIP3    H133502   1.183   3.879   1.686 -0.8252  0.0683  0.6344
 4029TIP3    H233503   1.127   3.959   1.570 -2.6708 -1.9973  0.0640
 4030TIP3   OH233504   1.077   4.291   5.689  0.1269  0.8863  0.1994
 4030TIP3    H133505   1.123   4.257   5.766  0.2488  1.0651  0.2077
 4030TIP3    H233506   1.061   4.215   5.634 -0.0161  0.7469  0.4321
 4031TIP3   OH233507   1.196   5.978  13.745 -0.0699 -0.2634 -0.4194
 4031TIP3    H133508   1.193   5.953  13.652  3.3923 -0.6292 -0.5047
 4031TIP3    H233509   1.278   6.028  13.753 -1.1668  1.2068  2.1215
 4032TIP3   OH233510   5.700   6.778  15.929 -0.0603 -0.0974  0.3528
 4032TIP3    H133511   5.700   6.689  15.893  0.6564 -0.3542  0.9578
 4032TIP3    H233512   5.648   6.771  16.009 -1.9078  0.5382 -0.7744
 4033TIP3   OH233513   3.206   4.123   1.984  0.2054 -0.2585 -0.5089
 4033TIP3    H133514   3.283   4.087   1.942 -0.2587 -0.3761 -1.2753
 4033TIP3    H233515   3.205   4.215   1.956 -0.6028 -0.5605 -1.5104
 4034TIP3   OH233516   5.835   1.574  14.267 -0.0859  0.0296 -0.1531
 4034TIP3    H133517   5.740   1.584  14.276  0.1022  1.7783  0.1100
 4034TIP3    H233518   5.847   1.532  14.182 -1.0109  2.2647 -1.4508
 4035TIP3   OH233519   5.602   1.052  16.707 -0.2874  0.2598 -0.3739
 4035TIP3    H133520   5.621   1.136  16.748  0.2710 -0.1784  0.2752
 4035TIP3    H233521   5.518   1.026  16.742  0.8821 -0.8391  1.6921
 4036TIP3   OH233522   1.654   5.735   1.530  0.6347  0.2952  0.3044
 4036TIP3    H133523   1.676   5.704   1.442 -1.1561  1.5815 -0.6287
 4036TIP3    H233524   1.678   5.663   1.588  0.1926 -1.2650 -1.4154
 4037TIP3   OH233525   4.496   3.197   3.834 -0.2072  0.2455  0.5469
 4037TIP3    H133526   4.583   3.161   3.815  0.1375  1.5303 -0.3992
 4037TIP3    H233527   4.501   3.223   3.926  0.5805  0.7497  0.3722
 4038TIP3   OH233528   3.243   4.282   1.620  0.0417 -0.2274  0.4691
 4038TIP3    H133529   3.320   4.235   1.588 -0.7908 -0.9460 -0.5084
 4038TIP3    H233530   3.256   4.372   1.590  0.8396 -0.1847  0.9243
 4039TIP3   OH233531   2.516   6.487   2.005 -0.1303 -0.1911 -0.0677
 4039TIP3    H133532   2.571   6.432   1.949  0.9233  1.5930 -0.8518
 4039TIP3    H233533   2.543   6.466   2.094  0.9121 -0.2834 -0.4002
 4040TIP3   OH233534   0.775   5.331  17.052 -0.2831 -0.0778 -0.4010
 4040TIP3    H133535   0.722   5.279  17.113 -1.0090  0.4995 -0.5261
 4040TIP3    H233536   0.842   5.271  17.020 -0.1329 -0.4900  0.6834
 4041TIP3   OH233537   1.448   4.073  10.797 -0.2554 -0.3039  0.3632
 4041TIP3    H133538   1.363   4.031  10.806 -0.0325 -0.7164  0.5699
 4041TIP3    H233539   1.429   4.167  10.793 -0.7525 -0.4243 -0.0594
 4042TIP3   OH233540   0.062   0.030   4.978 -0.0192 -0.3808 -0.1548
 4042TIP3    H133541   0.029   0.002   4.892 -0.7254  0.3180 -0.1215
 4042TIP3    H233542   0.101  -0.048   5.015  0.8466 -0.5429 -1.3790
 4043TIP3   OH233543   4.152   1.418  13.284  0.4931 -0.3095  0.2809
 4043TIP3    H133544   4.173   1.439  13.193  1.4918  2.2559  1.0636
 4043TIP3    H233545   4.233   1.382  13.320  0.3679 -0.4680  0.4032
 4044TIP3   OH233546   3.429   2.627  15.765 -0.1028 -0.8223  0.5578
 4044TIP3    H133547   3.462   2.537  15.775 -0.4339 -0.7817  2.1066
 4044TIP3    H233548   3.372   2.640  15.840 -0.0790  0.6957  0.3267
 4045TIP3   OH233549   6.117   4.062  14.655  0.1891  0.0005 -0.0328
 4045TIP3    H133550   6.025   4.044  14.635  0.3446  0.1642 -0.9576
 4045TIP3    H233551   6.116   4.101  14.742 -0.6183 -0.0147 -0.0313
 4046TIP3   OH233552   0.905   3.344   1.830 -0.3309 -0.3974  0.1659
 4046TIP3    H133553   0.830   3.285   1.822 -1.3379  0.7112  1.3277
 4046TIP3    H233554   0.974   3.301   1.779 -1.4586 -1.8963 -0.1416
 4047TIP3   OH233555   0.087   0.837   6.492  0.0741  0.0780 -0.3042
 4047TIP3    H133556   0.045   0.900   6.550  0.7880  0.2286  0.0494
 4047TIP3    H233557   0.180   0.845   6.511  0.3789  0.6132 -1.9535
 4048TIP3   OH233558   6.030   5.863  13.662 -0.2878 -0.4011  0.5923
 4048TIP3    H133559   6.040   5.781  13.613 -1.6460  0.8856 -1.9550
 4048TIP3    H233560   5.957   5.907  13.619  2.1302  3.3500  0.1544
 4049TIP3   OH233561   3.980   4.348   3.251  0.1665  0.5274 -0.0259
 4049TIP3    H133562   4.048   4.416   3.253 -0.9145  1.6043  1.7761
 4049TIP3    H233563   3.910   4.384   3.305 -1.5085 -0.9152 -1.2189
 4050TIP3   OH233564   5.521   2.238  12.319 -0.3298  0.2885  0.2610
 4050TIP3    H133565   5.559   2.155  12.291 -0.0273 -0.2884  2.2686
 4050TIP3    H233566   5.565   2.305  12.267  1.4697 -0.5909  0.6350
 4051TIP3   OH233567   5.367   3.437  13.359 -0.1545 -0.2652  0.1383
 4051TIP3    H133568   5.425   3.386  13.302 -0.2925 -2.7436  2.1051
 4051TIP3    H233569   5.346   3.377  13.431 -2.0182  1.9172  1.4767
 4052TIP3   OH233570   3.452   2.345  13.010 -0.2144  0.6747 -0.1797
 4052TIP3    H133571   3.422   2.387  13.091  1.5593  2.1018 -0.2451
 4052TIP3    H233572   3.442   2.412  12.943  1.4220  0.5687 -0.5282
 4053TIP3   OH233573   1.771   4.126   2.253  0.1439 -0.1439 -0.1881
 4053TIP3    H133574   1.772   4.204   2.309  0.4429 -0.4814  0.2733
 4053TIP3    H233575   1.768   4.161   2.164 -0.2082  0.3945  0.0309
 4054TIP3   OH233576   0.413   0.963   0.108 -0.5426  0.1133  1.3253
 4054TIP3    H133577   0.456   1.008   0.035  0.3668 -1.1819  1.0453
 4054TIP3    H233578   0.339   0.918   0.067  0.8770 -1.9073  0.8901
 4055TIP3   OH233579   5.634   2.670  13.365  0.0229 -0.1345  0.5747
 4055TIP3    H133580   5.567   2.637  13.306  0.5444  0.6073 -0.4551
 4055TIP3    H233581   5.679   2.592  13.397 -0.0745 -0.5280 -0.2332
 4056TIP3   OH233582   6.133   5.594   3.441  0.0926 -0.2608  0.6264
 4056TIP3    H133583   6.136   5.688   3.460 -0.2983 -0.4213  1.5271
 4056TIP3    H233584   6.163   5.587   3.351  2.8674  0.4687  1.4585
 4057TIP3   OH233585   4.893   6.439  13.392  0.4272 -0.2880 -0.0915
 4057TIP3    H133586   4.924   6.362  13.441 -0.4290 -0.4349  0.2290
 4057TIP3    H233587   4.800   6.424  13.380  0.4968  0.1093 -1.1399
 4058TIP3   OH233588   3.048   1.712  12.394  0.1124 -0.3435 -0.7201
 4058TIP3    H133589   3.126   1.658  12.408  0.4220  0.7482  2.1686
 4058TIP3    H233590   2.980   1.669  12.446  0.1325  1.4811  0.8871
 4059TIP3   OH233591   3.561   6.721   1.635 -0.3360 -0.1364  0.0951
 4059TIP3    H133592   3.524   6.733   1.723 -2.0279  0.9355 -0.7453
 4059TIP3    H233593   3.653   6.700   1.651 -0.0962  2.1644  2.0942
 4060TIP3   OH233594   1.898   2.849  11.280  0.6612  0.1157  0.4527
 4060TIP3    H133595   1.989   2.843  11.307  0.7989 -2.6599 -0.4427
 4060TIP3    H233596   1.900   2.895  11.196  1.5005 -1.9443 -0.6779
 4061TIP3   OH233597   3.986   2.781  17.089 -0.3389  0.2214  0.3294
 4061TIP3    H133598   3.958   2.868  17.118  1.9985  0.7837  1.0066
 4061TIP3    H233599   4.067   2.764  17.138 -0.3467 -2.0033 -0.3698
 4062TIP3   OH233600   4.140   6.411   2.328 -0.6391  0.3432  0.0083
 4062TIP3    H133601   4.114   6.492   2.371 -1.4423  0.2171 -0.2411
 4062TIP3    H233602   4.101   6.342   2.380 -1.9901  0.2028 -1.1665
 4063TIP3   OH233603   1.950   6.568   1.220 -0.2947  0.0798  0.4602
 4063TIP3    H133604   1.898   6.487   1.217 -1.5956  0.9270 -0.6323
 4063TIP3    H233605   1.960   6.593   1.129  0.2722  1.0577  0.7840
 4064TIP3   OH233606   6.743   6.183   0.449 -0.0864 -0.4891 -0.5235
 4064TIP3    H133607   6.790   6.263   0.469 -0.3701 -0.4916  0.1757
 4064TIP3    H233608   6.720   6.190   0.356  0.8083 -0.2458 -0.7258
 4065TIP3   OH233609   2.598   6.617   0.256  0.0410 -1.0240  0.3793
 4065TIP3    H133610   2.592   6.690   0.195 -0.9218  1.2253  3.0679
 4065TIP3    H233611   2.689   6.585   0.247  1.2871  2.1952  1.0303
 4066TIP3   OH233612   6.126   1.789  13.929  0.1470 -0.2603 -0.5441
 4066TIP3    H133613   6.201   1.761  13.982 -0.7843  0.9124  1.4384
 4066TIP3    H233614   6.140   1.883  13.916 -0.3396 -0.2839 -1.2279
 4067TIP3   OH233615   6.296   2.864   1.452 -0.1853 -0.1528  0.0364
 4067TIP3    H133616   6.345   2.838   1.530 -0.1737  1.1375  0.4788
 4067TIP3    H233617   6.205   2.845   1.472 -0.1284 -0.2613  0.1880
 4068TIP3   OH233618   1.052   4.977  16.809 -0.7494 -0.1019 -0.1885
 4068TIP3    H133619   1.026   4.927  16.886 -3.3153  1.1404 -0.1947
 4068TIP3    H233620   1.078   4.911  16.745  1.6022 -1.1325  1.7735
 4069TIP3   OH233621   2.089   4.575  11.303  0.1764 -0.6811 -0.3281
 4069TIP3    H133622   2.074   4.531  11.387  0.8828  1.3662  0.9039
 4069TIP3    H233623   2.001   4.598  11.273  0.0037 -0.1574  0.5536
 4070TIP3   OH233624   4.259   6.289  15.765  0.1616 -0.2103  0.0804
 4070TIP3    H133625   4.187   6.350  15.751  0.7969  0.0594 -2.1270
 4070TIP3    H233626   4.338   6.342  15.757  0.6568 -0.7158  1.4001
 4071TIP3   OH233627   0.064   1.189   2.845  0.5286 -0.0629 -0.1726
 4071TIP3    H133628   0.149   1.150   2.864  1.8534  2.8254  0.0716
 4071TIP3    H233629   0.027   1.134   2.775  2.4307 -1.5234 -0.0658
 4072TIP3   OH233630   5.561   5.409  16.558 -0.0400  0.1860  0.2502
 4072TIP3    H133631   5.484   5.415  16.502  0.7848  1.6053 -0.7916
 4072TIP3    H233632   5.626   5.363  16.503  0.4897  0.7965  0.3581
 4073TIP3   OH233633   3.436   1.219  16.038 -0.3027 -0.1417 -0.4029
 4073TIP3    H133634   3.442   1.314  16.043 -1.1930 -0.0142 -1.5722
 4073TIP3    H233635   3.368   1.202  15.972 -0.4306 -1.5813  0.0743
 4074TIP3   OH233636   3.866   0.252  11.162  0.1308 -0.0617 -0.1121
 4074TIP3    H133637   3.843   0.265  11.070  0.7839 -0.6044 -0.3550
 4074TIP3    H233638   3.797   0.297  11.210  0.0426  0.6321 -0.8748
 4075TIP3   OH233639   6.210   2.169  16.843 -1.0130 -0.3079  0.0580
 4075TIP3    H133640   6.186   2.249  16.889 -0.8984 -1.4134  2.1140
 4075TIP3    H233641   6.154   2.101  16.881 -0.8248 -1.2901 -1.3628
 4076TIP3   OH233642   1.330   3.663   3.415 -0.6030  0.2212  1.1917
 4076TIP3    H133643   1.390   3.697   3.481 -0.8970 -0.8911  2.0529
 4076TIP3    H233644   1.387   3.629   3.346 -0.2962  1.4828  0.8123
 4077TIP3   OH233645   5.463   4.913  12.830  0.5352  0.1664 -0.2836
 4077TIP3    H133646   5.376   4.951  12.835  0.4466  0.0162 -0.6549
 4077TIP3    H233647   5.466   4.850  12.901 -0.3706 -1.2749 -1.4959
 4078TIP3   OH233648   4.670   4.889   3.161 -0.3318 -0.3715  0.6979
 4078TIP3    H133649   4.576   4.884   3.145 -0.2208  1.5817 -0.8098
 4078TIP3    H233650   4.681   4.962   3.222  0.1488 -1.2166  1.6502
 4079TIP3   OH233651   1.434   6.401   0.325  0.3903  0.2121 -0.2007
 4079TIP3    H133652   1.497   6.359   0.267  0.8683 -0.3337  0.7039
 4079TIP3    H233653   1.373   6.331   0.348  0.0838  0.4788 -0.1963
 4080TIP3   OH233654   5.805   0.133  13.760  0.0345 -0.1937  0.1781
 4080TIP3    H133655   5.783   0.110  13.670  1.4491  0.3569 -0.3353
 4080TIP3    H233656   5.773   0.222  13.771  1.4456  0.4074 -0.3922
 4081TIP3   OH233657   4.142   5.072   6.242 -0.5137 -0.8305  0.4574
 4081TIP3    H133658   4.073   5.091   6.306 -0.2365 -0.6813  0.7121
 4081TIP3    H233659   4.223   5.102   6.284 -0.4512  0.1860 -0.3658
 4082TIP3   OH233660   2.491   1.039  13.643  0.6214 -0.2012 -0.0566
 4082TIP3    H133661   2.535   1.123  13.653 -0.6530  0.5144 -0.3628
 4082TIP3    H233662   2.463   1.015  13.732 -1.6288  1.1524 -0.3767
 4083TIP3   OH233663   2.123   0.507   1.253 -0.1921 -0.8156  0.2208
 4083TIP3    H133664   2.119   0.423   1.207 -0.9626 -0.9629  0.5469
 4083TIP3    H233665   2.032   0.526   1.274 -0.1335  0.5904 -0.7284
 4084TIP3   OH233666   5.388   5.572   1.968 -0.0328  0.0512  0.2703
 4084TIP3    H133667   5.402   5.640   1.903  1.8086  0.3242  0.9271
 4084TIP3    H233668   5.397   5.617   2.052 -0.8155 -0.6167  0.7236
 4085TIP3   OH233669   1.809   3.353  15.209  0.5369  0.3104  0.1977
 4085TIP3    H133670   1.860   3.276  15.185 -1.3245 -1.1239  0.6820
 4085TIP3    H233671   1.750   3.367  15.135 -0.7654 -0.2004  1.1217
 4086TIP3   OH233672   5.852   2.776  16.444 -0.5586 -0.3888 -0.3457
 4086TIP3    H133673   5.847   2.688  16.408 -1.8868 -0.2307 -0.5975
 4086TIP3    H233674   5.941   2.806  16.425  0.2337 -2.0562  0.6768
 4087TIP3   OH233675   3.199   4.634  14.934 -0.2834 -0.3529  0.4982
 4087TIP3    H133676   3.178   4.541  14.941  1.7209 -0.9731 -1.0688
 4087TIP3    H233677   3.142   4.677  14.997 -3.0869 -2.3699 -0.5760
 4088TIP3   OH233678   4.293   3.457  16.655 -0.0547  0.8404 -0.5412
 4088TIP3    H133679   4.372   3.478  16.606  1.6650 -2.4382  0.6521
 4088TIP3    H233680   4.222   3.465  16.592  1.6551  0.3811 -2.5817
 4089TIP3   OH233681   6.385   5.790  13.436 -0.5647 -0.7146 -0.3195
 4089TIP3    H133682   6.357   5.838  13.514 -1.0079 -1.6972  0.1329
 4089TIP3    H233683   6.396   5.857  13.369  0.8388  0.2733  0.8639
 4090TIP3   OH233684   6.096   0.185  12.652  0.1418 -0.0248 -0.8505
 4090TIP3    H133685   6.018   0.217  12.605 -0.6652 -2.6685 -1.4114
 4090TIP3    H233686   6.086   0.090  12.651  2.3642 -0.2943  0.8945
 4091TIP3   OH233687   3.898   1.789   3.254 -0.1733 -0.1875 -0.1203
 4091TIP3    H133688   3.940   1.873   3.275  0.2077 -0.4546  0.1857
 4091TIP3    H233689   3.937   1.763   3.170  0.6412 -0.6769  0.4051
 4092TIP3   OH233690   4.430   3.918   3.299 -0.1968 -0.4481 -0.0273
 4092TIP3    H133691   4.455   3.983   3.364 -1.1786  0.9217 -0.9795
 4092TIP3    H233692   4.490   3.933   3.225  0.9139 -1.9901  0.5312
 4093TIP3   OH233693   3.749   3.406   0.277  0.3077  0.6229 -0.0779
 4093TIP3    H133694   3.782   3.330   0.325 -0.7201  0.8545  1.0124
 4093TIP3    H233695   3.813   3.475   0.293 -1.1193  1.3384  2.7790
 4094TIP3   OH233696   6.335   5.739  11.620 -0.2639 -0.2736 -0.3421
 4094TIP3    H133697   6.407   5.801  11.627 -0.9651  0.4342  0.6261
 4094TIP3    H233698   6.286   5.768  11.543 -1.5409  1.3988  1.0640
 4095TIP3   OH233699   5.967   3.311   3.207 -0.2463  0.1206 -0.1385
 4095TIP3    H133700   5.972   3.285   3.115 -0.9493 -0.6835  0.0409
 4095TIP3    H233701   5.895   3.374   3.210 -0.3070  0.0504 -0.1177
 4096TIP3   OH233702   6.036   5.364  12.725  0.0982  0.0193  0.5434
 4096TIP3    H133703   6.114   5.317  12.754 -0.3181  0.4474  2.4384
 4096TIP3    H233704   5.994   5.305  12.662  2.2212  0.0244 -0.9024
 4097TIP3   OH233705   3.034   6.247  12.139 -0.6659  0.0214 -0.3973
 4097TIP3    H133706   3.013   6.193  12.063  0.4217 -0.6634 -0.2096
 4097TIP3    H233707   3.067   6.329  12.102 -0.3868 -0.2107 -0.6592
 4098TIP3   OH233708   5.266   4.485   0.549 -0.4542  0.0092 -0.1263
 4098TIP3    H133709   5.321   4.487   0.628  2.7285  2.8759 -2.2973
 4098TIP3    H233710   5.236   4.575   0.539 -2.0613 -0.6560 -1.4056
 4099TIP3   OH233711   5.815   4.977   0.726 -0.5282 -0.1936 -0.6092
 4099TIP3    H133712   5.907   4.989   0.747 -1.0654  1.3089  1.0105
 4099TIP3    H233713   5.815   4.941   0.637  1.6206 -0.7681 -0.3991
 4100TIP3   OH233714   1.177   0.743  15.373  0.2911  0.2240  0.1290
 4100TIP3    H133715   1.222   0.806  15.317  2.1599  0.4303  1.8001
 4100TIP3    H233716   1.157   0.792  15.453  0.3512 -0.8567  0.8235
 4101TIP3   OH233717   2.273   0.353   3.266  0.7092  0.4519  0.1101
 4101TIP3    H133718   2.249   0.298   3.341  0.2477  0.2537 -0.1805
 4101TIP3    H233719   2.330   0.420   3.302  2.8281 -1.3415  0.1572
 4102TIP3   OH233720   4.919   1.710   4.321 -0.0616 -0.0541 -0.0853
 4102TIP3    H133721   4.851   1.747   4.265  1.1663  1.5926 -0.5242
 4102TIP3    H233722   4.873   1.686   4.402 -1.4739 -0.6355 -1.0435
 4103TIP3   OH233723   0.868   2.517  10.746 -0.1900  0.1749 -0.2081
 4103TIP3    H133724   0.818   2.448  10.704 -1.9347  0.7968  0.7618
 4103TIP3    H233725   0.905   2.568  10.674 -0.2977 -0.7651 -0.9317
 4104TIP3   OH233726   0.263   2.840  13.977 -0.4701 -0.0808  0.2923
 4104TIP3    H133727   0.195   2.798  13.924  0.7894 -0.7666 -0.8181
 4104TIP3    H233728   0.343   2.831  13.924  0.9224 -1.1837  2.5291
 4105TIP3   OH233729   4.810   4.474  10.851  0.1505  0.1428 -0.6528
 4105TIP3    H133730   4.735   4.434  10.895 -0.6064  1.3623 -0.8106
 4105TIP3    H233731   4.815   4.563  10.886  1.2399  0.2315 -0.9947
 4106TIP3   OH233732   6.782   3.806  12.356 -0.1456  0.6518  0.3104
 4106TIP3    H133733   6.832   3.852  12.289  0.4988  0.1895  0.4700
 4106TIP3    H233734   6.833   3.818  12.436  0.0371 -0.3434  0.3476
 4107TIP3   OH233735   6.123   0.614  13.859 -0.1736 -0.2963 -0.0974
 4107TIP3    H133736   6.175   0.604  13.780 -0.4353  1.4436 -0.5274
 4107TIP3    H233737   6.117   0.709  13.872 -0.6408 -0.5376  1.6673
 4108TIP3   OH233738   0.239   1.371  13.589 -0.1631 -0.3764 -0.6422
 4108TIP3    H133739   0.295   1.411  13.522 -0.8550 -0.6713 -1.4106
 4108TIP3    H233740   0.152   1.406  13.572 -0.7699 -2.1511 -1.3106
 4109TIP3   OH233741   6.297   4.287   5.068 -0.3668 -0.1984  0.2412
 4109TIP3    H133742   6.206   4.289   5.038 -0.0968  3.4540 -0.5415
 4109TIP3    H233743   6.301   4.352   5.138  2.1466  1.5288 -1.4184
 4110TIP3   OH233744   6.368   0.762  11.142 -0.2236 -0.6567 -0.2091
 4110TIP3    H133745   6.398   0.685  11.192 -2.0868 -1.0375  0.3427
 4110TIP3    H233746   6.285   0.735  11.104 -1.9854  1.7920  1.7506
 4111TIP3   OH233747   3.411   4.580  13.158  0.0985 -0.2216  0.0194
 4111TIP3    H133748   3.319   4.556  13.172  0.1562 -0.8182 -0.5920
 4111TIP3    H233749   3.457   4.546  13.235 -0.2639  0.4908  0.5510
 4112TIP3   OH233750   3.714   0.815   1.741  0.3058  0.3909  0.6548
 4112TIP3    H133751   3.730   0.874   1.814  1.1264  0.4235  0.4595
 4112TIP3    H233752   3.680   0.872   1.671  2.0143  0.8164  0.1411
 4113TIP3   OH233753   5.779   4.529   5.214  0.5147 -0.0084  0.3544
 4113TIP3    H133754   5.790   4.563   5.125  1.2053  0.4409  0.6015
 4113TIP3    H233755   5.757   4.606   5.266 -4.7989 -0.9926 -0.2379
 4114TIP3   OH233756   0.733   3.817   4.341  0.6136  0.0319  0.1835
 4114TIP3    H133757   0.706   3.732   4.309  0.4491  1.1265 -2.7140
 4114TIP3    H233758   0.752   3.803   4.434 -0.3473 -2.9065 -0.0259
 4115TIP3   OH233759   4.373   1.390  12.602 -0.0107 -1.0668  0.0909
 4115TIP3    H133760   4.289   1.352  12.626 -0.1967 -1.2400 -0.8243
 4115TIP3    H233761   4.429   1.375  12.678 -1.5721  1.4526  1.8250
 4116TIP3   OH233762   1.296   4.248  12.784 -0.7729 -0.1743  0.4851
 4116TIP3    H133763   1.364   4.273  12.722 -0.7232 -1.1075  0.1610
 4116TIP3    H233764   1.218   4.236  12.730 -0.9443 -0.1110  0.7204
 4117TIP3   OH233765   6.372   3.609  17.056 -0.2750  0.4204 -0.1220
 4117TIP3    H133766   6.331   3.671  16.996 -1.6046 -0.2385  0.0964
 4117TIP3    H233767   6.416   3.546  16.998 -1.0571  0.1235 -0.3955
 4118TIP3   OH233768   1.813   6.694  17.032  0.0571 -0.1641  0.6390
 4118TIP3    H133769   1.732   6.681  17.081 -0.2594  3.2323  1.1053
 4118TIP3    H233770   1.783   6.716  16.943  0.5298 -1.3310  0.1833
 4119TIP3   OH233771   2.638   5.694   2.925 -0.2227  0.0604 -0.3041
 4119TIP3    H133772   2.695   5.659   2.857  1.0314  1.1806  0.1574
 4119TIP3    H233773   2.674   5.780   2.945 -1.5379  0.4018  0.6426
 4120TIP3   OH233774   4.745   4.951  13.845  0.2639 -0.6695  0.0485
 4120TIP3    H133775   4.807   4.962  13.773  0.2192 -2.4845 -0.3070
 4120TIP3    H233776   4.785   4.884  13.901 -0.3714 -0.3023  0.9609
 4121TIP3   OH233777   4.831   5.791   4.832  0.6479 -0.8809  0.2457
 4121TIP3    H133778   4.852   5.882   4.852 -0.8193 -0.6440  0.7638
 4121TIP3    H233779   4.756   5.796   4.772  1.0435 -1.7256 -0.3360
 4122TIP3   OH233780   6.192   0.776  11.692 -0.2404  0.6732  0.4672
 4122TIP3    H133781   6.184   0.863  11.730  0.7464  1.4360 -1.0590
 4122TIP3    H233782   6.195   0.717  11.768 -1.2771  1.9098  1.4933
 4123TIP3   OH233783   4.279   5.486  16.869  0.4674  0.3850 -0.0050
 4123TIP3    H133784   4.187   5.459  16.868 -0.5092  3.5686  0.5028
 4123TIP3    H233785   4.302   5.488  16.962  0.6628  0.9401 -0.0685
 4124TIP3   OH233786   5.230   3.995   3.246  0.4703  0.3232 -0.7315
 4124TIP3    H133787   5.170   4.065   3.223 -0.2121  0.2719  0.8169
 4124TIP3    H233788   5.317   4.029   3.226  0.1346  1.5747 -0.0714
 4125TIP3   OH233789   3.280   5.098   5.949  0.0331  0.3706  0.2845
 4125TIP3    H133790   3.304   5.134   6.035 -2.5056  1.0486  0.7549
 4125TIP3    H233791   3.201   5.146   5.924 -0.1276 -0.8910 -1.7431
 4126TIP3   OH233792   0.220   6.311  14.940  0.4598  0.3084  0.0048
 4126TIP3    H133793   0.155   6.361  14.991 -2.0839 -3.4492  0.6380
 4126TIP3    H233794   0.301   6.318  14.990 -0.9277  0.2653  2.3137
 4127TIP3   OH233795   0.591   3.431  11.923 -0.1051 -0.3451 -0.0243
 4127TIP3    H133796   0.526   3.501  11.929 -0.7165 -0.8281 -0.9153
 4127TIP3    H233797   0.585   3.386  12.007  1.5180  1.7180  1.2588
 4128TIP3   OH233798   1.428   0.144   4.283 -0.7027  0.2046 -0.2275
 4128TIP3    H133799   1.382   0.098   4.353 -1.1669  0.8566 -0.0924
 4128TIP3    H233800   1.513   0.167   4.321 -1.4184  1.6361  0.5532
 4129TIP3   OH233801   3.782   3.450   4.002  0.2126  0.6370  0.0077
 4129TIP3    H133802   3.867   3.427   4.038 -0.0441  0.0662  0.2681
 4129TIP3    H233803   3.747   3.516   4.062 -0.0616 -0.0512  0.6164
 4130TIP3   OH233804   5.798   0.600  14.134 -0.2695  0.1298 -0.1185
 4130TIP3    H133805   5.771   0.575  14.223  0.2381 -1.1185 -0.3001
 4130TIP3    H233806   5.750   0.540  14.077  0.7368 -0.2410 -0.5869
 4131TIP3   OH233807   5.042   1.671  12.202 -0.0308 -0.2567  0.9618
 4131TIP3    H133808   4.955   1.631  12.201  0.4560 -1.3131  0.4093
 4131TIP3    H233809   5.030   1.754  12.248 -2.1631  1.5864 -2.7073
 4132TIP3   OH233810   3.200   3.086   1.598  0.3043 -0.1386 -0.2666
 4132TIP3    H133811   3.292   3.109   1.604  0.5081 -1.1501  0.5528
 4132TIP3    H233812   3.200   2.993   1.575 -0.5085  0.0571 -1.0832
 4133TIP3   OH233813   6.407   6.640  12.963 -0.2209 -0.4220 -0.2324
 4133TIP3    H133814   6.431   6.733  12.968  0.9997 -0.8409  3.1680
 4133TIP3    H233815   6.311   6.640  12.963 -0.2300  0.8712 -0.5252
 4134TIP3   OH233816   6.437   0.073  14.534  0.2707 -0.4413  0.2013
 4134TIP3    H133817   6.353   0.072  14.580  0.9601  0.1917  1.4811
 4134TIP3    H233818   6.418   0.032  14.449 -1.5818  0.7371  0.0148
 4135TIP3   OH233819   0.450   5.464   1.362  0.0317  0.0297 -0.1231
 4135TIP3    H133820   0.527   5.410   1.344  0.0773 -0.2402  0.8697
 4135TIP3    H233821   0.459   5.539   1.303  0.8066 -0.2434 -0.3565
 4136TIP3   OH233822   3.248   3.638  15.550 -0.0374  0.1977 -0.6971
 4136TIP3    H133823   3.175   3.599  15.597  0.0997  0.0984 -0.5656
 4136TIP3    H233824   3.326   3.600  15.591  0.1243  1.3135  0.0732
 4137TIP3   OH233825   3.031   6.167   5.442 -0.1928  0.2376 -0.7076
 4137TIP3    H133826   3.039   6.141   5.534  0.2880 -1.2275 -1.1483
 4137TIP3    H233827   2.945   6.136   5.415  0.4133 -1.0436 -1.2553
 4138TIP3   OH233828   0.372   5.112  10.547 -0.0429  0.0750  0.3837
 4138TIP3    H133829   0.404   5.182  10.490  0.6965  0.1234  0.8465
 4138TIP3    H233830   0.440   5.044  10.541 -0.6735 -0.5333  0.0650
 4139TIP3   OH233831   3.655   2.078   1.269  0.5659 -0.6532  0.6197
 4139TIP3    H133832   3.710   2.013   1.311  0.2611 -0.1973  1.7492
 4139TIP3    H233833   3.587   2.027   1.224  2.1702 -1.2306 -1.2035
 4140TIP3   OH233834   0.776   6.018  13.764  0.2204  0.2325  0.5645
 4140TIP3    H133835   0.727   6.098  13.780 -0.1952  0.2818 -0.8630
 4140TIP3    H233836   0.831   6.007  13.842 -0.5074  1.3122  1.2417
 4141TIP3   OH233837   2.464   2.475   6.754  0.4726 -0.0341 -0.1466
 4141TIP3    H133838   2.448   2.442   6.665  0.6007  0.0779 -0.2106
 4141TIP3    H233839   2.459   2.397   6.809 -1.0949  0.1081 -0.0636
 4142TIP3   OH233840   5.427   4.514  13.863 -0.2617 -0.2030 -0.2242
 4142TIP3    H133841   5.428   4.565  13.944  0.2315 -0.1190 -0.2812
 4142TIP3    H233842   5.338   4.525  13.829 -0.2177  0.4647 -0.1402
 4143TIP3   OH233843   1.753   5.134   2.283 -0.0303 -0.7444  0.3990
 4143TIP3    H133844   1.681   5.151   2.223  0.7385 -0.6838 -0.5060
 4143TIP3    H233845   1.710   5.118   2.367 -1.1018 -0.7932 -0.1494
 4144TIP3   OH233846   3.034   0.320  10.645 -0.2222 -0.2669 -0.4369
 4144TIP3    H133847   2.981   0.309  10.723  1.1664 -1.7632  0.3327
 4144TIP3    H233848   3.125   0.316  10.677  0.3831  2.2721 -1.6912
 4145TIP3   OH233849   6.528   4.170  14.427 -0.0137  0.0420 -0.6375
 4145TIP3    H133850   6.486   4.133  14.505 -0.1262  0.2845 -0.5841
 4145TIP3    H233851   6.501   4.112  14.356 -0.5899  0.3023 -0.6326
 4146TIP3   OH233852   4.873   0.987   1.940  0.1562  0.2746  0.6250
 4146TIP3    H133853   4.832   0.916   1.892 -0.0611  0.6195  0.2957
 4146TIP3    H233854   4.827   1.066   1.911  1.6860  0.7904 -0.4913
 4147TIP3   OH233855   2.782   5.383  13.199  0.4645 -0.0939 -0.2753
 4147TIP3    H133856   2.825   5.415  13.278  1.0381  0.3850 -0.7687
 4147TIP3    H233857   2.852   5.343  13.148  0.7405  2.4307 -1.9692
 4148TIP3   OH233858   0.987   6.197  15.875  0.0330 -0.8420 -0.1882
 4148TIP3    H133859   0.938   6.167  15.799 -0.6433  2.0368 -0.9510
 4148TIP3    H233860   1.057   6.252  15.839 -1.0081  1.5328  1.2681
 4149TIP3   OH233861   1.977   6.200  14.593  0.5609 -0.0594  0.4936
 4149TIP3    H133862   1.983   6.291  14.624  0.6576  1.0894 -2.7134
 4149TIP3    H233863   1.927   6.155  14.662  1.4184  2.1431  2.6562
 4150TIP3   OH233864   1.476   0.816  16.145 -0.1120  0.0613 -0.4194
 4150TIP3    H133865   1.387   0.781  16.149 -0.3264  0.6194 -0.1753
 4150TIP3    H233866   1.517   0.785  16.225  0.1420 -0.7994 -0.8826
 4151TIP3   OH233867   1.622   5.430  16.096 -0.0064  0.3529  0.3815
 4151TIP3    H133868   1.568   5.475  16.161 -1.1430  1.0860 -1.0438
 4151TIP3    H233869   1.676   5.499  16.057  0.8343 -0.1214  0.6880
 4152TIP3   OH233870   3.280   1.817   3.208  0.1362 -0.0835  0.4984
 4152TIP3    H133871   3.225   1.887   3.171  3.4408  0.2841 -4.2137
 4152TIP3    H233872   3.241   1.736   3.175 -1.3037 -0.2477  2.5559
 4153TIP3   OH233873   0.729   1.336  14.151  0.4791 -0.0736  0.2300
 4153TIP3    H133874   0.732   1.396  14.225 -2.4891 -0.1632  0.4902
 4153TIP3    H233875   0.688   1.387  14.081  0.7295 -0.8481 -0.4846
 4154TIP3   OH233876   3.253   2.678  15.341  0.1361 -0.2134  0.5687
 4154TIP3    H133877   3.285   2.601  15.387 -0.4125  0.4135  2.0136
 4154TIP3    H233878   3.301   2.751  15.381 -1.2602  0.4625  1.0239
 4155TIP3   OH233879   1.517   4.397  11.578 -0.6288 -0.8339 -0.6815
 4155TIP3    H133880   1.438   4.420  11.627 -0.9616 -0.6431 -1.2921
 4155TIP3    H233881   1.568   4.478  11.576  0.0276 -1.2095  0.5243
 4156TIP3   OH233882   3.196   1.421   3.763  0.4569  0.2989 -0.3173
 4156TIP3    H133883   3.174   1.343   3.815 -1.1839  0.2064 -1.1378
 4156TIP3    H233884   3.279   1.399   3.721 -0.3846 -1.3460 -1.1750
 4157TIP3   OH233885   6.341   5.756   4.172 -0.1250  0.0000  0.3876
 4157TIP3    H133886   6.331   5.820   4.101 -1.1292 -0.1623  0.3831
 4157TIP3    H233887   6.330   5.671   4.130  3.3952 -0.3466 -0.0353
 4158TIP3   OH233888   4.322   5.326   6.278  0.5056  0.0821 -0.6338
 4158TIP3    H133889   4.285   5.386   6.342  0.1448 -0.3378 -0.4521
 4158TIP3    H233890   4.348   5.249   6.328  1.2410  0.2001 -0.8216
 4159TIP3   OH233891   4.952   4.622  10.641 -0.7232  0.5460 -0.1750
 4159TIP3    H133892   4.891   4.649  10.709 -0.1963  1.2318  0.0334
 4159TIP3    H233893   4.896   4.599  10.566 -1.3345 -0.8007  0.6802
 4160TIP3   OH233894   4.502   6.513   4.111  0.1363  0.4605  0.1389
 4160TIP3    H133895   4.427   6.559   4.074 -0.7942 -0.6025  0.6805
 4160TIP3    H233896   4.484   6.509   4.205  1.5882  1.4902  0.4946
 4161TIP3   OH233897   3.175   2.888  16.479 -0.4586 -0.6925  0.3604
 4161TIP3    H133898   3.245   2.824  16.460  1.2237  1.1135  0.3084
 4161TIP3    H233899   3.146   2.918  16.393  0.2993  0.2372  0.4236
 4162TIP3   OH233900   2.518   1.120   6.391 -0.6675 -0.8918 -0.4614
 4162TIP3    H133901   2.609   1.100   6.370 -0.8411 -0.9465 -1.1505
 4162TIP3    H233902   2.515   1.216   6.395 -0.3461 -0.9173  0.6141
 4163TIP3   OH233903   0.202   1.070  14.938  0.2356  0.4778 -0.2247
 4163TIP3    H133904   0.126   1.021  14.908 -1.3248  0.9669  2.7726
 4163TIP3    H233905   0.256   1.006  14.984 -0.2255  0.9091  0.9194
 4164TIP3   OH233906   1.406   0.575   1.614  0.7274 -0.4875  0.4481
 4164TIP3    H133907   1.486   0.556   1.664 -0.4490 -2.7838  1.5611
 4164TIP3    H233908   1.338   0.524   1.659 -1.2515  0.9795 -0.8227
 4165TIP3   OH233909   1.663   3.548  14.062  0.2764 -0.5783 -0.4495
 4165TIP3    H133910   1.651   3.467  14.011  0.1915 -0.5715 -0.4405
 4165TIP3    H233911   1.737   3.529  14.120  0.9561 -0.2697 -1.2065
 4166TIP3   OH233912   5.358   5.149   3.736  0.6723  0.2206  0.0837
 4166TIP3    H133913   5.428   5.152   3.672 -2.0298  0.2499 -2.9938
 4166TIP3    H233914   5.326   5.239   3.743 -1.1748 -0.3125 -1.0381
 4167TIP3   OH233915   1.444   0.367   5.014  0.4883 -0.9262 -0.0510
 4167TIP3    H133916   1.464   0.281   5.051  1.1619 -1.1763 -1.0015
 4167TIP3    H233917   1.408   0.349   4.928  0.3588 -0.2692 -0.1369
 4168TIP3   OH233918   2.480   4.014  16.457  0.8038 -0.0350 -0.7357
 4168TIP3    H133919   2.432   4.092  16.486  1.6326  0.0617  0.4496
 4168TIP3    H233920   2.570   4.044  16.446  0.8000 -0.4528 -1.9001
 4169TIP3   OH233921   4.097   5.298   0.028 -0.0864 -0.1028  0.6709
 4169TIP3    H133922   4.023   5.237   0.022  0.5305 -0.9390  1.4366
 4169TIP3    H233923   4.172   5.249  -0.006  0.0382  0.8804 -0.4841
 4170TIP3   OH233924   4.621   4.285   4.620 -0.1370 -0.4868  0.1635
 4170TIP3    H133925   4.581   4.262   4.537  0.1760 -0.7198  0.0766
 4170TIP3    H233926   4.691   4.346   4.598 -1.3544  1.0417  0.4494
 4171TIP3   OH233927   2.882   2.321  14.634 -0.2979  0.0872 -0.0270
 4171TIP3    H133928   2.843   2.336  14.720 -0.4404  0.2799 -0.1235
 4171TIP3    H233929   2.862   2.401  14.585 -0.3821 -0.1031 -0.3006
 4172TIP3   OH233930   3.970   1.926  13.038 -0.7116 -0.0160 -0.1667
 4172TIP3    H133931   4.016   1.863  12.983  0.7728  1.0956 -0.2485
 4172TIP3    H233932   3.989   2.011  12.998  0.4718  0.8131  2.0685
 4173TIP3   OH233933   1.956   5.525   0.166  0.0975 -0.6404 -0.3261
 4173TIP3    H133934   1.981   5.545   0.256 -1.8657 -0.2586  0.1586
 4173TIP3    H233935   2.035   5.487   0.127  0.6097 -1.9804  1.9160
 4174TIP3   OH233936   3.486   0.079  11.027  0.2308 -0.5505 -0.7853
 4174TIP3    H133937   3.466   0.080  10.933  0.6694  2.4317 -0.9159
 4174TIP3    H233938   3.437   0.154  11.062  0.2443 -1.5101  1.3397
 4175TIP3   OH233939   0.695   0.965   4.480  0.1292 -0.3173 -0.2532
 4175TIP3    H133940   0.775   1.009   4.509  0.1664 -0.2883 -0.4004
 4175TIP3    H233941   0.725   0.897   4.419 -0.2512  2.4177 -3.6490
 4176TIP3   OH233942   0.973   1.782  13.705  0.7696  0.1131 -0.2319
 4176TIP3    H133943   0.893   1.827  13.676  2.2288  1.5662 -2.1526
 4176TIP3    H233944   1.012   1.748  13.624  1.2866 -1.9917  0.8745
 4177TIP3   OH233945   3.479   6.182   5.359 -0.2533  0.3223  0.5810
 4177TIP3    H133946   3.445   6.269   5.377 -0.3824 -0.2059  3.0344
 4177TIP3    H233947   3.574   6.194   5.350 -0.2617  0.7096  0.9870
 4178TIP3   OH233948   1.160   3.765  17.174 -0.5236 -0.0916  0.3536
 4178TIP3    H133949   1.167   3.707  17.099 -0.9111 -1.7411  1.5611
 4178TIP3    H233950   1.079   3.738  17.218  0.0153  0.4353  1.7006
 4179TIP3   OH233951   5.563   2.407   4.913  0.6088 -0.0914  0.2215
 4179TIP3    H133952   5.597   2.327   4.953  1.4401 -0.4495 -1.1557
 4179TIP3    H233953   5.628   2.474   4.934  1.4864 -0.4641 -1.1919
 4180TIP3   OH233954   4.702   0.244   4.386 -1.0072  0.4290 -0.3405
 4180TIP3    H133955   4.736   0.186   4.454  0.8497  0.4926 -1.1892
 4180TIP3    H233956   4.704   0.331   4.426 -2.5002  0.1020  0.4608
 4181TIP3   OH233957   5.214   4.341  12.528 -0.2331  0.1784  0.0106
 4181TIP3    H133958   5.123   4.349  12.558 -0.5403 -1.6876 -0.3433
 4181TIP3    H233959   5.267   4.370  12.602 -1.0491 -1.9034  1.4779
 4182TIP3   OH233960   0.004   4.157  14.620 -0.9083 -0.1349  0.5086
 4182TIP3    H133961  -0.045   4.087  14.661 -1.5867  1.0304  1.7270
 4182TIP3    H233962  -0.062   4.223  14.598 -0.0930  0.7650  0.7295
 4183TIP3   OH233963   1.947   5.911   0.637 -0.4131  0.0095  0.2172
 4183TIP3    H133964   1.859   5.948   0.628 -0.7592 -0.7076  0.6531
 4183TIP3    H233965   1.968   5.924   0.730  0.4076  1.2275 -0.1298
 4184TIP3   OH233966   0.313   1.560   3.488 -0.1191  0.0515 -0.0454
 4184TIP3    H133967   0.387   1.526   3.438 -0.4119 -0.8024  0.1038
 4184TIP3    H233968   0.293   1.644   3.446  1.0549  0.3863  0.0440
 4185TIP3   OH233969   1.143   4.044  13.506 -0.9610  0.0632  0.6498
 4185TIP3    H133970   1.086   4.068  13.579 -0.2772 -1.8930  1.8885
 4185TIP3    H233971   1.165   3.952  13.523  2.1483  0.6131 -0.0587
 4186TIP3   OH233972   2.797   0.594   0.481 -0.3546  0.2058  0.3705
 4186TIP3    H133973   2.819   0.537   0.555 -0.0743 -1.0379 -0.6449
 4186TIP3    H233974   2.775   0.533   0.410 -1.1234  1.3882 -0.4179
 4187TIP3   OH233975   1.892   2.019   4.203 -0.3986  0.3743  0.0377
 4187TIP3    H133976   1.980   2.027   4.240 -0.7514 -0.7173  1.1652
 4187TIP3    H233977   1.886   1.926   4.179 -0.7920  0.7239 -1.1818
 4188TIP3   OH233978   6.118   3.779   5.876 -0.5417  0.0214 -0.4318
 4188TIP3    H133979   6.087   3.774   5.967  0.1655  1.3083 -0.1101
 4188TIP3    H233980   6.070   3.710   5.831 -2.6741  0.9088  0.4041
 4189TIP3   OH233981   2.812   4.695  13.264 -0.6933  0.8275 -0.1606
 4189TIP3    H133982   2.806   4.662  13.174  0.2050 -0.6943  0.3305
 4189TIP3    H233983   2.901   4.728  13.272 -0.9209  1.3965  0.0261
 4190TIP3   OH233984   0.347   1.962  10.608  0.4872  0.5020 -0.5039
 4190TIP3    H133985   0.278   1.903  10.577  1.0399 -0.8719  0.8150
 4190TIP3    H233986   0.416   1.903  10.639  1.5520  1.8642 -0.2601
 4191TIP3   OH233987   3.554   1.184  11.761 -0.1646  0.7077  0.1147
 4191TIP3    H133988   3.512   1.265  11.735 -2.1508 -0.5944 -0.8405
 4191TIP3    H233989   3.632   1.179  11.705 -0.8904  1.1829 -0.9645
 4192TIP3   OH233990   0.034   2.989  11.765  0.3543  0.2951  0.2348
 4192TIP3    H133991  -0.031   3.034  11.711  1.0756 -0.3051 -1.1492
 4192TIP3    H233992  -0.007   2.983  11.851  0.5319  4.3124  0.7204
 4193TIP3   OH233993   4.555   1.569  14.826  0.1267  0.2070 -0.0386
 4193TIP3    H133994   4.542   1.520  14.745  0.6300  0.8431 -0.5002
 4193TIP3    H233995   4.533   1.659  14.804  1.1054  0.5334  0.3023
 4194TIP3   OH233996   2.270   3.215  12.550  0.1661 -0.3339  0.0479
 4194TIP3    H133997   2.179   3.205  12.522 -0.2267 -0.6295  1.3793
 4194TIP3    H233998   2.267   3.199  12.645  1.0883  2.8264  0.6506
 4195TIP3   OH233999   4.043   6.135  16.599 -0.5063 -0.7370  0.4173
 4195TIP3    H134000   4.051   6.211  16.658  1.3130 -1.0586  0.6167
 4195TIP3    H234001   3.995   6.169  16.524  0.0048  0.5543  0.6487
 4196TIP3   OH234002   5.765   3.206  14.323  0.6647  0.5564 -0.1992
 4196TIP3    H134003   5.836   3.218  14.387  0.5468 -0.3807  0.1223
 4196TIP3    H234004   5.727   3.121  14.346 -0.6818  1.1320 -0.2515
 4197TIP3   OH234005   0.147   6.624  15.606  0.0769 -0.5073 -0.1724
 4197TIP3    H134006   0.168   6.700  15.552 -0.4217 -0.9958 -1.0709
 4197TIP3    H234007   0.139   6.658  15.695  0.4981  0.3722 -0.4700
 4198TIP3   OH234008   2.726   2.357  12.269  0.5614  0.2369  0.5874
 4198TIP3    H134009   2.820   2.346  12.258  0.6227  1.8682 -0.5849
 4198TIP3    H234010   2.702   2.428  12.209 -1.4068 -0.1368  0.8821
 4199TIP3   OH234011   2.964   0.250  11.649 -0.3170  0.0172 -0.4050
 4199TIP3    H134012   2.918   0.315  11.596  0.9277  0.8486 -0.4835
 4199TIP3    H234013   3.003   0.190  11.586  2.3947  1.8394 -0.5358
 4200TIP3   OH234014   2.594   4.368   1.171 -0.4546  0.3213 -0.1853
 4200TIP3    H134015   2.652   4.292   1.172 -0.5103  0.2768 -0.4376
 4200TIP3    H234016   2.614   4.414   1.253 -0.2152  0.1932 -0.1708
 4201TIP3   OH234017   2.274   2.501  13.809  0.5866 -0.1592 -0.4289
 4201TIP3    H134018   2.199   2.445  13.827 -0.5528  1.2316 -0.7068
 4201TIP3    H234019   2.293   2.543  13.893  0.4037  0.2392 -0.5837
 4202TIP3   OH234020   1.779   0.476   0.876  0.1623  0.1014  0.1579
 4202TIP3    H134021   1.719   0.433   0.937 -0.7474 -0.6544 -1.2428
 4202TIP3    H234022   1.760   0.569   0.886 -1.2194 -0.1240 -0.2344
 4203TIP3   OH234023   1.838   0.550   0.279 -0.3774  0.7020 -0.1309
 4203TIP3    H134024   1.817   0.600   0.358 -1.3565  1.9737 -1.1632
 4203TIP3    H234025   1.929   0.573   0.260 -0.0212  0.0988  0.8334
 4204TIP3   OH234026   1.117   2.070  16.999  0.0946  0.2667  0.3055
 4204TIP3    H134027   1.024   2.068  17.021 -0.6772  1.2701 -2.6453
 4204TIP3    H234028   1.151   2.145  17.047 -0.4684 -0.5097  1.9383
 4205TIP3   OH234029   0.264   4.508  11.534  0.2916 -0.0289  0.9441
 4205TIP3    H134030   0.224   4.595  11.536 -1.7896 -0.9343 -0.3432
 4205TIP3    H234031   0.215   4.460  11.467  2.5271 -1.6682  0.4217
 4206TIP3   OH234032   5.787   0.539   2.475  0.6958 -0.4334  0.0986
 4206TIP3    H134033   5.748   0.521   2.560 -2.5404  1.4999 -0.8975
 4206TIP3    H234034   5.807   0.632   2.477  0.2061 -0.2793 -1.3865
 4207TIP3   OH234035   2.220   1.273   5.682  0.5106 -0.0551 -0.0214
 4207TIP3    H134036   2.174   1.193   5.657  0.1562  0.4816 -1.0992
 4207TIP3    H234037   2.166   1.344   5.646 -0.1094  0.7576  2.3804
 4208TIP3   OH234038   0.726   5.314  13.995  0.3595  0.0449 -0.1116
 4208TIP3    H134039   0.785   5.280  14.062  1.3083  2.5230  0.3879
 4208TIP3    H234040   0.779   5.319  13.916  0.1045 -0.0827 -0.2901
 4209TIP3   OH234041   5.410   0.679  14.268 -0.5381 -0.4169 -0.0183
 4209TIP3    H134042   5.434   0.664  14.359  2.0164  0.2005 -0.5472
 4209TIP3    H234043   5.391   0.592  14.233 -2.9316 -0.5153  1.4424
 4210TIP3   OH234044   6.327   3.167  11.206 -0.1726 -0.0975 -0.4820
 4210TIP3    H134045   6.261   3.195  11.142  1.0184 -0.6654 -1.9863
 4210TIP3    H234046   6.298   3.080  11.234 -2.2666  1.3198  1.9708
 4211TIP3   OH234047   0.148   1.819  10.510 -0.2162 -0.5360  0.1317
 4211TIP3    H134048   0.103   1.740  10.478 -0.1010 -0.0794 -1.1818
 4211TIP3    H234049   0.169   1.868  10.430  1.7218 -0.2587  0.7890
 4212TIP3   OH234050   5.472   0.679   1.961  0.2277 -0.4207  0.2351
 4212TIP3    H134051   5.446   0.655   2.050  2.8261  0.9688  1.4147
 4212TIP3    H234052   5.536   0.749   1.972 -0.1469  0.4957 -2.7861
 4213TIP3   OH234053   6.393   1.734   0.776  0.5302 -0.2558 -0.3761
 4213TIP3    H134054   6.453   1.662   0.756 -0.6734 -0.9018 -1.6760
 4213TIP3    H234055   6.330   1.734   0.705 -0.0801  1.4575  0.1380
 4214TIP3   OH234056   2.468   3.348  14.041  0.2816  0.1118 -1.1190
 4214TIP3    H134057   2.382   3.388  14.027  2.1245  4.3056 -0.9464
 4214TIP3    H234058   2.500   3.329  13.953  0.2835  0.9142 -1.2882
 4215TIP3   OH234059   3.344   2.274  11.922 -0.0993 -0.7561 -0.7680
 4215TIP3    H134060   3.414   2.248  11.861  1.1914  1.0835 -0.1059
 4215TIP3    H234061   3.384   2.265  12.009  0.2942  3.0191 -0.4959
 4216TIP3   OH234062   0.511   1.864   1.418  0.3178 -0.5927  0.0450
 4216TIP3    H134063   0.529   1.951   1.455  1.0792  0.2806 -2.2628
 4216TIP3    H234064   0.434   1.876   1.363 -1.0507 -1.9639  1.6079
 4217TIP3   OH234065   2.976   5.151   6.172  0.3157  0.1078 -0.2183
 4217TIP3    H134066   3.032   5.101   6.232 -1.1507 -0.6421  0.5378
 4217TIP3    H234067   2.946   5.087   6.108 -0.3470  0.3269 -0.1277
 4218TIP3   OH234068   4.120   1.935   2.641  0.1434  0.0778  0.3372
 4218TIP3    H134069   4.128   2.020   2.684  1.0296 -0.2849  0.9102
 4218TIP3    H234070   4.027   1.912   2.651  0.1079  0.5129  1.0753
 4219TIP3   OH234071   5.165   3.235   5.971 -0.4635  0.4240 -0.8114
 4219TIP3    H134072   5.215   3.202   5.896  1.9203  1.4612  0.2640
 4219TIP3    H234073   5.231   3.250   6.038 -1.9552  3.7054  0.0174
 4220TIP3   OH234074   0.097   1.641  14.697  0.2024  0.0711 -0.4477
 4220TIP3    H134075   0.180   1.679  14.666 -0.5318  1.3647 -0.8700
 4220TIP3    H234076   0.031   1.706  14.672 -0.6223  0.3235  2.3212
 4221TIP3   OH234077   5.444   4.143  16.011 -0.6047  0.0681  0.3039
 4221TIP3    H134078   5.525   4.192  16.023 -1.6486  1.5029  1.6933
 4221TIP3    H234079   5.407   4.178  15.930 -0.0325 -0.3149 -0.1257
 4222TIP3   OH234080   4.222   6.127   2.223  0.2248 -0.1975  0.0091
 4222TIP3    H134081   4.224   6.127   2.128 -1.4490 -5.4406 -0.1922
 4222TIP3    H234082   4.171   6.204   2.247  1.1292  1.4820 -3.2596
 4223TIP3   OH234083   0.128   2.075   1.934 -0.3187 -0.4397 -0.3936
 4223TIP3    H134084   0.067   2.005   1.912 -0.1385 -0.4129 -0.9790
 4223TIP3    H234085   0.211   2.047   1.897 -0.4764  0.5696 -1.5454
 4224TIP3   OH234086   6.030   2.976   2.853  0.4040 -0.1341 -0.2125
 4224TIP3    H134087   6.065   3.065   2.848  0.3779 -0.1830 -1.6698
 4224TIP3    H234088   5.935   2.988   2.845  0.3153 -0.2207  0.6688
 4225TIP3   OH234089   2.364   6.316   5.979  0.2274 -0.3158  0.1164
 4225TIP3    H134090   2.275   6.283   5.991 -0.8641  2.2739 -0.3600
 4225TIP3    H234091   2.367   6.396   6.032  2.1752 -0.2185 -0.1126
 4226TIP3   OH234092   2.829   4.433  12.156 -0.7154 -0.0394  0.0615
 4226TIP3    H134093   2.791   4.483  12.084  2.2437 -1.3660 -2.5744
 4226TIP3    H234094   2.904   4.485  12.184  0.1686 -1.1757 -0.1648
 4227TIP3   OH234095   4.273   3.992   5.572 -0.7063 -0.3343 -0.1195
 4227TIP3    H134096   4.279   4.086   5.558  3.5210 -0.1448  1.8272
 4227TIP3    H234097   4.248   3.983   5.664  0.1124 -1.0353  0.0499
 4228TIP3   OH234098   2.148   0.556  17.090  0.3146  0.0444  0.5424
 4228TIP3    H134099   2.188   0.583  17.173  0.2957 -2.9454  1.5647
 4228TIP3    H234100   2.061   0.523  17.114 -0.1788  0.2700 -0.8385
 4229TIP3   OH234101   1.856   4.543  12.042 -0.1126  0.3621  0.5554
 4229TIP3    H134102   1.861   4.638  12.052  0.8724  0.3290  0.3485
 4229TIP3    H234103   1.938   4.510  12.079  0.5834 -0.2359 -1.4772
 4230TIP3   OH234104   2.553   3.802   5.895 -0.4207 -0.3938 -0.1368
 4230TIP3    H134105   2.593   3.716   5.909 -1.8577 -0.8524  1.3220
 4230TIP3    H234106   2.602   3.861   5.952 -1.3923 -0.8389  1.1820
 4231TIP3   OH234107   6.413   0.829  13.970  0.7250 -0.3789  0.4908
 4231TIP3    H134108   6.410   0.805  13.877 -1.1878  1.4722  0.0414
 4231TIP3    H234109   6.321   0.836  13.996  1.2247  2.1011  1.7282
 4232TIP3   OH234110   3.580   6.481  13.409 -0.5862 -0.0191  0.3687
 4232TIP3    H134111   3.556   6.397  13.449  0.1401 -0.2337  0.3521
 4232TIP3    H234112   3.625   6.529  13.478  0.5783 -0.3470 -0.1478
 4233TIP3   OH234113   0.698   4.914  14.116  0.1117 -0.2369  0.1345
 4233TIP3    H134114   0.680   4.964  14.196 -0.0160 -0.5418  0.2976
 4233TIP3    H234115   0.776   4.863  14.136  0.8378  0.6659 -0.3860
 4234TIP3   OH234116   3.305   2.005   0.011  0.1352 -0.0221  0.3443
 4234TIP3    H134117   3.264   1.941  -0.046  0.8827 -0.1200 -0.0854
 4234TIP3    H234118   3.239   2.075   0.020  1.1435  1.4666 -3.1035
 4235TIP3   OH234119   3.264   3.982   2.320  0.1143 -0.3244  0.6408
 4235TIP3    H134120   3.202   3.942   2.259 -1.8304  0.0714  2.2920
 4235TIP3    H234121   3.322   3.910   2.345 -1.0249 -1.2445  0.7023
 4236TIP3   OH234122   2.520   1.154  12.970 -0.0890 -0.2636  0.1952
 4236TIP3    H134123   2.425   1.166  12.962 -0.1690 -1.0755 -0.1179
 4236TIP3    H234124   2.549   1.229  13.023 -1.0053 -0.4296  0.9467
 4237TIP3   OH234125   5.200   1.663   4.846  0.4098  0.0343 -0.1938
 4237TIP3    H134126   5.178   1.635   4.757 -0.4979  0.5795 -0.1416
 4237TIP3    H234127   5.181   1.756   4.847  1.0004  0.1529  0.3986
 4238TIP3   OH234128   5.662   2.228   2.914  0.4206 -0.5547  0.0782
 4238TIP3    H134129   5.659   2.133   2.907 -1.2422 -0.3863 -2.0868
 4238TIP3    H234130   5.732   2.254   2.854 -0.9797 -0.2986 -1.5163
 4239TIP3   OH234131   1.290   1.633   5.832  0.0626 -0.8663 -0.0512
 4239TIP3    H134132   1.383   1.609   5.830  1.3715  3.8127 -0.0489
 4239TIP3    H234133   1.274   1.656   5.923 -0.3347  1.0841 -0.6095
 4240TIP3   OH234134   2.982   6.444   4.906 -0.4411 -0.0971  0.3215
 4240TIP3    H134135   2.892   6.473   4.891 -0.6249 -0.5109  0.6025
 4240TIP3    H234136   3.024   6.449   4.821 -1.4644 -2.4184 -0.3766
 4241TIP3   OH234137   1.568   3.868  12.884 -0.3123 -0.6626  0.2372
 4241TIP3    H134138   1.520   3.927  12.942  0.0747 -0.5492  0.4429
 4241TIP3    H234139   1.625   3.926  12.833 -0.0363 -0.8412  0.3397
 4242TIP3   OH234140   5.622   4.879  11.718  0.4142 -0.5455 -0.1809
 4242TIP3    H134141   5.564   4.824  11.771  0.2159  0.2349  0.4143
 4242TIP3    H234142   5.575   4.961  11.708  0.7931 -0.4169 -0.9226
 4243TIP3   OH234143   5.145   3.015  13.769  0.6121  0.4143 -0.2051
 4243TIP3    H134144   5.183   3.053  13.690  0.0405  1.1085 -0.1476
 4243TIP3    H234145   5.221   2.984  13.819  1.2255  2.7407  0.4015
 4244TIP3   OH234146   5.001   4.113   3.839 -0.5589  0.1390 -0.2081
 4244TIP3    H134147   4.917   4.143   3.805 -0.9464 -0.0555  0.5600
 4244TIP3    H234148   5.000   4.018   3.826  0.3834  0.3665 -2.0240
 4245TIP3   OH234149   0.416   5.939  15.189  0.3219 -0.1474 -0.6696
 4245TIP3    H134150   0.389   5.857  15.230 -1.5212  0.7453 -0.0698
 4245TIP3    H234151   0.398   5.925  15.095 -2.2314  0.3796 -0.3065
 4246TIP3   OH234152   5.752   5.837   1.383 -0.0078 -0.6117 -0.2396
 4246TIP3    H134153   5.716   5.877   1.304  1.0166  2.5100  0.7979
 4246TIP3    H234154   5.843   5.816   1.360  0.5620  1.1315  0.3529
 4247TIP3   OH234155   3.260   4.070  14.317  0.8233 -0.1785  0.8956
 4247TIP3    H134156   3.173   4.083  14.278  0.5984 -0.4287  1.3074
 4247TIP3    H234157   3.286   4.157  14.347  0.7080 -0.1052  0.7818
 4248TIP3   OH234158   2.936   6.624   3.838  0.2508 -0.4681 -0.3488
 4248TIP3    H134159   2.942   6.561   3.909 -0.3704 -0.3558 -0.1961
 4248TIP3    H234160   2.950   6.572   3.759 -0.5761 -0.8488 -0.2421
 4249TIP3   OH234161   4.294   5.812   3.817  0.3637  0.0906  0.2254
 4249TIP3    H134162   4.341   5.895   3.808 -0.8044  0.8604  1.0930
 4249TIP3    H234163   4.357   5.752   3.856  1.5693  0.2503 -1.4354
 4250TIP3   OH234164   5.182   4.541   2.436  0.0338 -0.4404  0.0680
 4250TIP3    H134165   5.259   4.592   2.412 -0.2936  0.0167 -0.0182
 4250TIP3    H234166   5.110   4.603   2.432 -0.0276 -0.3473  2.2315
 4251TIP3   OH234167   1.969   2.727   1.454 -0.3274  0.0507 -0.0285
 4251TIP3    H134168   2.038   2.664   1.475  0.0328  0.2341 -0.6331
 4251TIP3    H234169   1.947   2.768   1.537 -0.3169 -0.6270  0.3095
 4252TIP3   OH234170   5.173   5.158   1.717 -0.0110 -0.3382  0.0868
 4252TIP3    H134171   5.260   5.189   1.691 -0.2257  0.3343  0.1548
 4252TIP3    H234172   5.191   5.082   1.772  0.6196  0.8660  1.6073
 4253TIP3   OH234173   6.779   2.908   4.749 -0.4572 -0.3774  0.2150
 4253TIP3    H134174   6.807   2.820   4.723 -1.3633 -0.1097 -1.7332
 4253TIP3    H234175   6.686   2.899   4.771 -0.6597  0.1566 -0.3884
 4254TIP3   OH234176   4.049   1.290  12.731  0.0957 -0.1091  0.1251
 4254TIP3    H134177   3.972   1.239  12.755  0.3936 -1.3767 -1.5368
 4254TIP3    H234178   4.061   1.351  12.804 -3.8431  1.7278 -0.5826
 4255TIP3   OH234179   0.790   5.180   4.516 -0.6941 -0.6837  0.9477
 4255TIP3    H134180   0.800   5.089   4.487  0.7693 -0.2106 -0.1361
 4255TIP3    H234181   0.868   5.224   4.482 -0.7303  0.6979  2.5978
 4256TIP3   OH234182   3.194   6.348   2.247  0.2207 -0.4844  0.2369
 4256TIP3    H134183   3.187   6.423   2.188 -0.8180 -0.0884  0.8497
 4256TIP3    H234184   3.132   6.367   2.318  1.2812 -1.0737  1.3301
 4257TIP3   OH234185   3.964   2.503  14.307 -0.2506  0.8951  0.4505
 4257TIP3    H134186   3.976   2.463  14.220  1.2245  0.6357  0.7546
 4257TIP3    H234187   4.050   2.540  14.328 -0.7287  1.3644  1.5957
 4258TIP3   OH234188   3.571   2.356  15.286 -0.0055  0.1276  0.0811
 4258TIP3    H134189   3.570   2.421  15.215  0.9579 -0.6397 -0.6520
 4258TIP3    H234190   3.635   2.390  15.348  0.0616  0.1718 -0.0113
 4259TIP3   OH234191   6.546   4.525  11.646 -0.4061  0.0114  0.0843
 4259TIP3    H134192   6.500   4.604  11.674 -0.1313  0.1131  0.2621
 4259TIP3    H234193   6.636   4.555  11.631 -0.1976 -0.3556  0.5859
 4260TIP3   OH234194   3.104   6.644   0.260 -0.4449 -0.8594  0.2623
 4260TIP3    H134195   3.044   6.676   0.328  0.1442  0.9877 -0.0467
 4260TIP3    H234196   3.161   6.582   0.306 -1.1429 -0.9180  1.0646
 4261TIP3   OH234197   4.549   1.099  11.754  0.3448  0.3987  0.2620
 4261TIP3    H134198   4.511   1.160  11.817 -0.5324  1.3677 -1.1846
 4261TIP3    H234199   4.580   1.154  11.682  0.3209 -0.7749 -0.6701
 4262TIP3   OH234200   0.860   4.249  16.316 -0.5909  0.3818  0.1482
 4262TIP3    H134201   0.782   4.199  16.341  0.0104  0.0964  1.5073
 4262TIP3    H234202   0.833   4.341  16.322 -1.1383  0.2658 -0.4848
 4263TIP3   OH234203   0.585   6.561  11.842  0.2841  0.0320  0.2531
 4263TIP3    H134204   0.648   6.526  11.779 -0.9662 -1.2694 -0.2991
 4263TIP3    H234205   0.561   6.647  11.806  0.6149 -0.1096 -0.3202
 4264TIP3   OH234206   3.385   0.840  15.950  0.0262 -0.0502 -0.1075
 4264TIP3    H134207   3.424   0.894  15.881  1.2178 -0.7620 -0.0028
 4264TIP3    H234208   3.397   0.892  16.029 -1.7097  0.9510 -0.4812
 4265TIP3   OH234209   2.023   3.697  15.659 -0.0379 -0.2054 -0.6000
 4265TIP3    H134210   2.094   3.675  15.599  1.7260  1.5294  0.8073
 4265TIP3    H234211   1.966   3.620  15.657  2.2181 -1.9186 -1.2430
 4266TIP3   OH234212   0.770   1.621   2.468 -0.0225 -0.2293 -0.2715
 4266TIP3    H134213   0.718   1.687   2.513  1.2012  0.7210 -0.2308
 4266TIP3    H234214   0.860   1.643   2.490  0.5010 -0.7236 -1.8697
 4267TIP3   OH234215   0.806   5.744  16.156  0.4374 -0.4165 -0.2573
 4267TIP3    H134216   0.848   5.696  16.228 -0.9791 -0.3120  0.6698
 4267TIP3    H234217   0.830   5.836  16.172 -2.1139 -0.0205  1.7389
 4268TIP3   OH234218   0.326   3.779   3.083  0.4363  0.4743 -0.2219
 4268TIP3    H134219   0.379   3.851   3.049  1.9638 -1.1223 -1.3620
 4268TIP3    H234220   0.332   3.711   3.015  2.2920 -2.2026  2.4422
 4269TIP3   OH234221   6.673   2.271  15.240  0.3023  0.2766 -0.6695
 4269TIP3    H134222   6.587   2.306  15.220  0.2542  0.3700 -0.2919
 4269TIP3    H234223   6.676   2.265  15.336  1.0148  1.0325 -0.6409
 4270TIP3   OH234224   2.504   1.787  12.044 -0.1418 -0.1272 -0.4117
 4270TIP3    H134225   2.421   1.773  11.997 -0.8101  1.4912  0.2670
 4270TIP3    H234226   2.500   1.878  12.073  0.6583 -0.8419  2.0318
 4271TIP3   OH234227   5.134   5.297   2.844  0.0622  0.2487 -0.5168
 4271TIP3    H134228   5.145   5.389   2.867  0.4668 -0.2384  1.3126
 4271TIP3    H234229   5.072   5.297   2.771  2.5938  2.2015 -2.7491
 4272TIP3   OH234230   6.009   5.587   4.153  0.1469 -0.4425  0.1989
 4272TIP3    H134231   6.052   5.673   4.144 -2.7693  1.2756  1.8110
 4272TIP3    H234232   5.989   5.561   4.064  2.3908 -0.1816 -0.4171
 4273TIP3   OH234233   5.224   5.521  15.500  0.5296 -0.2265 -0.1118
 4273TIP3    H134234   5.133   5.510  15.528 -0.2635 -0.4020 -2.6048
 4273TIP3    H234235   5.259   5.588  15.559  0.1408 -3.1911  3.6923
 4274TIP3   OH234236   2.043   1.574   2.847 -0.8644 -1.2210 -0.2549
 4274TIP3    H134237   2.084   1.544   2.928 -1.4965 -2.2740 -0.3113
 4274TIP3    H234238   2.064   1.667   2.842  0.5736 -1.4953  0.2828
 4275TIP3   OH234239   5.832   3.707  11.065 -0.7235 -0.0957 -0.0636
 4275TIP3    H134240   5.902   3.643  11.075  0.5032  1.4320  1.4933
 4275TIP3    H234241   5.766   3.682  11.129 -1.5337 -1.4131 -1.3862
 4276TIP3   OH234242   2.005   3.632  12.188  0.0996  0.0501 -0.1229
 4276TIP3    H134243   1.982   3.620  12.280  1.5068 -0.4953  0.1623
 4276TIP3    H234244   2.007   3.727  12.175 -0.6064  0.1219  0.2720
 4277TIP3   OH234245   4.839   6.752   2.516  0.3294 -0.4194 -0.0020
 4277TIP3    H134246   4.751   6.785   2.497 -0.3818 -2.5276 -0.4084
 4277TIP3    H234247   4.859   6.692   2.444  2.7842  1.2488 -0.7946
 4278TIP3   OH234248   4.310   5.855  13.962  0.0846 -0.2419 -0.2972
 4278TIP3    H134249   4.337   5.871  14.053  1.9815  0.8091 -1.0358
 4278TIP3    H234250   4.373   5.903  13.909 -0.2262 -1.9260 -2.2344
 4279TIP3   OH234251   5.678   4.598  12.439 -0.5613  0.0418  0.4788
 4279TIP3    H134252   5.616   4.589  12.366 -0.0650  0.2453  0.0302
 4279TIP3    H234253   5.716   4.511  12.449 -0.6231  0.0165  0.4936
 4280TIP3   OH234254   2.895   1.416  13.310  0.1766  0.3615 -0.3066
 4280TIP3    H134255   2.802   1.400  13.298 -0.0288  0.0409  1.6207
 4280TIP3    H234256   2.912   1.396  13.402  2.5325 -1.4244 -1.0700
 4281TIP3   OH234257   4.942   1.170   4.675  0.3952 -0.0106  0.5048
 4281TIP3    H134258   4.986   1.102   4.726 -1.7636 -1.3927  0.6033
 4281TIP3    H234259   4.849   1.161   4.699 -0.0318  2.4366 -0.1152
 4282TIP3   OH234260   5.521   5.931  16.957  0.5706  0.4483  0.3031
 4282TIP3    H134261   5.435   5.924  17.000  0.0822  0.2570 -0.6817
 4282TIP3    H234262   5.583   5.945  17.029  0.0033 -1.7058  1.2598
 4283TIP3   OH234263   3.620   0.476  17.067 -0.2387 -0.2171  0.0084
 4283TIP3    H134264   3.530   0.508  17.070 -0.7335 -1.7301  1.8790
 4283TIP3    H234265   3.652   0.504  16.981 -1.5446  2.8038  0.4517
 4284TIP3   OH234266   0.566   0.628  15.245  0.3508  0.0127 -0.0466
 4284TIP3    H134267   0.591   0.547  15.288 -0.3889 -0.4359 -0.4551
 4284TIP3    H234268   0.618   0.630  15.165 -0.7964 -0.8504 -0.8256
 4285TIP3   OH234269   1.427   2.876   3.969  0.3682  0.1806 -0.1105
 4285TIP3    H134270   1.496   2.941   3.983 -1.8796  2.2812  1.5647
 4285TIP3    H234271   1.450   2.834   3.886  2.6692  2.0629 -0.4675
 4286TIP3   OH234272   5.047   1.282  12.047  0.2577 -1.0528  0.4064
 4286TIP3    H134273   5.096   1.331  11.980 -0.6567  1.4927  1.5571
 4286TIP3    H234274   5.093   1.302  12.129 -0.1843 -2.0746  0.9065
 4287TIP3   OH234275   5.727   0.829   0.262  0.0119  0.0180  0.0801
 4287TIP3    H134276   5.670   0.884   0.208 -0.3965  0.1245  0.6197
 4287TIP3    H234277   5.788   0.790   0.199  1.6427  2.6755 -0.0612
 4288TIP3   OH234278   4.568   1.573   4.099  0.2766 -0.2369 -0.3426
 4288TIP3    H134279   4.632   1.502   4.090  0.5472  0.0682 -0.8713
 4288TIP3    H234280   4.488   1.538   4.060  0.9472  0.4337 -2.3516
 4289TIP3   OH234281   5.673   2.092   1.182 -0.3167  0.0208  0.5198
 4289TIP3    H134282   5.723   2.167   1.214  0.8015 -0.1228 -0.8770
 4289TIP3    H234283   5.583   2.110   1.208  0.3477  0.5804  2.5038
 4290TIP3   OH234284   4.124   1.841  10.920 -0.0912 -0.7073  0.3289
 4290TIP3    H134285   4.172   1.799  10.991  0.9156 -0.1927 -0.0496
 4290TIP3    H234286   4.191   1.880  10.865 -0.9041 -0.5572 -0.5678
 4291TIP3   OH234287   2.049   0.781  14.279  0.0368  0.0903  0.9553
 4291TIP3    H134288   2.122   0.830  14.318  0.1448 -0.8155  1.9149
 4291TIP3    H234289   2.077   0.689  14.284 -1.1397 -0.2559  1.2743
 4292TIP3   OH234290   2.051   0.235   1.127  0.3676 -0.0619 -0.3474
 4292TIP3    H134291   2.087   0.148   1.107 -0.0434 -0.1452 -0.7492
 4292TIP3    H234292   2.010   0.225   1.213  0.4774 -0.2234 -0.3146
 4293TIP3   OH234293   4.637   2.777  14.820  0.0919  0.0933  0.9617
 4293TIP3    H134294   4.593   2.850  14.864 -0.3301  0.5732 -0.2385
 4293TIP3    H234295   4.589   2.699  14.848  0.8360  0.2008  2.6285
 4294TIP3   OH234296   2.136   2.475   1.483 -0.2908 -0.1432  0.1955
 4294TIP3    H134297   2.174   2.527   1.412  0.3991  1.1444  1.4847
 4294TIP3    H234298   2.205   2.471   1.549 -0.6942 -1.8915  0.5418
 4295TIP3   OH234299   3.652   4.374  15.642 -0.0106 -0.4963 -0.6282
 4295TIP3    H134300   3.557   4.370  15.642 -0.0539  0.6344  0.2555
 4295TIP3    H234301   3.675   4.440  15.707  1.4244 -1.7459  0.1851
 4296TIP3   OH234302   2.866   1.910   3.017 -1.0279 -0.2463 -0.2422
 4296TIP3    H134303   2.946   1.932   2.969 -0.4232 -0.6220  0.5582
 4296TIP3    H234304   2.799   1.966   2.980 -0.8161 -1.3095 -2.2654
 4297TIP3   OH234305   0.154   6.539   4.204 -0.5228 -0.5375  0.4258
 4297TIP3    H134306   0.178   6.619   4.156  3.2704 -0.9784  1.3919
 4297TIP3    H234307   0.132   6.476   4.136 -2.3954  0.9550 -0.3941
 4298TIP3   OH234308   1.368   2.195  16.167 -0.1326 -0.0945 -0.2414
 4298TIP3    H134309   1.381   2.278  16.121  0.5403  0.4696  0.9565
 4298TIP3    H234310   1.311   2.216  16.241  1.6200 -0.3196  1.1843
 4299TIP3   OH234311   0.420   0.990  14.627 -0.0459 -0.7480 -0.1493
 4299TIP3    H134312   0.393   1.064  14.680  0.9434  1.5661 -2.7744
 4299TIP3    H234313   0.509   0.970  14.657  0.1889 -0.0067 -0.3510
 4300TIP3   OH234314   0.107   3.188   2.357 -0.6542 -0.0749 -0.3148
 4300TIP3    H134315   0.124   3.206   2.449  0.5143  0.8271 -0.6960
 4300TIP3    H234316   0.164   3.115   2.336  0.4740  0.9250 -0.7901
 4301TIP3   OH234317   5.140   0.261   0.128 -0.1077 -0.5786 -0.0457
 4301TIP3    H134318   5.222   0.220   0.152  0.4101  0.5657  0.1938
 4301TIP3    H234319   5.091   0.268   0.210 -0.6095 -1.5943 -0.2481
 4302TIP3   OH234320   3.184   1.852   4.072  0.0548 -0.8102 -0.7432
 4302TIP3    H134321   3.257   1.904   4.038 -1.9024  2.0765 -0.6800
 4302TIP3    H234322   3.184   1.870   4.166 -0.3595 -1.3263 -0.6420
 4303TIP3   OH234323   3.113   1.949  15.535 -0.3671  0.0060 -0.2925
 4303TIP3    H134324   3.133   1.958  15.442 -0.0318  3.4206  0.0706
 4303TIP3    H234325   3.018   1.962  15.540 -0.2516  0.7944 -0.0661
 4304TIP3   OH234326   6.602   1.260   6.506  0.1164 -0.4720 -0.1506
 4304TIP3    H134327   6.553   1.251   6.424  0.0853  1.5096 -0.3862
 4304TIP3    H234328   6.674   1.319   6.484 -0.0038  0.2348  1.2893
 4305TIP3   OH234329   1.589   1.079  11.405 -0.7904 -0.0165  0.1143
 4305TIP3    H134330   1.576   1.161  11.356  0.4183  0.8611  1.2247
 4305TIP3    H234331   1.508   1.069  11.455  0.5185  2.6001  2.9297
 4306TIP3   OH234332   1.184   2.838   5.397 -0.5308 -0.1759  0.0477
 4306TIP3    H134333   1.127   2.766   5.423 -1.4794  0.2684 -0.7661
 4306TIP3    H234334   1.243   2.850   5.472 -0.0605 -2.0734  0.0226
 4307TIP3   OH234335   4.608   2.049   2.142 -0.5418  0.2828  0.0093
 4307TIP3    H134336   4.570   2.129   2.179 -1.1157 -0.1640  0.3843
 4307TIP3    H234337   4.571   2.043   2.054  1.2174  1.6222 -0.8498
 4308TIP3   OH234338   6.338   5.661  10.418 -0.0082  1.0004  0.4273
 4308TIP3    H134339   6.278   5.589  10.397 -1.4522  2.1214  0.6400
 4308TIP3    H234340   6.304   5.736  10.369  2.5100  1.1427 -1.2048
 4309TIP3   OH234341   1.750   4.040   3.852 -0.8426 -0.1093 -0.2291
 4309TIP3    H134342   1.823   4.100   3.840 -0.6468 -0.5878 -1.5312
 4309TIP3    H234343   1.685   4.069   3.788 -1.1215 -0.6969 -0.2163
 4310TIP3   OH234344   4.596   5.804  11.245 -0.0342  0.1228 -0.4368
 4310TIP3    H134345   4.674   5.851  11.273  0.7550 -1.2766 -0.2874
 4310TIP3    H234346   4.610   5.714  11.272 -0.7555 -0.5739 -2.2999
 4311TIP3   OH234347   0.794   5.865   1.244 -0.1674 -0.7441 -0.1703
 4311TIP3    H134348   0.767   5.896   1.158  0.5535 -0.5653 -0.3310
 4311TIP3    H234349   0.792   5.769   1.236 -1.0567 -0.7402 -0.0831
 4312TIP3   OH234350   1.039   5.041   5.479 -0.4133  0.0064 -0.2943
 4312TIP3    H134351   1.120   5.090   5.469  0.7402 -1.5067  1.3512
 4312TIP3    H234352   1.036   4.983   5.403  1.4423 -1.8349  0.9855
 4313TIP3   OH234353   4.085   1.203   2.828  0.0314 -0.2674  0.2877
 4313TIP3    H134354   4.125   1.115   2.829  0.8458  0.0840 -0.5627
 4313TIP3    H234355   3.996   1.188   2.798 -0.6684 -1.1300  2.6753
 4314TIP3   OH234356   0.423   2.798   5.448  0.1479 -0.1762  0.4408
 4314TIP3    H134357   0.436   2.845   5.366 -1.3990 -1.9629 -0.8592
 4314TIP3    H234358   0.334   2.763   5.442  0.2855 -0.9577  2.5519
 4315TIP3   OH234359   2.533   5.409   1.865 -0.0568 -0.2826  0.3778
 4315TIP3    H134360   2.512   5.351   1.938  0.2394  1.2070  1.6667
 4315TIP3    H234361   2.470   5.481   1.872  0.1768  0.0289 -0.6445
 4316TIP3   OH234362   3.597   0.192  11.733  0.3681  0.0565  0.2289
 4316TIP3    H134363   3.683   0.210  11.694 -0.3015  2.4099 -0.2759
 4316TIP3    H234364   3.536   0.243  11.679 -1.3374 -1.5378  0.6169
 4317TIP3   OH234365   2.821   4.302  15.745  0.2792 -0.0181 -0.2228
 4317TIP3    H134366   2.841   4.303  15.651 -0.4279 -0.6902 -0.3824
 4317TIP3    H234367   2.831   4.210  15.771 -0.7812 -0.0541  0.0802
 4318TIP3   OH234368   0.989   3.019  15.074  0.8498 -0.1854 -0.4511
 4318TIP3    H134369   1.051   2.977  15.133 -0.6580 -2.0113 -0.1110
 4318TIP3    H234370   0.920   2.953  15.061  0.2759  0.8324 -2.8357
 4319TIP3   OH234371   4.410   6.360   2.463 -0.3254  0.1760  0.3113
 4319TIP3    H134372   4.400   6.455   2.466  1.4551  0.3312  1.4593
 4319TIP3    H234373   4.423   6.340   2.370  0.8946  1.2140  0.2619
 4320TIP3   OH234374   4.489   2.112   3.290  0.0179  0.1474 -0.5703
 4320TIP3    H134375   4.453   2.185   3.340 -0.9203  0.2361 -1.3712
 4320TIP3    H234376   4.417   2.083   3.235  0.5423 -1.0592 -0.6222
 4321TIP3   OH234377   4.719   2.971  15.098 -0.0648 -0.1274  1.0131
 4321TIP3    H134378   4.629   2.978  15.068  0.1330  1.5996  0.8197
 4321TIP3    H234379   4.768   3.031  15.043  1.1906 -0.9579  1.2091
 4322TIP3   OH234380   4.239   4.380  15.508 -0.0428  0.2216 -0.6994
 4322TIP3    H134381   4.205   4.316  15.445  0.4506 -2.9822  2.1460
 4322TIP3    H234382   4.325   4.346  15.532 -0.3962  1.1425  1.9664
 4323TIP3   OH234383   5.541   2.211   5.958 -0.6779 -0.2698  0.6439
 4323TIP3    H134384   5.508   2.146   5.895  0.0701  0.7836 -0.8601
 4323TIP3    H234385   5.464   2.263   5.980 -0.7448 -0.0032 -0.1926
 4324TIP3   OH234386   1.795   2.501  12.972  0.1984 -0.1732  0.1549
 4324TIP3    H134387   1.734   2.574  12.974  0.5144  0.0834  0.6942
 4324TIP3    H234388   1.745   2.428  12.934 -0.0297  0.3975 -0.6506
 4325TIP3   OH234389   1.437   2.363   5.932 -0.1478  0.2124 -1.0937
 4325TIP3    H134390   1.404   2.393   6.016  1.5255 -0.4251 -0.1723
 4325TIP3    H234391   1.371   2.301   5.900 -1.6022  1.7202 -1.0636
 4326TIP3   OH234392   4.740   6.654   5.112 -0.3860 -0.2223  0.7760
 4326TIP3    H134393   4.761   6.565   5.084 -0.0054  1.0978 -3.4608
 4326TIP3    H234394   4.793   6.667   5.190  0.9250 -3.0922  0.4467
 4327TIP3   OH234395   1.052   3.565   2.376  0.2307  0.5265  0.3467
 4327TIP3    H134396   1.052   3.595   2.285  0.5437  0.5301  0.3471
 4327TIP3    H234397   0.984   3.617   2.418  0.3882  0.8402  0.2165
 4328TIP3   OH234398   3.385   5.584   3.359 -0.4568  0.1081  0.2743
 4328TIP3    H134399   3.336   5.640   3.299  0.2033  0.9799  0.5370
 4328TIP3    H234400   3.469   5.629   3.371 -0.1271 -0.6626  0.9140
 4329TIP3   OH234401   0.140   0.514  15.212 -0.0603  0.2390  0.4642
 4329TIP3    H134402   0.088   0.591  15.234  0.0300  0.0007  1.5271
 4329TIP3    H234403   0.078   0.442  15.211 -0.2095  0.3693 -0.8878
 4330TIP3   OH234404   6.255   4.870  15.423 -0.0538 -0.9157 -0.0302
 4330TIP3    H134405   6.213   4.953  15.403  0.2380 -0.7263  0.1282
 4330TIP3    H234406   6.186   4.805  15.416 -0.8836 -0.3525  2.3059
 4331TIP3   OH234407   3.554   1.137  13.290 -0.3308  0.2227  0.6581
 4331TIP3    H134408   3.502   1.064  13.256  1.2652 -0.6185 -0.0596
 4331TIP3    H234409   3.613   1.096  13.354  1.2063  0.7222 -0.4153
 4332TIP3   OH234410   6.272   1.425   0.565 -0.7704  0.4126  0.8223
 4332TIP3    H134411   6.205   1.408   0.499 -0.0444  1.7572 -0.2974
 4332TIP3    H234412   6.354   1.426   0.515  0.1594 -1.6964  2.2425
 4333TIP3   OH234413   2.338   3.026   3.194 -0.0639 -0.4732 -0.3174
 4333TIP3    H134414   2.279   2.962   3.153 -0.4152 -0.4223  0.1080
 4333TIP3    H234415   2.306   3.033   3.284 -0.0159  0.2977 -0.3606
 4334TIP3   OH234416   1.779   3.922  16.082 -0.0559 -0.4302 -0.4010
 4334TIP3    H134417   1.839   3.992  16.059 -0.1150 -0.3929 -0.4421
 4334TIP3    H234418   1.732   3.902  16.001 -0.9146  0.3296 -0.0922
 4335TIP3   OH234419   0.533   4.437   1.781 -0.3137 -0.1439  0.1435
 4335TIP3    H134420   0.484   4.476   1.854 -2.4018 -0.1794 -1.1997
 4335TIP3    H234421   0.562   4.512   1.729 -1.6799 -0.2222 -0.7627
 4336TIP3   OH234422   5.614   3.381   5.199  0.0510 -0.6173 -0.3596
 4336TIP3    H134423   5.601   3.357   5.291  1.0031 -2.2238 -0.6197
 4336TIP3    H234424   5.565   3.462   5.188  1.7817  0.8191  2.1282
 4337TIP3   OH234425   3.950   0.567  14.581 -0.2725 -0.2233 -0.7935
 4337TIP3    H134426   4.013   0.623  14.535  1.6834 -0.3598  1.6538
 4337TIP3    H234427   3.931   0.496  14.519  0.4598  0.8613 -2.2895
 4338TIP3   OH234428   1.379   2.393   3.494 -0.1986 -0.4380  0.6806
 4338TIP3    H134429   1.331   2.311   3.488 -1.3460  0.1065  2.1163
 4338TIP3    H234430   1.465   2.374   3.457 -1.0080 -1.8296 -0.5164
 4339TIP3   OH234431   2.128   3.691  16.923  0.4064  0.6511 -0.5619
 4339TIP3    H134432   2.178   3.683  16.842  1.4483  0.3509  0.0994
 4339TIP3    H234433   2.091   3.779  16.920  0.7829  0.7876 -1.1629
 4340TIP3   OH234434   3.384   1.051   5.798  0.6038  0.7167 -0.0238
 4340TIP3    H134435   3.470   1.009   5.808 -0.1435 -1.3099 -1.5321
 4340TIP3    H234436   3.403   1.133   5.752  1.6969  0.0376 -0.8285
 4341TIP3   OH234437   1.468   3.906  10.263  0.3525  0.2005  0.0704
 4341TIP3    H134438   1.403   3.974  10.281 -0.3437 -0.4958  0.2451
 4341TIP3    H234439   1.484   3.866  10.349 -0.2759 -0.7543 -0.2448
 4342TIP3   OH234440   0.354   1.650  12.881 -0.1208  0.7571 -0.9762
 4342TIP3    H134441   0.357   1.625  12.788 -2.2043  0.6882 -1.0448
 4342TIP3    H234442   0.294   1.725  12.884  0.0113  0.8187  0.2953
 4343TIP3   OH234443   0.235   3.062  14.100 -0.3694  0.3790  0.1032
 4343TIP3    H134444   0.152   3.104  14.076 -1.6716 -1.9160  0.4049
 4343TIP3    H234445   0.225   2.972  14.070  1.6426 -0.1828  1.0546
 4344TIP3   OH234446   3.967   4.867   1.178  0.3376  0.4103 -0.0709
 4344TIP3    H134447   4.040   4.923   1.150  1.2706 -1.2986 -1.1808
 4344TIP3    H234448   3.919   4.849   1.097 -0.0694 -0.2011  0.3052
 4345TIP3   OH234449   0.850   6.754  12.332 -0.1247  0.1918  0.4698
 4345TIP3    H134450   0.857   6.743  12.237  1.9102  0.8727  0.5328
 4345TIP3    H234451   0.756   6.771  12.346 -0.2921  1.1473 -1.5299
 4346TIP3   OH234452   5.916   1.921  12.187  0.8102  0.1063 -0.3141
 4346TIP3    H134453   5.866   1.902  12.107 -0.9139 -0.1874  0.8010
 4346TIP3    H234454   5.991   1.972  12.156  1.8486 -2.5992 -2.5093
 4347TIP3   OH234455   3.367   5.490   2.984  0.0017  0.0486 -0.4974
 4347TIP3    H134456   3.303   5.481   2.913  0.7718  1.1151 -1.3444
 4347TIP3    H234457   3.413   5.571   2.964  0.1809  0.3928  1.2792
 4348TIP3   OH234458   6.097   5.182  13.677 -0.6786  0.5185  0.1743
 4348TIP3    H134459   6.153   5.259  13.683  1.2719 -0.7146 -1.7182
 4348TIP3    H234460   6.157   5.108  13.679 -2.4890 -0.9771  1.4717
 4349TIP3   OH234461   5.403   5.156  11.573 -0.0805 -0.4674 -0.0364
 4349TIP3    H134462   5.465   5.181  11.504 -1.2748 -0.2348 -1.0534
 4349TIP3    H234463   5.409   5.061  11.578  0.7781 -0.3986  0.2814
 4350TIP3   OH234464   4.912   4.747  16.037  0.0612  0.4372  0.4101
 4350TIP3    H134465   4.996   4.792  16.048  0.5882 -0.8206  1.6922
 4350TIP3    H234466   4.912   4.679  16.105 -2.0602  0.5165  0.5367
 4351TIP3   OH234467   3.667   3.100  12.651 -0.3850  0.0752 -0.2604
 4351TIP3    H134468   3.746   3.087  12.703 -0.9560 -1.8940  0.1337
 4351TIP3    H234469   3.624   3.175  12.692  0.9703  0.7855 -0.1117
 4352TIP3   OH234470   6.170   5.276  11.316  0.3280  0.4228  0.3308
 4352TIP3    H134471   6.127   5.313  11.239  0.4447 -0.9648 -0.4089
 4352TIP3    H234472   6.199   5.353  11.366  1.5433  1.3357 -1.7153
 4353TIP3   OH234473   6.467   2.278  15.006  0.5559 -0.1017  0.2809
 4353TIP3    H134474   6.440   2.247  15.092  3.9866 -2.6052  0.6002
 4353TIP3    H234475   6.420   2.223  14.944  0.2458 -0.2346  0.6362
 4354TIP3   OH234476   4.625   2.439   1.287  0.3039  0.4857  0.3040
 4354TIP3    H134477   4.552   2.441   1.225  0.7891 -0.1251 -0.2879
 4354TIP3    H234478   4.663   2.527   1.282  1.0592  0.0962 -1.1366
 4355TIP3   OH234479   4.806   6.252  17.069 -0.1084  0.5343  0.4721
 4355TIP3    H134480   4.828   6.171  17.023  0.7171  0.7442  0.4919
 4355TIP3    H234481   4.888   6.302  17.070 -0.4912  1.1577  0.8868
 4356TIP3   OH234482   5.338   0.396  16.328  0.3049  0.4269 -0.1033
 4356TIP3    H134483   5.321   0.318  16.380 -0.3300  0.7277  0.1506
 4356TIP3    H234484   5.421   0.378  16.283  1.1967  0.4536  1.5263
 4357TIP3   OH234485   3.107   0.516   3.394 -0.1893  0.3781  0.4892
 4357TIP3    H134486   3.077   0.440   3.443  1.8674 -2.4110 -2.3773
 4357TIP3    H234487   3.028   0.552   3.353 -1.1654 -0.2628  1.7998
 4358TIP3   OH234488   3.389   5.694  14.849 -0.2074 -0.1213  0.0012
 4358TIP3    H134489   3.326   5.624  14.863 -2.5971  1.8993 -0.2353
 4358TIP3    H234490   3.457   5.678  14.914 -0.6396 -2.7162 -0.1489
 4359TIP3   OH234491   4.308   2.757  15.686 -0.4081 -0.2761  0.8415
 4359TIP3    H134492   4.234   2.799  15.642  0.1148  0.3574  0.5485
 4359TIP3    H234493   4.302   2.665  15.660 -0.7496 -0.1178  0.3381
 4360TIP3   OH234494   4.720   5.275   2.957 -0.0101 -0.1360 -0.0504
 4360TIP3    H134495   4.708   5.310   3.046 -1.7494  0.7867 -0.6299
 4360TIP3    H234496   4.761   5.190   2.971 -1.0713 -0.3932  1.6968
 4361TIP3   OH234497   3.960   5.320  12.961  0.4424 -0.0272 -0.1173
 4361TIP3    H134498   4.043   5.364  12.943  0.1191 -0.0812 -1.8612
 4361TIP3    H234499   3.921   5.306  12.874 -2.1312  1.4492  0.7189
 4362TIP3   OH234500   4.926   4.259  16.244 -0.1407 -0.3404 -0.1966
 4362TIP3    H134501   4.856   4.260  16.179  1.5627  1.2765 -2.0953
 4362TIP3    H234502   5.005   4.239  16.194  1.4217  2.2175  1.1223
 4363TIP3   OH234503   4.655   3.294  13.625 -0.4907  0.7447 -0.5137
 4363TIP3    H134504   4.683   3.206  13.600  0.5295  0.8644  0.1773
 4363TIP3    H234505   4.574   3.281  13.675 -0.8131  0.2715 -1.1545
 4364TIP3   OH234506   5.112   4.942   0.131 -0.6635 -0.1090  0.1849
 4364TIP3    H134507   5.021   4.970   0.144  0.1602  3.2058 -0.6839
 4364TIP3    H234508   5.109   4.884   0.055 -1.9107  0.7134 -0.4071
 4365TIP3   OH234509   6.264   6.275  14.567  0.2065 -0.0251  0.3816
 4365TIP3    H134510   6.321   6.216  14.518  1.2080  0.9880  0.3254
 4365TIP3    H234511   6.271   6.246  14.658  0.4456 -0.1849  0.3117
 4366TIP3   OH234512   1.749   4.678   1.391 -0.0746  0.0613  0.1409
 4366TIP3    H134513   1.682   4.735   1.428  0.9485  1.7656 -0.5942
 4366TIP3    H234514   1.718   4.659   1.302  0.4264  0.8517 -0.1998
 4367TIP3   OH234515   5.334   5.179  15.123 -0.8476 -0.1390 -0.0576
 4367TIP3    H134516   5.293   5.181  15.210  0.5765 -0.7699  0.6402
 4367TIP3    H234517   5.428   5.182  15.141 -0.4429 -3.1122 -1.4725
 4368TIP3   OH234518   3.436   5.909   6.101 -0.3153 -0.2609 -0.4401
 4368TIP3    H134519   3.457   5.816   6.107  1.6616  0.0949 -1.4521
 4368TIP3    H234520   3.382   5.926   6.179  0.7781 -1.8587  0.7018
 4369TIP3   OH234521   1.095   2.919   4.537  0.4182 -0.7499  0.5048
 4369TIP3    H134522   1.162   2.891   4.475 -0.2908 -4.3052  1.2105
 4369TIP3    H234523   1.119   2.875   4.619  0.2315  2.2883  2.2571
 4370TIP3   OH234524   6.695   2.414  17.233 -0.2552 -0.6656 -0.5992
 4370TIP3    H134525   6.695   2.321  17.208  0.2837 -0.7553 -0.2719
 4370TIP3    H234526   6.720   2.414  17.326  1.5080 -0.0780 -1.0483
 4371TIP3   OH234527   0.720   5.825   2.715  0.3867  0.1591 -0.4611
 4371TIP3    H134528   0.653   5.891   2.697 -0.3669 -0.2440  0.7709
 4371TIP3    H234529   0.779   5.867   2.777  0.1511 -0.1477 -0.0169
 4372TIP3   OH234530   5.433   4.182   4.012  0.4394 -0.4635 -0.2164
 4372TIP3    H134531   5.447   4.183   3.917 -0.5156 -0.6525 -0.3641
 4372TIP3    H234532   5.337   4.182   4.022  0.5259 -1.9271  0.7287
 4373TIP3   OH234533   3.680   3.116   0.028 -0.2709  0.1173 -0.1315
 4373TIP3    H134534   3.673   3.067   0.110 -2.4543  0.4589 -0.0872
 4373TIP3    H234535   3.597   3.163   0.020  1.4163  3.1479 -0.6238
 4374TIP3   OH234536   5.909   4.080  10.735  0.0675  0.4161  0.3943
 4374TIP3    H134537   5.928   4.084  10.829 -5.1385  0.2434  1.6029
 4374TIP3    H234538   5.898   3.987  10.717 -0.3851  0.5665 -0.0933
 4375TIP3   OH234539   4.899   6.661  12.772  0.0616 -0.6096  0.6377
 4375TIP3    H134540   4.928   6.750  12.749  0.7016 -0.2291  2.8504
 4375TIP3    H234541   4.889   6.617  12.687 -0.1197  1.5173 -0.4835
 4376TIP3   OH234542   0.656   6.664  12.637  0.4662  0.1105  0.0666
 4376TIP3    H134543   0.746   6.695  12.651  1.0992 -0.9121 -1.5892
 4376TIP3    H234544   0.625   6.713  12.561  0.6794 -1.5985 -1.1697
 4377TIP3   OH234545   2.136   1.641   1.689 -0.4860  0.2796 -0.1503
 4377TIP3    H134546   2.217   1.600   1.658 -0.5133  0.0688  0.0617
 4377TIP3    H234547   2.107   1.695   1.615  0.1412  0.7902 -0.0354
 4378TIP3   OH234548   5.745   0.857  14.817 -0.1897 -0.1300 -0.2551
 4378TIP3    H134549   5.659   0.897  14.827 -0.4056  0.1276 -2.8165
 4378TIP3    H234550   5.806   0.928  14.838 -0.5875  0.0101  0.4485
 4379TIP3   OH234551   2.614   0.166  15.838  0.4706  0.1301 -0.6185
 4379TIP3    H134552   2.573   0.248  15.867  2.8890  2.1250 -2.6789
 4379TIP3    H234553   2.574   0.148  15.753  0.2949 -0.5886 -0.3878
 4380TIP3   OH234554   1.437   2.117  12.988  0.1229  0.2815 -0.4893
 4380TIP3    H134555   1.386   2.158  12.918  0.3826 -0.0112 -0.8545
 4380TIP3    H234556   1.449   2.026  12.958  0.3406  0.1919 -0.1215
 4381TIP3   OH234557   4.355   4.763   3.762  0.4312  0.1089 -0.1873
 4381TIP3    H134558   4.338   4.787   3.853 -2.4081 -0.0583 -0.6317
 4381TIP3    H234559   4.349   4.846   3.715 -1.3445 -0.2573 -0.6370
 4382TIP3   OH234560   5.473   2.729  14.946 -0.3193  0.5056 -0.4905
 4382TIP3    H134561   5.413   2.671  14.898  1.8173 -0.4775 -2.0329
 4382TIP3    H234562   5.488   2.684  15.029 -1.7849  0.8160 -0.0425
 4383TIP3   OH234563   3.520   5.783   1.032  0.1986  0.4393 -0.0488
 4383TIP3    H134564   3.506   5.870   1.068 -0.6373  0.3162 -0.0781
 4383TIP3    H234565   3.531   5.726   1.108 -1.0408  0.2700  0.0181
 4384TIP3   OH234566   0.699   6.720  17.035 -0.2654  0.3989  0.1973
 4384TIP3    H134567   0.780   6.702  16.987  1.3309  1.0057  2.5905
 4384TIP3    H234568   0.660   6.633  17.048 -0.0874  0.1118 -1.0593
 4385TIP3   OH234569   4.158   3.299   5.581 -0.5891 -0.1544  0.6057
 4385TIP3    H134570   4.142   3.241   5.655 -0.3972  0.1794  0.9070
 4385TIP3    H234571   4.244   3.337   5.598  0.0503 -1.0894 -0.4492
 4386TIP3   OH234572   1.522   3.294  12.754 -0.0471 -0.8091  0.1310
 4386TIP3    H134573   1.556   3.284  12.665  0.6559 -1.4832  0.4635
 4386TIP3    H234574   1.593   3.261  12.810  0.0190  0.7845  1.0079
 4387TIP3   OH234575   2.470   3.945  13.735 -0.4399  0.3073 -0.1652
 4387TIP3    H134576   2.405   3.942  13.805  0.0815 -0.1820  0.2993
 4387TIP3    H234577   2.445   3.875  13.675 -0.1996 -0.0312  0.1340
 4388TIP3   OH234578   0.022   5.540  17.029  0.3756  0.3183 -0.0186
 4388TIP3    H134579   0.050   5.625  17.063 -0.6396  0.4329  0.5452
 4388TIP3    H234580   0.104   5.491  17.018  0.9752  1.3859 -0.4242
 4389TIP3   OH234581   4.337   1.235  11.421  0.4212 -0.0156  0.1614
 4389TIP3    H134582   4.410   1.173  11.419  1.8486  1.6587 -0.1283
 4389TIP3    H234583   4.370   1.313  11.378 -0.7403  1.6213  2.1432
 4390TIP3   OH234584   5.214   2.939  17.018  0.2179  0.2042 -0.0045
 4390TIP3    H134585   5.279   2.877  17.051  0.7035  0.7315  0.0310
 4390TIP3    H234586   5.264   3.018  16.999 -0.3595  0.4971 -0.3037
 4391TIP3   OH234587   1.478   6.023  13.103  0.1942  0.0793 -0.5176
 4391TIP3    H134588   1.415   6.095  13.107 -1.0589 -1.0347  0.4365
 4391TIP3    H234589   1.428   5.949  13.067  0.2136 -1.5023  2.5267
 4392TIP3   OH234590   1.225   0.867   3.298  0.3647  0.4739  0.4410
 4392TIP3    H134591   1.183   0.944   3.338 -0.6344  0.0688  0.1967
 4392TIP3    H234592   1.181   0.858   3.214  2.0710  0.9936 -0.5362
 4393TIP3   OH234593   0.578   4.006  16.615 -0.1031  0.4445  0.3629
 4393TIP3    H134594   0.582   4.052  16.531 -0.3299  0.7489  0.5188
 4393TIP3    H234595   0.604   3.916  16.594 -2.7617 -0.1620 -0.5234
 4394TIP3   OH234596   1.012   2.229  12.744  0.5643 -0.2962 -0.3756
 4394TIP3    H134597   0.974   2.141  12.743  1.6808 -0.7794 -3.2880
 4394TIP3    H234598   0.938   2.287  12.728  0.3300 -0.9314 -1.6420
 4395TIP3   OH234599   5.618   3.918  15.483 -0.1612  0.1182  0.3277
 4395TIP3    H134600   5.622   4.013  15.468  1.4089  0.3302  1.9390
 4395TIP3    H234601   5.704   3.885  15.458 -0.7112 -0.8951 -0.2549
 4396TIP3   OH234602   6.105   0.411  15.523  0.9972 -0.1636 -0.0333
 4396TIP3    H134603   6.101   0.396  15.618  0.3743 -1.4910 -0.2448
 4396TIP3    H234604   6.151   0.493  15.513  2.5256 -0.8312  1.3650
 4397TIP3   OH234605   6.636   6.674   0.091  0.0416 -0.4565 -0.2029
 4397TIP3    H134606   6.554   6.643   0.052 -2.5562  2.9187  2.2482
 4397TIP3    H234607   6.648   6.619   0.169 -0.2380 -0.5148 -0.2023
 4398TIP3   OH234608   3.391   3.416  12.193 -0.0945 -0.5375 -0.0675
 4398TIP3    H134609   3.415   3.493  12.142 -0.5416 -0.1794  0.2673
 4398TIP3    H234610   3.445   3.345  12.156 -1.1471 -0.4909 -1.7178
 4399TIP3   OH234611   3.762   2.927   3.648 -0.1358 -0.0038 -0.0980
 4399TIP3    H134612   3.686   2.938   3.591  0.2265  1.1779 -0.3725
 4399TIP3    H234613   3.775   3.013   3.688 -0.1079 -0.7020  1.4322
 4400TIP3   OH234614   5.528   2.951   2.856 -0.0368 -0.0482 -0.5833
 4400TIP3    H134615   5.458   2.886   2.866 -1.5017  1.6504  0.4595
 4400TIP3    H234616   5.483   3.036   2.857  2.0035  1.0659 -0.1960
 4401TIP3   OH234617   2.403   4.716  15.118 -0.1106  1.1945 -0.3607
 4401TIP3    H134618   2.345   4.791  15.131 -0.0586  1.1369  0.2322
 4401TIP3    H234619   2.344   4.641  15.116 -0.0375  1.0923  0.6556
 4402TIP3   OH234620   5.983   2.039   2.655 -0.0022  0.2348  0.3147
 4402TIP3    H134621   6.066   2.086   2.642  0.0921 -0.1811 -0.6730
 4402TIP3    H234622   5.919   2.108   2.673  0.5770  0.5522  1.1800
 4403TIP3   OH234623   3.856   4.080   2.751  0.5311 -0.3761 -0.0279
 4403TIP3    H134624   3.883   4.146   2.686  0.3520  0.4317  0.7110
 4403TIP3    H234625   3.916   4.093   2.824  1.7918 -2.3667 -0.6489
 4404TIP3   OH234626   4.895   5.391   1.525  0.2822  0.4460  0.3213
 4404TIP3    H134627   4.881   5.464   1.585  1.5235 -1.2055  2.6802
 4404TIP3    H234628   4.900   5.432   1.439 -0.9298  2.9337  1.3714
 4405TIP3   OH234629   1.774   4.314   3.203 -0.6663 -0.1148 -0.2502
 4405TIP3    H134630   1.736   4.379   3.144 -1.0025 -0.7769 -0.7755
 4405TIP3    H234631   1.709   4.243   3.206 -1.1772  0.4080  1.8246
 4406TIP3   OH234632   2.145   4.902   5.408 -0.6458 -0.2723 -0.2343
 4406TIP3    H134633   2.189   4.842   5.468 -2.9638 -1.5055  0.2660
 4406TIP3    H234634   2.148   4.858   5.323  0.3387  0.2988 -0.5017
 4407TIP3   OH234635   6.255   5.294  16.115  0.0022  0.2830  0.0626
 4407TIP3    H134636   6.304   5.257  16.042  1.8367  3.1331 -0.2179
 4407TIP3    H234637   6.279   5.240  16.190  0.5229 -0.7296 -0.8220
 4408TIP3   OH234638   3.197   3.465   2.946 -0.3075 -0.2272 -0.4070
 4408TIP3    H134639   3.290   3.445   2.954 -0.1491 -0.5970 -2.8440
 4408TIP3    H234640   3.177   3.517   3.024  1.5617 -1.4300  0.9330
 4409TIP3   OH234641   3.856   2.958   2.359  0.0931  0.5890 -0.3765
 4409TIP3    H134642   3.781   2.906   2.390 -0.7087  1.8640 -0.1724
 4409TIP3    H234643   3.857   2.943   2.265 -1.5107  1.9551 -0.6376
 4410TIP3   OH234644   4.370   3.224  15.920  0.6907 -0.1154  0.0897
 4410TIP3    H134645   4.369   3.234  16.015  0.4236 -0.6454  0.1417
 4410TIP3    H234646   4.347   3.311  15.887  0.3452 -0.0455  0.5152
 4411TIP3   OH234647   0.172   6.407  12.544 -0.1372  0.7210  0.4624
 4411TIP3    H134648   0.195   6.327  12.497  0.7032  1.5869 -0.6555
 4411TIP3    H234649   0.195   6.389  12.635  1.0081  0.0411  0.0506
 4412TIP3   OH234650   2.837   4.161   1.502 -0.0380 -0.0141 -0.1262
 4412TIP3    H134651   2.895   4.188   1.431  2.1068 -1.2551  1.0895
 4412TIP3    H234652   2.893   4.161   1.580 -1.8678 -0.5172  1.2294
 4413TIP3   OH234653   4.040   0.725   3.078 -0.0521  0.2659  0.6044
 4413TIP3    H134654   4.037   0.788   3.150  0.5943 -1.2037  1.9544
 4413TIP3    H234655   4.128   0.734   3.041  0.4267 -0.6035  1.5121
 4414TIP3   OH234656   4.117   3.247   0.548  0.8122  0.1137  0.8841
 4414TIP3    H134657   4.056   3.313   0.581  0.6645  0.9755 -1.0513
 4414TIP3    H234658   4.185   3.297   0.504  2.2568 -0.9084  1.8923
 4415TIP3   OH234659   1.839   4.925   0.179  0.2966 -0.0739  0.5244
 4415TIP3    H134660   1.893   4.911   0.256  0.8752  1.1829  0.3448
 4415TIP3    H234661   1.830   5.020   0.172 -1.5604 -0.2440  0.2969
 4416TIP3   OH234662   3.937   6.562   0.111 -0.2747 -0.2119  0.5512
 4416TIP3    H134663   4.002   6.566   0.181 -0.1561  1.3810  0.3723
 4416TIP3    H234664   3.853   6.576   0.154 -0.4049 -1.1822  0.6308
 4417TIP3   OH234665   5.955   0.898   5.561 -0.0994 -0.4529 -0.1914
 4417TIP3    H134666   5.893   0.961   5.523 -1.6207 -0.7118  1.7741
 4417TIP3    H234667   5.942   0.818   5.509  0.0028  0.0782 -1.0457
 4418TIP3   OH234668   2.625   4.438  12.671 -0.4286  0.4226  0.1131
 4418TIP3    H134669   2.565   4.367  12.695  1.4989 -1.7481 -1.2813
 4418TIP3    H234670   2.603   4.458  12.580 -0.0315  0.6557  0.0690
 4419TIP3   OH234671   4.586   5.529  14.271  0.7609 -0.3772 -0.3596
 4419TIP3    H134672   4.605   5.495  14.183  1.7912 -0.7566  0.0099
 4419TIP3    H234673   4.670   5.559  14.304  0.0454  1.5520 -0.2472
 4420TIP3   OH234674   5.129   3.180   4.198 -0.1383 -0.5005  0.2695
 4420TIP3    H134675   5.120   3.234   4.277  1.0025 -0.5540  0.4574
 4420TIP3    H234676   5.167   3.098   4.230  1.5390 -0.0446 -0.4989
 4421TIP3   OH234677   4.018   4.470   2.134  0.1120 -0.1680  0.0865
 4421TIP3    H134678   3.950   4.439   2.193 -0.7519  0.7070 -0.4467
 4421TIP3    H234679   4.039   4.558   2.165  1.1596 -0.5137  0.3834
 4422TIP3   OH234680   4.716   4.012  12.736  0.3351  0.1996 -0.1584
 4422TIP3    H134681   4.690   3.940  12.793  1.8768 -0.2134  0.0498
 4422TIP3    H234682   4.685   3.987  12.649 -0.5649  0.0535  0.2007
 4423TIP3   OH234683   2.769   5.913   2.998 -0.0941  0.5245 -0.0160
 4423TIP3    H134684   2.815   5.890   3.079  0.4503 -0.1428 -0.5156
 4423TIP3    H234685   2.727   5.997   3.018 -1.1977 -0.3499  1.4602
 4424TIP3   OH234686   5.780   1.197  11.307 -0.3044 -0.0308  0.2186
 4424TIP3    H134687   5.730   1.259  11.253 -2.3783 -1.6419  0.2282
 4424TIP3    H234688   5.824   1.252  11.371  1.3043  1.8246 -2.3637
 4425TIP3   OH234689   3.522   4.323  16.390 -0.2899  0.2076 -0.0415
 4425TIP3    H134690   3.593   4.354  16.335  1.2633 -2.7339  0.2148
 4425TIP3    H234691   3.443   4.364  16.353  1.0603  0.5562 -2.6378
 4426TIP3   OH234692   6.088   3.949  12.444  0.1287 -0.2004 -0.1555
 4426TIP3    H134693   6.018   3.955  12.509 -0.4694 -2.3613 -0.5419
 4426TIP3    H234694   6.161   3.997  12.482 -1.6092  2.2749  0.1666
 4427TIP3   OH234695   2.868   3.627  15.908 -0.7600  0.1734 -0.5087
 4427TIP3    H134696   2.861   3.702  15.968 -0.9246  1.4299 -2.0681
 4427TIP3    H234697   2.832   3.553  15.958 -0.6853  1.1488  1.0163
 4428TIP3   OH234698   1.319   1.611   2.770 -0.3218  0.6109  0.3101
 4428TIP3    H134699   1.307   1.568   2.685  1.2242 -1.3287  1.0065
 4428TIP3    H234700   1.241   1.586   2.821 -1.6084  2.3882 -0.7543
 4429TIP3   OH234701   0.632   2.653   1.195 -0.3565 -0.3734  0.3151
 4429TIP3    H134702   0.721   2.635   1.165 -0.6935 -0.3459 -0.7285
 4429TIP3    H234703   0.578   2.639   1.117 -1.0634  1.3313  0.4791
 4430TIP3   OH234704   0.564   2.377   0.772  0.5000  0.0814 -0.2633
 4430TIP3    H134705   0.645   2.365   0.823  0.1364 -1.5869 -0.0301
 4430TIP3    H234706   0.535   2.287   0.753 -1.4223  0.6647 -0.1400
 4431TIP3   OH234707   2.295   1.969   2.927 -0.5929 -0.0805 -0.3230
 4431TIP3    H134708   2.310   1.900   2.992  0.9729  0.3603 -0.1934
 4431TIP3    H234709   2.250   2.038   2.976 -1.0968 -0.5107 -0.1690
 4432TIP3   OH234710   4.950   1.987   4.377 -0.4814  0.1485 -0.2310
 4432TIP3    H134711   4.927   2.023   4.291 -0.2965 -1.7346 -1.1106
 4432TIP3    H234712   4.917   1.897   4.374 -0.9223  0.2207  1.8827
 4433TIP3   OH234713   1.617   5.465  12.740  0.2931 -0.3161  0.3633
 4433TIP3    H134714   1.534   5.417  12.735 -0.2647  0.8060 -1.4073
 4433TIP3    H234715   1.656   5.435  12.823 -0.8972 -2.4015  0.2228
 4434TIP3   OH234716   3.547   2.720  13.085 -0.2166 -0.4602  0.3092
 4434TIP3    H134717   3.529   2.662  13.159  0.1482  0.1081  0.8434
 4434TIP3    H234718   3.484   2.792  13.094 -0.8782 -0.9284 -0.5297
 4435TIP3   OH234719   6.321   2.280   0.030  0.2965  0.5137  0.1949
 4435TIP3    H134720   6.321   2.334  -0.049 -0.2400  1.2891  0.7181
 4435TIP3    H234721   6.304   2.341   0.101 -3.7958 -0.8098  0.4564
 4436TIP3   OH234722   3.862   4.706  12.072  0.3393  0.0367  0.6683
 4436TIP3    H134723   3.831   4.784  12.027  0.6821  0.6236  1.4427
 4436TIP3    H234724   3.790   4.684  12.132  0.9459  0.7524  1.6677
 4437TIP3   OH234725   1.819   3.531  15.888  0.1856 -0.1469 -0.0039
 4437TIP3    H134726   1.833   3.472  15.814 -3.8212 -1.2558  0.0627
 4437TIP3    H234727   1.770   3.605  15.851  0.4144  0.5426  1.0370
 4438TIP3   OH234728   0.430   2.102  16.078 -0.1761 -0.8365 -0.2076
 4438TIP3    H134729   0.503   2.091  16.017 -2.2724 -2.6491 -2.4551
 4438TIP3    H234730   0.435   2.025  16.135  1.2383  0.4069  1.4217
 4439TIP3   OH234731   6.258   4.182   6.325 -0.4109  0.0101 -0.1416
 4439TIP3    H134732   6.244   4.089   6.344 -0.7609 -0.0905 -0.8712
 4439TIP3    H234733   6.351   4.188   6.304 -0.0318  0.1115  1.4957
 4440TIP3   OH234734   4.720   0.028  14.473 -0.3187 -0.2227 -0.2244
 4440TIP3    H134735   4.663   0.086  14.525 -0.8675 -0.2584 -0.7792
 4440TIP3    H234736   4.698  -0.060  14.503 -1.5786 -0.3350 -1.4239
 4441TIP3   OH234737   4.404   0.175   4.065 -0.4796 -0.4494  0.0400
 4441TIP3    H134738   4.346   0.249   4.048 -0.4245 -0.2898  0.5645
 4441TIP3    H234739   4.392   0.155   4.157  1.2921  0.4358  0.4886
 4442TIP3   OH234740   6.419   2.882  14.402  0.0803  0.0781 -0.0309
 4442TIP3    H134741   6.342   2.934  14.379 -0.8147 -1.0315  0.3908
 4442TIP3    H234742   6.415   2.806  14.345  1.1941  0.2945 -0.4096
 4443TIP3   OH234743   6.310   4.905   5.777  0.3313 -0.4427 -0.0363
 4443TIP3    H134744   6.382   4.862   5.731  0.4269 -0.3327  0.0090
 4443TIP3    H234745   6.329   4.891   5.870  1.5221  1.5020  0.0650
 4444TIP3   OH234746   0.550   2.752   1.656 -0.1638 -0.3214 -0.4471
 4444TIP3    H134747   0.608   2.677   1.671  1.1428  0.9953  1.3069
 4444TIP3    H234748   0.577   2.786   1.570  1.0317 -0.2682 -0.0539
 4445TIP3   OH234749   5.709   0.973  11.426  0.5518  0.2926  0.3249
 4445TIP3    H134750   5.735   1.059  11.393  0.9863 -0.1713 -0.5502
 4445TIP3    H234751   5.784   0.917  11.408 -0.8550 -0.9586 -1.8364
 4446TIP3   OH234752   2.181   1.862  16.255 -0.0369  0.5202 -0.2820
 4446TIP3    H134753   2.136   1.859  16.170 -0.9792  0.2311  0.2091
 4446TIP3    H234754   2.265   1.904  16.237 -0.7011  1.4992 -1.1496
 4447TIP3   OH234755   4.362   2.089   2.853  0.4274 -0.8574  0.1842
 4447TIP3    H134756   4.314   2.144   2.792  0.4194 -1.2518 -0.1660
 4447TIP3    H234757   4.310   2.009   2.860  0.9953 -1.2643 -0.1539
 4448TIP3   OH234758   5.646   3.189   1.482 -0.8074 -0.0149  0.4206
 4448TIP3    H134759   5.612   3.166   1.569 -1.6631  1.1876  0.4032
 4448TIP3    H234760   5.645   3.284   1.480  1.3728  0.0403 -0.0737
 4449TIP3   OH234761   5.769   0.674   1.756 -0.1781 -0.1246  0.2231
 4449TIP3    H134762   5.790   0.714   1.671 -0.1200  0.5530  0.5525
 4449TIP3    H234763   5.681   0.637   1.745  1.0657 -2.8466 -1.1227
 4450TIP3   OH234764   4.777   4.126  15.981 -0.0473  0.3575 -0.5090
 4450TIP3    H134765   4.786   4.036  16.010 -0.1035  0.1378 -1.1702
 4450TIP3    H234766   4.683   4.143  15.981 -0.0250  0.4982 -0.1507
 4451TIP3   OH234767   2.319   3.588   0.286 -0.1638  0.1286 -0.4779
 4451TIP3    H134768   2.397   3.636   0.257 -0.0441  0.3964  0.2723
 4451TIP3    H234769   2.252   3.655   0.297 -0.0104  0.1213  0.5246
 4452TIP3   OH234770   3.198   0.744   2.913  0.0377 -0.1782 -0.0170
 4452TIP3    H134771   3.250   0.670   2.944  0.5330  0.4977  0.7962
 4452TIP3    H234772   3.176   0.722   2.823 -1.6037 -2.2822  0.8467
 4453TIP3   OH234773   3.036   1.907   2.468  0.1572 -0.2870 -0.2393
 4453TIP3    H134774   3.111   1.854   2.496  1.1726  0.8955 -0.6656
 4453TIP3    H234775   3.015   1.874   2.381 -0.5253 -1.3552  0.3179
 4454TIP3   OH234776   2.297   0.603  12.212 -0.0578  0.8430  0.4098
 4454TIP3    H134777   2.249   0.667  12.265 -0.1435  0.7617  0.4314
 4454TIP3    H234778   2.232   0.569  12.151 -0.0629  0.6225  0.5391
 4455TIP3   OH234779   5.814   6.347   1.979  0.0665  0.0699  0.5963
 4455TIP3    H134780   5.827   6.441   1.996  0.2980  0.1697 -0.1162
 4455TIP3    H234781   5.843   6.335   1.889  0.0553 -0.6957  0.6928
 4456TIP3   OH234782   5.052   4.522  11.344  0.2634  0.2168 -0.0386
 4456TIP3    H134783   5.023   4.494  11.430  1.3008 -0.6202  0.0496
 4456TIP3    H234784   4.983   4.494  11.284 -0.3450  0.5866  0.4878
 4457TIP3   OH234785   0.693   5.722   3.123 -0.7384 -0.0439  0.8638
 4457TIP3    H134786   0.769   5.758   3.168 -0.4261 -0.6028  0.7877
 4457TIP3    H234787   0.730   5.672   3.050 -1.1885 -0.1425  0.7031
 4458TIP3   OH234788   4.496   3.258   0.379  0.5922 -0.2147 -0.2400
 4458TIP3    H134789   4.449   3.311   0.315  0.6053 -0.5554 -0.5373
 4458TIP3    H234790   4.489   3.168   0.345  2.7100 -0.1029 -1.0931
 4459TIP3   OH234791   5.605   4.310   6.244  0.6134 -0.4277 -0.1709
 4459TIP3    H134792   5.533   4.292   6.183  1.3274 -0.3088 -1.0696
 4459TIP3    H234793   5.579   4.269   6.326 -0.9575  0.5249 -0.1781
 4460TIP3   OH234794   2.764   3.569  17.083  1.1528  0.2382 -0.1424
 4460TIP3    H134795   2.798   3.598  16.999  0.0268  1.3240 -0.2419
 4460TIP3    H234796   2.668   3.572  17.073  0.9207  4.0061  2.3152
 4461TIP3   OH234797   4.429   5.599   3.950  0.2890 -0.3909 -0.4353
 4461TIP3    H134798   4.498   5.595   3.884  0.8321 -0.5226  0.1349
 4461TIP3    H234799   4.466   5.555   4.026  0.1140  0.8273  0.3645
 4462TIP3   OH234800   2.712   3.747  13.784  0.2782 -0.2673 -0.1134
 4462TIP3    H134801   2.765   3.825  13.801  0.7141 -0.0902 -2.1271
 4462TIP3    H234802   2.622   3.775  13.798  0.6203 -0.3539  2.5548
 4463TIP3   OH234803   4.383   5.110   1.630  0.5865  0.2676 -0.6492
 4463TIP3    H134804   4.376   5.197   1.671 -0.6507  0.1603 -0.6034
 4463TIP3    H234805   4.318   5.057   1.676  2.0905 -0.9776  0.0484
 4464TIP3   OH234806   5.686   5.923  12.847 -0.5495 -0.3277 -0.1347
 4464TIP3    H134807   5.682   5.833  12.816 -2.1883  0.0564 -1.1207
 4464TIP3    H234808   5.634   5.923  12.928  1.2763 -0.7021  1.0833
 4465TIP3   OH234809   2.476   0.131   4.604 -0.4654 -0.1872  0.1378
 4465TIP3    H134810   2.541   0.160   4.668 -0.4162  0.4375 -0.1943
 4465TIP3    H234811   2.396   0.178   4.628 -0.2630  0.5946 -0.6892
 4466TIP3   OH234812   4.148   2.923   6.104 -0.0436 -0.6442  0.0437
 4466TIP3    H134813   4.202   2.997   6.131  0.0617 -1.3870  1.9655
 4466TIP3    H234814   4.208   2.867   6.054 -0.0603  0.4384 -1.1894
 4467TIP3   OH234815   5.612   0.792   1.109 -0.5039 -0.4751  0.0231
 4467TIP3    H134816   5.611   0.837   1.025  1.2650 -1.2176 -0.4188
 4467TIP3    H234817   5.589   0.701   1.088  1.8401 -1.0936  0.0473
 4468TIP3   OH234818   5.796   2.677  16.997 -0.5900  0.2140 -0.5366
 4468TIP3    H134819   5.796   2.758  17.047 -0.8269  0.0076 -0.1968
 4468TIP3    H234820   5.809   2.704  16.907  0.3248  0.5499 -0.3054
 4469TIP3   OH234821   6.477   4.336  13.575 -0.4734  0.0162 -0.1784
 4469TIP3    H134822   6.383   4.326  13.583 -0.5636  0.7260 -0.2913
 4469TIP3    H234823   6.504   4.268  13.513 -1.0615  0.5271 -1.0012
 4470TIP3   OH234824   0.801   1.792   3.658 -0.5588  0.0411 -0.3866
 4470TIP3    H134825   0.851   1.831   3.587  0.0672 -0.8890 -0.4612
 4470TIP3    H234826   0.737   1.860   3.683  0.9091  1.3379 -0.1055
 4471TIP3   OH234827   3.525   4.834  16.995  0.1755  0.5161  0.7605
 4471TIP3    H134828   3.491   4.767  17.054  0.5075  0.0705  0.4528
 4471TIP3    H234829   3.525   4.914  17.047 -4.0641  1.1832 -0.1242
 4472TIP3   OH234830   1.175   3.945  14.681  0.2719 -0.0141 -0.4870
 4472TIP3    H134831   1.199   4.003  14.753 -0.4548  0.4170 -0.5936
 4472TIP3    H234832   1.083   3.922  14.698  0.1772 -0.1186 -1.1315
 4473TIP3   OH234833   2.762   5.370   2.918  0.3438 -0.0096 -0.2602
 4473TIP3    H134834   2.738   5.277   2.914  0.2639 -0.0262  0.4752
 4473TIP3    H234835   2.844   5.376   2.870  0.2683 -0.4384 -0.4440
 4474TIP3   OH234836   6.653   3.005  16.439 -0.0024 -0.2948 -0.5810
 4474TIP3    H134837   6.597   3.062  16.386  0.8388  0.8450 -0.2604
 4474TIP3    H234838   6.684   2.939  16.378 -1.4050 -0.7302 -0.8391
 4475TIP3   OH234839   6.380   2.421  12.540 -0.4129  0.2146  0.4220
 4475TIP3    H134840   6.413   2.350  12.595 -0.9878  0.0776  0.5964
 4475TIP3    H234841   6.383   2.386  12.451  1.9507  0.9710  0.1704
 4476TIP3   OH234842   0.217   0.487   1.832  0.3872 -0.3342 -0.1913
 4476TIP3    H134843   0.152   0.432   1.788 -0.5190  0.9905 -0.5335
 4476TIP3    H234844   0.174   0.516   1.912  0.9393 -0.2931  0.0912
 4477TIP3   OH234845   5.503   5.047  13.412 -0.5172  0.8484  0.0814
 4477TIP3    H134846   5.448   5.000  13.474 -1.1038  0.9512 -0.3573
 4477TIP3    H234847   5.528   4.981  13.347 -0.7318  0.9728 -0.1270
 4478TIP3   OH234848   1.512   1.575  14.790 -0.5548  0.6306 -0.2771
 4478TIP3    H134849   1.431   1.595  14.743 -0.0990 -0.3998 -1.5379
 4478TIP3    H234850   1.580   1.616  14.737  0.0261 -1.0932 -0.9018
 4479TIP3   OH234851   6.158   3.056  16.807  0.2386  0.2325 -0.5953
 4479TIP3    H134852   6.224   3.110  16.763  0.1567  0.0410 -0.9539
 4479TIP3    H234853   6.145   3.098  16.892  1.6460 -0.3561 -0.0659
 4480TIP3   OH234854   4.136   3.056  10.655  0.0435 -0.7395  0.8817
 4480TIP3    H134855   4.225   3.028  10.674  1.5559  2.7391 -0.7511
 4480TIP3    H234856   4.098   2.983  10.605  3.4106 -0.5483 -2.1708
 4481TIP3   OH234857   2.498   3.374   1.350 -0.1861 -0.6257 -0.5393
 4481TIP3    H134858   2.559   3.300   1.359 -0.0270 -0.3631  0.4880
 4481TIP3    H234859   2.484   3.381   1.255 -1.3684 -2.9345 -0.5865
 4482TIP3   OH234860   4.827   0.338   2.600 -0.5914  0.1042  0.2976
 4482TIP3    H134861   4.874   0.269   2.552  0.1894  0.6252  0.3051
 4482TIP3    H234862   4.817   0.408   2.536 -1.0014  0.1583  0.4213
 4483TIP3   OH234863   0.069   4.867   3.331 -0.2900 -0.9887  0.3497
 4483TIP3    H134864   0.022   4.928   3.274 -0.6241  0.2613  1.9434
 4483TIP3    H234865   0.056   4.902   3.419  2.4693 -1.4144  0.9523
 4484TIP3   OH234866   4.765   5.288  11.073 -0.4470  0.4047  0.7866
 4484TIP3    H134867   4.754   5.196  11.098 -0.7535  0.2223 -0.0053
 4484TIP3    H234868   4.685   5.309  11.026  0.4044  0.5430 -0.6251
 4485TIP3   OH234869   6.356   0.251  12.692  0.4687 -0.4717  0.2307
 4485TIP3    H134870   6.366   0.327  12.634  0.8146 -0.5807  0.1472
 4485TIP3    H234871   6.262   0.233  12.691  0.2085  0.7472  1.2643
 4486TIP3   OH234872   4.980   4.771  11.397  0.0412 -0.0056  0.3422
 4486TIP3    H134873   5.016   4.810  11.318 -0.0167  1.9082  1.2490
 4486TIP3    H234874   5.030   4.690  11.409  0.7360  0.2019 -1.0651
 4487TIP3   OH234875   5.961   4.407   1.550  0.0582  0.0990  0.1223
 4487TIP3    H134876   5.982   4.437   1.638  0.1881  0.4665 -0.0311
 4487TIP3    H234877   6.046   4.391   1.509 -0.0041 -0.2038  0.1096
 4488TIP3   OH234878   3.212   2.428  10.960 -0.5616 -0.1252  0.3925
 4488TIP3    H134879   3.273   2.502  10.960 -0.5796 -0.1076  0.6657
 4488TIP3    H234880   3.181   2.424  11.051 -0.2662 -0.7112  0.4653
 4489TIP3   OH234881   1.497   4.883   0.994  0.5874  0.4401  0.2273
 4489TIP3    H134882   1.560   4.912   0.928 -1.7505  0.9015 -1.8517
 4489TIP3    H234883   1.523   4.930   1.074  2.7263  0.7709 -0.6251
 4490TIP3   OH234884   3.606   0.783  16.688  0.5237  0.0586 -0.1068
 4490TIP3    H134885   3.515   0.802  16.665  0.9562  1.6034 -0.6281
 4490TIP3    H234886   3.652   0.781  16.605  1.0115 -0.5008  0.1739
 4491TIP3   OH234887   0.870   0.874   2.709 -1.0187  0.0714  0.2723
 4491TIP3    H134888   0.866   0.789   2.665  0.1859 -0.8218  1.8363
 4491TIP3    H234889   0.957   0.908   2.686 -1.5097  0.9056 -0.3721
 4492TIP3   OH234890   6.150   3.989  14.012 -0.1786  0.2412 -0.7684
 4492TIP3    H134891   6.078   4.018  13.956  0.8309  2.6752 -0.8914
 4492TIP3    H234892   6.229   4.001  13.959  0.3537 -2.4862 -0.6752
 4493TIP3   OH234893   6.280   2.486   5.502  0.1277 -0.3904 -0.7807
 4493TIP3    H134894   6.322   2.400   5.495 -0.7052 -0.8906  0.3093
 4493TIP3    H234895   6.284   2.507   5.595  0.7717  0.9883 -1.1024
 4494TIP3   OH234896   5.757   2.412   0.601 -0.3545 -0.3322  0.2633
 4494TIP3    H134897   5.724   2.354   0.532  0.7160 -1.5208  0.7336
 4494TIP3    H234898   5.845   2.379   0.620  0.6870  2.0822 -0.1844
 4495TIP3   OH234899   3.513   2.850   0.614 -0.2955 -0.0202 -0.8011
 4495TIP3    H134900   3.510   2.933   0.661  1.5577  0.2107 -1.0548
 4495TIP3    H234901   3.524   2.783   0.682 -1.5102 -0.0453 -0.6197
 4496TIP3   OH234902   2.048   0.990   1.351 -0.6850  0.4400  0.1729
 4496TIP3    H134903   2.044   0.901   1.317 -0.6422  0.0770  1.1201
 4496TIP3    H234904   2.029   1.045   1.275 -3.8445 -0.4825  0.2077
 4497TIP3   OH234905   1.830   3.816  11.919 -0.4222  0.2213 -1.2923
 4497TIP3    H134906   1.848   3.874  11.993 -0.7215 -0.9634 -0.2741
 4497TIP3    H234907   1.877   3.855  11.845 -0.7955  1.8626 -0.6718
 4498TIP3   OH234908   1.601   4.137  14.167  0.3312  0.4696 -0.3176
 4498TIP3    H134909   1.534   4.179  14.221 -0.7180 -1.2112 -0.3028
 4498TIP3    H234910   1.559   4.058  14.133  2.1281 -0.3036 -0.7678
 4499TIP3   OH234911   0.042   4.575   2.401  0.3146  0.2726 -0.1257
 4499TIP3    H134912  -0.004   4.509   2.453 -0.4997 -2.1116 -3.6261
 4499TIP3    H234913   0.128   4.583   2.442 -0.2525 -1.5852  1.4988
 4500TIP3   OH234914   4.158   6.206   3.744  0.1403 -0.0828  0.2981
 4500TIP3    H134915   4.216   6.137   3.712  0.3633 -0.7041  1.9906
 4500TIP3    H234916   4.197   6.287   3.712 -0.8675 -0.7780 -2.8759
 4501TIP3   OH234917   6.208   3.186  16.135  0.1252  0.2298  0.2315
 4501TIP3    H134918   6.184   3.261  16.189  1.5861  0.2131  0.9273
 4501TIP3    H234919   6.126   3.159  16.094 -0.4915  1.9772  0.2505
 4502TIP3   OH234920   4.735   6.183  14.002  0.2643 -0.6959  0.3740
 4502TIP3    H134921   4.794   6.109  13.988 -0.2441 -0.9838 -0.2609
 4502TIP3    H234922   4.696   6.166  14.087  1.8107 -0.0040  1.2569
 4503TIP3   OH234923   3.530   0.624   3.253 -0.4141 -0.2021  0.1184
 4503TIP3    H134924   3.583   0.637   3.331 -1.1349  0.5887  0.4892
 4503TIP3    H234925   3.562   0.690   3.191 -1.9829  1.3391  0.8960
 4504TIP3   OH234926   4.102   6.702  14.660  0.0386  0.2803 -0.1284
 4504TIP3    H134927   4.024   6.651  14.680 -0.0224  0.0593 -0.8887
 4504TIP3    H234928   4.138   6.726  14.745 -0.8351  0.3537  0.2215
 4505TIP3   OH234929   1.635   6.634  16.791 -0.2475 -0.1095 -0.5468
 4505TIP3    H134930   1.650   6.540  16.784 -0.1546  0.0758 -3.0535
 4505TIP3    H234931   1.593   6.645  16.877 -0.3191 -2.4235 -0.2616
 4506TIP3   OH234932   0.521   4.535  13.385 -0.1731 -0.3745 -0.2660
 4506TIP3    H134933   0.568   4.494  13.458 -0.3764  0.7981  0.5404
 4506TIP3    H234934   0.580   4.527  13.311  1.4941  1.4029  0.8233
 4507TIP3   OH234935   3.222   6.322   3.738 -0.1358  0.4363  0.6433
 4507TIP3    H134936   3.246   6.292   3.825 -1.6834  1.2726  1.3651
 4507TIP3    H234937   3.269   6.404   3.727 -0.2121  0.5051  0.8299
 4508TIP3   OH234938   3.257   0.682   0.310  0.3213 -0.0093  0.0636
 4508TIP3    H134939   3.250   0.768   0.351  0.3812 -0.0671  0.1953
 4508TIP3    H234940   3.191   0.629   0.355  0.6188 -0.1628  0.3128
 4509TIP3   OH234941   0.471   3.555  10.973 -0.0277  0.3928  0.0039
 4509TIP3    H134942   0.382   3.591  10.970 -0.9293 -1.6238  1.2767
 4509TIP3    H234943   0.481   3.510  10.889 -1.1999 -1.5689  0.8888
 4510TIP3   OH234944   5.976   2.372   3.901 -0.0734 -0.1695 -0.4278
 4510TIP3    H134945   5.909   2.413   3.955  1.7600  0.0388  1.7878
 4510TIP3    H234946   6.034   2.444   3.876  0.2717 -0.6008 -0.8915
 4511TIP3   OH234947   2.566   3.407   5.066  0.2098 -0.4692 -0.1688
 4511TIP3    H134948   2.576   3.353   5.144  0.9274 -0.0967  0.0051
 4511TIP3    H234949   2.524   3.487   5.097  1.1434 -0.0251 -0.0281
 4512TIP3   OH234950   0.379   6.449   3.036  0.4876 -0.8174 -0.2069
 4512TIP3    H134951   0.326   6.419   3.110  1.3244 -0.5719  0.4941
 4512TIP3    H234952   0.317   6.455   2.963 -0.8910  1.4256  1.0814
 4513TIP3   OH234953   3.351   4.312   3.724 -0.2030  0.5195 -0.1087
 4513TIP3    H134954   3.302   4.384   3.765 -1.2087 -0.3701  0.2876
 4513TIP3    H234955   3.288   4.272   3.664  0.1837 -0.3672  0.0767
 4514TIP3   OH234956   4.368   5.920  14.221  0.2791  0.0777  0.0332
 4514TIP3    H134957   4.436   5.890  14.282 -0.1693 -0.0914  0.4572
 4514TIP3    H234958   4.293   5.865  14.241  0.9482 -1.8401 -2.5313
 4515TIP3   OH234959   1.214   3.628  14.972  0.0192 -0.4860 -0.5280
 4515TIP3    H134960   1.238   3.540  15.000  2.0224  0.5055  0.9541
 4515TIP3    H234961   1.165   3.664  15.046  2.3158  0.9016  0.3665
 4516TIP3   OH234962   4.740   4.883   3.488  0.2624 -0.2923  0.0231
 4516TIP3    H134963   4.667   4.935   3.523  0.0159 -0.1733 -0.6444
 4516TIP3    H234964   4.818   4.935   3.507  0.1048 -0.0990  0.1501
 4517TIP3   OH234965   3.969   1.846  15.904  0.2883 -0.8141 -0.2658
 4517TIP3    H134966   3.939   1.772  15.957  0.7745 -0.9015 -0.1117
 4517TIP3    H234967   3.892   1.871  15.853  0.6519 -2.6894 -1.7946
 4518TIP3   OH234968   5.996   2.836   4.061 -0.1741  0.4311  0.1732
 4518TIP3    H134969   5.912   2.792   4.063 -0.2447  0.6233  2.6954
 4518TIP3    H234970   5.975   2.929   4.054 -0.0835  0.3163 -2.0017
 4519TIP3   OH234971   3.351   4.547   0.287  0.0205 -0.0800  0.0298
 4519TIP3    H134972   3.403   4.473   0.319 -0.8387 -0.2296  1.1312
 4519TIP3    H234973   3.377   4.620   0.344  0.7277  0.4198 -0.9308
 4520TIP3   OH234974   1.553   5.016  11.057  0.0605  0.0747  0.4596
 4520TIP3    H134975   1.647   5.000  11.061  0.3631  2.0727  2.3148
 4520TIP3    H234976   1.514   4.942  11.104  0.8610  0.3846  1.6380
 4521TIP3   OH234977   4.750   5.076   1.240 -0.0972 -0.1637  0.6245
 4521TIP3    H134978   4.795   5.010   1.293 -0.7572 -0.3793  0.9187
 4521TIP3    H234979   4.779   5.160   1.276  1.6743 -0.2547 -0.5116
 4522TIP3   OH234980   0.876   0.191  11.842 -0.0945  0.1090  0.3724
 4522TIP3    H134981   0.882   0.096  11.852  0.1680  0.2108  1.2441
 4522TIP3    H234982   0.858   0.223  11.931  3.2576  1.1686  0.7145
 4523TIP3   OH234983   1.814   2.950   5.536 -0.2015  0.2534 -0.3294
 4523TIP3    H134984   1.773   2.872   5.573 -1.9203  0.4608 -1.7291
 4523TIP3    H234985   1.908   2.929   5.533 -0.3492 -0.8301  1.4686
 4524TIP3   OH234986   5.607   3.660   0.191  0.6252  0.3590  0.2024
 4524TIP3    H134987   5.534   3.659   0.253  1.3818  0.3448  1.1130
 4524TIP3    H234988   5.603   3.747   0.151  0.6857  0.7178  0.9628
 4525TIP3   OH234989   4.729   5.886  13.924 -0.3670 -0.3815  0.0983
 4525TIP3    H134990   4.741   5.792  13.910 -1.0844 -0.2705 -1.4066
 4525TIP3    H234991   4.637   5.901  13.902 -0.4535  0.5626  1.0530
 4526TIP3   OH234992   4.342   6.063   0.494  0.1130  0.6658  0.2316
 4526TIP3    H134993   4.259   6.093   0.459  0.3025  1.2592  0.2947
 4526TIP3    H234994   4.332   6.069   0.589  0.6950  2.0038  0.2155
 4527TIP3   OH234995   4.962   5.083  15.801  0.0018 -0.3459 -0.2212
 4527TIP3    H134996   4.982   5.162  15.851  0.0709 -0.2020 -0.4750
 4527TIP3    H234997   4.900   5.035  15.856  0.3921 -0.3875  0.1850
 4528TIP3   OH234998   2.064   1.675   0.585 -0.4994 -0.6169  0.0920
 4528TIP3    H134999   1.993   1.691   0.523 -1.4161 -1.9975  0.7813
 4528TIP3    H235000   2.081   1.581   0.580  0.9971 -0.3791  0.2588
 4529TIP3   OH235001   6.418   2.302  15.940 -0.6768  0.1380 -0.4799
 4529TIP3    H135002   6.394   2.371  15.878  1.0779  0.0519 -1.2704
 4529TIP3    H235003   6.464   2.347  16.010  3.0962 -0.5215 -2.4207
 4530TIP3   OH235004   3.448   3.038   3.816 -0.3569 -0.6692 -0.0732
 4530TIP3    H135005   3.444   2.943   3.803  0.8527 -0.8840  0.9823
 4530TIP3    H235006   3.444   3.050   3.911  1.3728  0.2066 -0.0892
 4531TIP3   OH235007   3.617   4.568   4.954  0.6901 -0.1709  0.2029
 4531TIP3    H135008   3.534   4.580   4.999  1.8630 -0.3992  2.4864
 4531TIP3    H235009   3.657   4.492   4.997  2.9427  1.1268  0.4809
 4532TIP3   OH235010   4.486   4.665  11.603 -0.1858 -0.4587  0.1025
 4532TIP3    H135011   4.568   4.624  11.577 -1.4370 -2.1740 -1.3325
 4532TIP3    H235012   4.451   4.703  11.522 -2.0026 -1.9947  0.1090
 4533TIP3   OH235013   2.632   0.097   1.905  0.5728  0.0077  0.1199
 4533TIP3    H135014   2.643   0.050   1.822  3.3817 -1.1216  1.1004
 4533TIP3    H235015   2.553   0.059   1.944  1.0023 -1.6189 -0.5891
 4534TIP3   OH235016   2.101   6.592   2.410  0.6355  0.1083  0.3569
 4534TIP3    H135017   2.012   6.574   2.378  0.4695  0.9297  0.3500
 4534TIP3    H235018   2.097   6.572   2.503  0.2650  0.7879  0.4866
 4535TIP3   OH235019   0.066   6.742   3.699  0.3307 -0.2437  0.3362
 4535TIP3    H135020   0.015   6.662   3.713 -0.1048  0.1273  0.9054
 4535TIP3    H235021   0.119   6.723   3.622  1.1100 -1.5090  1.1560
 4536TIP3   OH235022   1.066   4.839   0.170  0.1298 -0.0292 -0.1381
 4536TIP3    H135023   1.125   4.879   0.106 -1.0418  1.1571 -0.4916
 4536TIP3    H235024   1.070   4.897   0.246  0.6321 -0.8114  0.4398
 4537TIP3   OH235025   3.338   5.753   0.263 -0.0147  0.6615 -0.0924
 4537TIP3    H135026   3.329   5.745   0.168 -1.1607 -1.9185  0.1982
 4537TIP3    H235027   3.408   5.692   0.286 -0.5177  0.4374  0.8647
 4538TIP3   OH235028   3.077   5.466  10.790 -0.5014  0.7287 -0.1749
 4538TIP3    H135029   3.003   5.454  10.849 -0.6413  0.6810 -0.3597
 4538TIP3    H235030   3.037   5.491  10.706 -0.2947  1.0021 -0.1937
 4539TIP3   OH235031   1.780   3.319  17.139  0.3798 -0.0938  0.1121
 4539TIP3    H135032   1.834   3.241  17.150  2.1084  1.0005 -0.4827
 4539TIP3    H235033   1.761   3.321  17.045 -0.4537 -0.3142  0.2752
 4540TIP3   OH235034   0.602   0.671  12.004  0.0739 -0.0907 -0.8916
 4540TIP3    H135035   0.672   0.735  11.994  0.4516 -0.2800  0.3795
 4540TIP3    H235036   0.596   0.657  12.099 -1.8692  0.1246 -0.9646
 4541TIP3   OH235037   0.572   0.822   2.425 -0.0665  0.0110  0.2139
 4541TIP3    H135038   0.540   0.825   2.335  1.4268 -0.1005 -0.3469
 4541TIP3    H235039   0.631   0.897   2.431 -0.3143  0.1294  1.1612
 4542TIP3   OH235040   0.962   6.651  13.888 -0.4702  0.1933 -0.3379
 4542TIP3    H135041   0.931   6.709  13.819  1.5371  0.8639 -0.7135
 4542TIP3    H235042   0.953   6.563  13.852 -1.5466  0.4004 -0.5811
 4543TIP3   OH235043   5.500   1.015  10.763  0.1794 -0.6479 -0.0143
 4543TIP3    H135044   5.426   1.024  10.703  0.1807  0.5901  0.1637
 4543TIP3    H235045   5.463   0.969  10.839  0.4712 -3.3681 -1.4406
 4544TIP3   OH235046   4.318   1.323   4.596 -0.4553 -0.2022 -0.2806
 4544TIP3    H135047   4.237   1.340   4.548  0.1472 -0.9359 -1.5915
 4544TIP3    H235048   4.295   1.339   4.688 -2.1182 -0.5489 -0.6113
 4545TIP3   OH235049   0.033   4.530  12.885  0.8374 -0.0296  0.1674
 4545TIP3    H135050   0.029   4.494  12.974  1.1430  0.3565  0.3343
 4545TIP3    H235051   0.026   4.453  12.828  2.2851 -0.4451  0.5284
 4546TIP3   OH235052   2.869   3.132  15.105  0.0474 -0.3921 -0.3210
 4546TIP3    H135053   2.851   3.218  15.143  0.5967 -1.4151  2.3678
 4546TIP3    H235054   2.810   3.126  15.030 -0.7257  1.9114  0.0630
 4547TIP3   OH235055   5.750   0.552   5.576  0.3325  0.1393  0.3647
 4547TIP3    H135056   5.674   0.536   5.521  0.9032  0.0922 -0.4126
 4547TIP3    H235057   5.807   0.607   5.524  1.7673 -1.5199  0.1201
 4548TIP3   OH235058   3.797   0.792  16.476  0.0099  0.4611  0.3838
 4548TIP3    H135059   3.828   0.703  16.456  0.0636  0.6619 -0.4244
 4548TIP3    H235060   3.853   0.849  16.423 -2.3856  0.7782 -1.8734
 4549TIP3   OH235061   3.343   0.499   5.813 -0.4785 -0.1722  0.2876
 4549TIP3    H135062   3.285   0.458   5.877 -0.5033 -0.5268  0.0405
 4549TIP3    H235063   3.430   0.494   5.853 -0.6757  0.7282  0.8380
 4550TIP3   OH235064   0.633   2.202   5.257  0.0543 -0.4804  0.2768
 4550TIP3    H135065   0.706   2.155   5.215  1.1748  0.4717  1.1053
 4550TIP3    H235066   0.673   2.283   5.289 -1.9396  1.2273 -1.4895
 4551TIP3   OH235067   3.602   4.203  16.059  0.3315  0.0835  0.7902
 4551TIP3    H135068   3.507   4.211  16.059  0.2348 -0.5542  3.2238
 4551TIP3    H235069   3.627   4.202  15.967 -1.9102  1.4093  0.1630
 4552TIP3   OH235070   3.658   3.503   5.620  0.1229  0.4937 -0.1121
 4552TIP3    H135071   3.617   3.448   5.687 -0.2253  1.1259  0.2028
 4552TIP3    H235072   3.585   3.550   5.580  0.3275  0.0613 -0.9860
 4553TIP3   OH235073   4.419   3.790  11.132  0.3596 -0.2655  0.4337
 4553TIP3    H135074   4.503   3.748  11.115  0.4682  0.0185  0.2723
 4553TIP3    H235075   4.431   3.834  11.216 -0.4763 -2.4592  1.7262
 4554TIP3   OH235076   6.701   4.882   5.399 -0.1165 -0.3052  0.2439
 4554TIP3    H135077   6.622   4.877   5.345 -0.2438 -0.4945  0.4466
 4554TIP3    H235078   6.688   4.961   5.453 -0.7536 -1.0348  1.1908
 4555TIP3   OH235079   6.243   3.132   3.238  0.3106 -0.7205  0.4178
 4555TIP3    H135080   6.155   3.107   3.268  0.2716 -0.9368  0.1336
 4555TIP3    H235081   6.302   3.097   3.304  0.2886 -1.9930 -0.2052
 4556TIP3   OH235082   4.211   4.692  11.283  0.0821 -0.7502 -0.2519
 4556TIP3    H135083   4.132   4.742  11.261  0.8330  0.9487  0.8063
 4556TIP3    H235084   4.199   4.670  11.376 -0.8479 -3.7199 -1.0139
 4557TIP3   OH235085   5.514   4.486  15.884  0.0955 -0.1408  0.3686
 4557TIP3    H135086   5.446   4.423  15.860  0.4705  0.0203 -1.1346
 4557TIP3    H235087   5.536   4.530  15.802 -1.0951  2.8856  1.6036
 4558TIP3   OH235088   6.697   6.579   1.356  0.2690  0.1642  0.1311
 4558TIP3    H135089   6.745   6.497   1.349  0.5340  0.4181 -1.1723
 4558TIP3    H235090   6.651   6.573   1.439  1.0741 -0.8796  0.5102
 4559TIP3   OH235091   5.356   2.951   1.627  0.2664  0.2098 -1.0169
 4559TIP3    H135092   5.267   2.981   1.606 -1.0331 -1.9217  1.1525
 4559TIP3    H235093   5.342   2.876   1.685  3.5049 -0.3807 -0.9445
 4560TIP3   OH235094   1.408   4.982   3.209  0.7300  0.3956  0.1864
 4560TIP3    H135095   1.473   4.916   3.184  0.1921 -0.4287  0.9264
 4560TIP3    H235096   1.325   4.933   3.213  0.1676  1.3052 -0.1286
 4561TIP3   OH235097   1.516   5.519  12.123  0.1104 -0.1756 -0.0156
 4561TIP3    H135098   1.430   5.558  12.107 -0.1408 -0.3079  1.0046
 4561TIP3    H235099   1.524   5.450  12.056 -0.3478  0.1917 -0.4498
 4562TIP3   OH235100   4.863   0.239  15.549  0.3026 -0.5422  0.1400
 4562TIP3    H135101   4.851   0.212  15.458 -0.3106  0.6179 -0.1400
 4562TIP3    H235102   4.783   0.287  15.571  0.1708 -1.3595  1.4987
 4563TIP3   OH235103   4.515   3.476   3.208 -0.0023  0.7503  0.1335
 4563TIP3    H135104   4.581   3.506   3.270  1.2570 -0.8765 -0.4003
 4563TIP3    H235105   4.528   3.382   3.201 -1.1508  0.6689 -1.4173
 4564TIP3   OH235106   0.370   2.655   0.415 -0.5963 -0.4050 -0.1087
 4564TIP3    H135107   0.319   2.579   0.440  0.8864 -1.5740 -0.5083
 4564TIP3    H235108   0.442   2.619   0.362  1.9560  0.8666  2.3205
 4565TIP3   OH235109   4.129   5.577   3.908  0.3159  0.0683  0.7721
 4565TIP3    H135110   4.136   5.666   3.873  0.7541  0.0962  0.9192
 4565TIP3    H235111   4.220   5.546   3.911  0.2652 -0.0078  1.6915
 4566TIP3   OH235112   2.398   1.897   0.757  0.2487  0.2062 -0.1864
 4566TIP3    H135113   2.365   1.882   0.845  1.4468  0.1603  0.2728
 4566TIP3    H235114   2.323   1.928   0.707 -0.4995 -0.0525  0.7814
 4567TIP3   OH235115   2.861   2.424  13.587 -0.2305 -0.1992  0.5498
 4567TIP3    H135116   2.946   2.468  13.578  0.0662 -0.8809 -0.1055
 4567TIP3    H235117   2.800   2.479  13.538  0.2015 -0.6603 -0.5355
 4568TIP3   OH235118   4.332   5.363  13.122 -0.4438 -0.3127  0.0183
 4568TIP3    H135119   4.323   5.274  13.087 -1.3916 -0.6488  1.0738
 4568TIP3    H235120   4.304   5.420  13.050 -1.6407 -0.9565 -0.0351
 4569TIP3   OH235121   6.725   0.211   1.107 -0.1424  0.4991 -0.3732
 4569TIP3    H135122   6.760   0.197   1.195 -1.0960  0.4427 -0.0029
 4569TIP3    H235123   6.659   0.142   1.095  1.1060 -0.4999 -1.7436
 4570TIP3   OH235124   3.396   6.188  15.749  0.0699 -0.5495 -0.2684
 4570TIP3    H135125   3.407   6.282  15.767 -0.9065 -0.5150  0.1924
 4570TIP3    H235126   3.463   6.168  15.684  0.6989  0.3307  0.0983
 4571TIP3   OH235127   3.595   2.883  12.208 -0.1029  0.2846 -0.7904
 4571TIP3    H135128   3.625   2.796  12.182 -1.1619 -0.0610 -0.8793
 4571TIP3    H235129   3.653   2.943  12.162  0.8528 -0.3699 -0.4730
 4572TIP3   OH235130   3.463   0.039  13.088  0.0386 -0.0789 -0.4699
 4572TIP3    H135131   3.549   0.006  13.062 -0.1959  0.3222 -1.7673
 4572TIP3    H235132   3.438  -0.016  13.162  0.9129 -0.9472 -0.8054
 4573TIP3   OH235133   6.258   6.705  14.356 -0.0198  0.0238  0.3843
 4573TIP3    H135134   6.241   6.743  14.270 -1.5365 -2.7887 -0.6269
 4573TIP3    H235135   6.173   6.708  14.401  0.6502  1.0202  1.6184
 4574TIP3   OH235136   5.537   2.842  15.485  0.4401  0.1177 -0.0765
 4574TIP3    H135137   5.500   2.929  15.496  2.6157  1.4288 -2.5371
 4574TIP3    H235138   5.473   2.795  15.432 -0.0267  0.7290 -0.0527
 4575TIP3   OH235139   4.740   6.457   3.130  0.1990  0.9834 -0.1590
 4575TIP3    H135140   4.725   6.544   3.167 -1.1908  0.5344  0.3792
 4575TIP3    H235141   4.804   6.417   3.189 -0.4914  0.9978  0.5976
 4576TIP3   OH235142   1.953   4.245   1.250 -0.0585 -0.1009  0.1483
 4576TIP3    H135143   1.937   4.336   1.272 -0.0569  0.0287 -0.3931
 4576TIP3    H235144   2.034   4.245   1.200  0.3679 -0.4901  0.8229
 4577TIP3   OH235145   1.526   5.473  12.406  0.6059  0.2769  0.1801
 4577TIP3    H135146   1.524   5.492  12.312 -0.7797 -1.4592 -0.1618
 4577TIP3    H235147   1.559   5.384  12.412  1.2962  0.6056  1.3995
 4578TIP3   OH235148   3.780   4.582   5.765 -0.6345 -0.3714  0.0062
 4578TIP3    H135149   3.855   4.523   5.764  0.0566  0.4793  0.1560
 4578TIP3    H235150   3.768   4.608   5.673  0.3199  0.7879  0.1945
 4579TIP3   OH235151   1.088   2.347  15.954 -0.0050 -0.6702  0.1769
 4579TIP3    H135152   1.168   2.361  15.902  0.6964 -0.1964  1.3519
 4579TIP3    H235153   1.018   2.345  15.890  0.8192  0.1682 -0.7752
 4580TIP3   OH235154   1.818   1.118   0.146 -0.1442 -0.0091  0.2088
 4580TIP3    H135155   1.840   1.201   0.103  1.7657 -0.4178  0.3682
 4580TIP3    H235156   1.772   1.068   0.079 -0.0561  0.6239 -0.3295
 4581TIP3   OH235157   3.131   6.281  14.653  0.1651  0.1366  0.4684
 4581TIP3    H135158   3.082   6.363  14.649 -1.2656 -0.6005  2.0769
 4581TIP3    H235159   3.221   6.305  14.631 -0.3886  1.9843  0.1526
 4582TIP3   OH235160   3.317   5.215  13.116 -0.6301  0.1374  0.3958
 4582TIP3    H135161   3.325   5.277  13.044  0.8869 -0.9771 -0.4125
 4582TIP3    H235162   3.399   5.225  13.166 -0.9241 -0.3083  0.9834
 4583TIP3   OH235163   5.248   5.552   0.954 -0.7048 -0.1924 -0.4263
 4583TIP3    H135164   5.163   5.588   0.929 -1.6972 -2.5889 -0.6606
 4583TIP3    H235165   5.264   5.584   1.042 -1.7434  0.4342 -0.4654
 4584TIP3   OH235166   4.710   2.864  13.940 -0.1293 -0.3384  0.4672
 4584TIP3    H135167   4.678   2.790  13.890 -0.8857 -0.5670  1.2746
 4584TIP3    H235168   4.785   2.896  13.890 -0.6214 -0.8059 -0.5797
 4585TIP3   OH235169   2.034   3.708  13.917 -0.9759  0.2917  0.1067
 4585TIP3    H135170   1.992   3.626  13.943 -2.0007  0.3162 -1.4291
 4585TIP3    H235171   1.974   3.747  13.855 -1.0535  2.7915  1.6896
 4586TIP3   OH235172   0.733   5.913   0.977  0.6426  0.7125  0.6779
 4586TIP3    H135173   0.682   5.955   0.907  0.5586 -0.1129  0.2378
 4586TIP3    H235174   0.748   5.824   0.946  2.9585  1.1344  0.4768
 4587TIP3   OH235175   3.183   4.825   0.920  0.1041  0.1720 -0.1984
 4587TIP3    H135176   3.101   4.794   0.959 -0.6815  0.3496 -1.6886
 4587TIP3    H235177   3.219   4.886   0.985  0.1219 -1.4805  1.3911
 4588TIP3   OH235178   2.587   0.919   0.382  0.1912 -0.8182  0.0425
 4588TIP3    H135179   2.600   0.928   0.477  1.4741  0.9249 -0.2889
 4588TIP3    H235180   2.665   0.873   0.352  0.0054 -0.9399 -0.2543
 4589TIP3   OH235181   0.921   5.720  12.739 -0.8793 -0.1812  0.6406
 4589TIP3    H135182   0.944   5.644  12.793 -3.9790 -0.4526  1.6897
 4589TIP3    H235183   0.911   5.792  12.800 -0.8419  0.3781 -0.0022
 4590TIP3   OH235184   1.909   0.067  13.412  0.3505  0.1669  0.3229
 4590TIP3    H135185   1.840   0.093  13.350 -0.4935  0.4837  1.3804
 4590TIP3    H235186   1.952  -0.008  13.370  0.2635  0.8399 -0.9785
 4591TIP3   OH235187   0.692   5.292   3.702  0.0064  0.0702  0.3591
 4591TIP3    H135188   0.637   5.370   3.694  0.0813  0.1252  0.3908
 4591TIP3    H235189   0.697   5.257   3.613  0.6127  0.5340  0.2082
 4592TIP3   OH235190   1.261   3.131   3.434 -0.1230  0.4807  0.6112
 4592TIP3    H135191   1.300   3.212   3.464  0.9512  0.2348 -0.0919
 4592TIP3    H235192   1.169   3.136   3.462 -0.1194  2.0336  0.3590
 4593TIP3   OH235193   2.536   4.074   2.679  0.4726  0.3089 -0.0094
 4593TIP3    H135194   2.576   4.100   2.596  0.4052 -1.2366 -0.5415
 4593TIP3    H235195   2.524   3.979   2.671 -1.5544  0.4553  0.8901
 4594TIP3   OH235196   4.921   5.970   2.806 -0.1116  0.0688  0.5551
 4594TIP3    H135197   4.842   5.923   2.833  0.9515 -1.3655  1.2373
 4594TIP3    H235198   4.946   6.021   2.883 -0.5371  0.7663  0.2368
 4595TIP3   OH235199   0.671   4.334   2.752 -0.2450 -0.1831  0.1033
 4595TIP3    H135200   0.748   4.288   2.785 -0.3043  0.1045  0.6337
 4595TIP3    H235201   0.628   4.369   2.830  0.3226  1.6252 -0.3722
 4596TIP3   OH235202   5.887   5.337   0.317 -0.1450 -0.0310  0.2316
 4596TIP3    H135203   5.974   5.358   0.352 -0.2148 -1.5237  1.3740
 4596TIP3    H235204   5.837   5.418   0.327  0.8851  0.6060  0.2993
 4597TIP3   OH235205   0.337   3.895   4.140 -0.0866  0.4616 -0.2580
 4597TIP3    H135206   0.382   3.926   4.061 -0.5916 -2.3335 -1.6917
 4597TIP3    H235207   0.247   3.927   4.130 -0.8488 -2.1261 -2.2013
 4598TIP3   OH235208   1.076   1.130  15.971 -0.1232  0.8174 -0.6925
 4598TIP3    H135209   1.059   1.072  16.045 -0.0244  1.1191 -0.4335
 4598TIP3    H235210   1.056   1.218  16.004  0.1696  0.9797 -0.9445
 4599TIP3   OH235211   3.494   6.248   2.107  0.0892  0.0772 -0.3940
 4599TIP3    H135212   3.475   6.202   2.025 -0.3079  0.1238 -0.3298
 4599TIP3    H235213   3.487   6.341   2.084 -0.4194  0.0859 -0.2170
 4600TIP3   OH235214   2.862   0.958  14.281  0.0476  0.3914 -0.0573
 4600TIP3    H135215   2.840   1.020  14.212 -2.1555  0.4089  0.6111
 4600TIP3    H235216   2.917   1.008  14.342  0.4585  0.9087 -0.8466
 4601TIP3   OH235217   0.410   1.368  16.870 -0.1740  0.0975  0.0916
 4601TIP3    H135218   0.487   1.312  16.871 -0.2744 -0.0594 -0.8215
 4601TIP3    H235219   0.354   1.332  16.801 -0.0170  1.6058 -0.8506
 4602TIP3   OH235220   1.616   5.550  15.240  0.4145 -0.4077  0.4425
 4602TIP3    H135221   1.656   5.636  15.253  1.5775 -1.0102  0.9150
 4602TIP3    H235222   1.644   5.499  15.316  0.1024 -1.3370 -0.0645
 4603TIP3   OH235223   0.428   0.183  15.598 -0.2803 -0.0732 -0.0045
 4603TIP3    H135224   0.472   0.259  15.637  0.1327  0.6194 -1.7419
 4603TIP3    H235225   0.499   0.132  15.559 -0.6595 -0.8468  0.3097
 4604TIP3   OH235226   6.241   6.494  13.224 -0.3809  0.0550 -0.4160
 4604TIP3    H135227   6.230   6.469  13.315  0.3429 -1.9471 -0.8525
 4604TIP3    H235228   6.295   6.425  13.186  2.2471  2.6107 -1.5751
 4605TIP3   OH235229   5.284   2.383  11.972  0.0177  0.5397 -0.5746
 4605TIP3    H135230   5.196   2.417  11.952  0.2036  2.1610  1.2186
 4605TIP3    H235231   5.267   2.306  12.026 -0.3160  0.2520 -1.0798
 4606TIP3   OH235232   3.208   2.898  13.901 -0.4122  0.7735  0.0398
 4606TIP3    H135233   3.214   2.876  13.808 -3.6360 -0.3179  0.0165
 4606TIP3    H235234   3.237   2.989  13.906  0.8032  0.5231 -1.8520
 4607TIP3   OH235235   3.329   2.155   0.529  0.1561 -0.0510  0.1583
 4607TIP3    H135236   3.298   2.192   0.447 -0.4427  0.7507  0.7327
 4607TIP3    H235237   3.385   2.081   0.504  0.8792  0.8776 -0.9893
 4608TIP3   OH235238   2.442   1.480  13.816 -0.2540  0.4141 -0.3373
 4608TIP3    H135239   2.470   1.406  13.763 -0.1016 -0.5402  1.0253
 4608TIP3    H235240   2.523   1.519  13.849 -0.3727  0.2185  0.2047
 4609TIP3   OH235241   6.034   0.770  12.657  0.1709  0.5296  0.2792
 4609TIP3    H135242   6.109   0.803  12.707  0.4730  1.2024 -0.5961
 4609TIP3    H235243   6.042   0.675  12.660  2.6866  0.5837 -2.1667
 4610TIP3   OH235244   6.668   3.628  14.582 -0.0732  0.1076  0.0890
 4610TIP3    H135245   6.719   3.607  14.660  1.5725 -1.6231 -1.4247
 4610TIP3    H235246   6.681   3.554  14.524 -2.2928  0.8113 -1.3612
 4611TIP3   OH235247   1.388   2.781   2.417  0.5633 -0.0034 -0.0609
 4611TIP3    H135248   1.388   2.809   2.508 -1.1800  1.6316 -0.5304
 4611TIP3    H235249   1.305   2.735   2.406  1.4289 -1.5216 -0.4622
 4612TIP3   OH235250   2.085   2.026  16.962  0.4799 -0.3716  0.1273
 4612TIP3    H135251   2.049   2.088  16.899 -1.2904 -0.7182  0.7565
 4612TIP3    H235252   2.168   1.998  16.924 -0.1460  0.0862 -1.6274
 4613TIP3   OH235253   4.148   5.452   0.733  0.4276  0.0010  0.2750
 4613TIP3    H135254   4.126   5.434   0.825  1.3785  1.1538  0.7387
 4613TIP3    H235255   4.148   5.366   0.692 -0.4184 -0.4872  1.2707
 4614TIP3   OH235256   2.394   0.192   1.745 -0.5494  0.0364  0.3972
 4614TIP3    H135257   2.382   0.098   1.734  1.9067 -0.1511 -1.0569
 4614TIP3    H235258   2.480   0.210   1.706 -0.5683  2.7277  1.4879
 4615TIP3   OH235259   3.908   4.397  12.585  0.1245  0.4222  0.2718
 4615TIP3    H135260   3.877   4.472  12.634 -0.2752  0.2855  0.2320
 4615TIP3    H235261   3.980   4.431  12.532  1.3306  0.3102  1.8098
 4616TIP3   OH235262   5.918   6.065  15.141 -0.0662  0.1759  0.1531
 4616TIP3    H135263   5.849   6.119  15.179  0.0440 -0.8661  1.8815
 4616TIP3    H235264   5.987   6.127  15.117 -1.4206  1.1753 -1.2028
 4617TIP3   OH235265   5.598   0.239  12.741  0.2145  0.2399  0.1075
 4617TIP3    H135266   5.613   0.249  12.835 -0.6381  0.8470  0.1934
 4617TIP3    H235267   5.590   0.145  12.727  1.0776  0.1091  0.5272
 4618TIP3   OH235268   4.341   0.445   3.935  0.1512  0.5367 -0.3303
 4618TIP3    H135269   4.285   0.513   3.971 -0.1309 -0.5805  1.3977
 4618TIP3    H235270   4.291   0.408   3.862 -0.4561  0.9378 -0.1171
 4619TIP3   OH235271   0.833   3.073   5.996 -0.1638  0.3218  0.1340
 4619TIP3    H135272   0.750   3.058   5.951 -0.3082 -1.8818  1.0998
 4619TIP3    H235273   0.844   3.168   5.993 -0.7110  0.3678 -3.5627
 4620TIP3   OH235274   6.361   0.128  11.550  0.0488 -0.1695 -0.2644
 4620TIP3    H135275   6.437   0.175  11.583  0.1981  0.5799 -1.6568
 4620TIP3    H235276   6.390   0.091  11.466 -1.1565  0.2276 -0.8676
 4621TIP3   OH235277   6.435   1.060   6.643  0.0400 -0.3315 -0.1508
 4621TIP3    H135278   6.399   0.976   6.615 -0.2573  0.3344 -1.8236
 4621TIP3    H235279   6.463   1.103   6.562  0.8092  0.9033  0.7420
 4622TIP3   OH235280   2.841   5.090  14.109  0.6064 -0.3305  0.4068
 4622TIP3    H135281   2.797   5.173  14.126  1.6214  0.5889 -1.2907
 4622TIP3    H235282   2.932   5.114  14.094  0.5225 -1.4824 -2.2130
 4623TIP3   OH235283   0.246   2.402   0.418 -0.7016  0.4785 -0.1747
 4623TIP3    H135284   0.342   2.401   0.417 -0.7017  0.1262  0.2222
 4623TIP3    H235285   0.222   2.319   0.457 -1.1768  0.4142 -0.6059
 4624TIP3   OH235286   6.329   0.736  15.104  0.4014 -0.2031  0.3594
 4624TIP3    H135287   6.289   0.683  15.173  1.6708  0.4222  1.5953
 4624TIP3    H235288   6.258   0.791  15.071 -0.6717 -1.8921 -0.1848
 4625TIP3   OH235289   6.393   4.829  15.174 -0.0021  0.0595 -0.1511
 4625TIP3    H135290   6.383   4.734  15.162  0.4904  0.0384 -0.4208
 4625TIP3    H235291   6.352   4.847  15.259 -2.0738 -0.0447 -1.1195
 4626TIP3   OH235292   0.136   0.592   5.895 -0.8200  0.3232  0.3486
 4626TIP3    H135293   0.043   0.573   5.885 -0.3441 -0.2751 -3.6840
 4626TIP3    H235294   0.155   0.659   5.830  2.2368 -2.1572 -1.4975
 4627TIP3   OH235295   0.268   4.446  11.866 -0.0787 -0.3448 -0.1948
 4627TIP3    H135296   0.315   4.394  11.802  1.1216 -1.2654  1.4044
 4627TIP3    H235297   0.332   4.463  11.935 -1.1905  1.0756  0.5148
 4628TIP3   OH235298   2.792   2.741  12.804 -0.5196 -0.2819  0.6009
 4628TIP3    H135299   2.748   2.704  12.880 -1.5252  0.0339  0.1760
 4628TIP3    H235300   2.735   2.721  12.730  0.6406 -0.9212 -0.1414
 4629TIP3   OH235301   1.488   6.779  14.718  0.1104  0.2320 -0.0332
 4629TIP3    H135302   1.417   6.835  14.687  0.0657 -0.1972 -0.7449
 4629TIP3    H235303   1.460   6.690  14.694  0.2267 -0.0805  0.9781
 4630TIP3   OH235304   6.026   0.982  12.055  0.2906 -0.4395  0.5339
 4630TIP3    H135305   6.024   0.975  11.959  1.9063 -0.0108  0.4545
 4630TIP3    H235306   5.940   1.019  12.078  0.7311  1.6445 -0.9520
 4631TIP3   OH235307   3.239   4.382  17.127  0.7420 -0.1581 -0.3758
 4631TIP3    H135308   3.222   4.467  17.167  2.0102 -0.4595  0.8284
 4631TIP3    H235309   3.231   4.398  17.033  2.7827  1.7252 -0.2659
 4632TIP3   OH235310   2.973   0.696   5.544 -0.3367 -0.2103  0.2439
 4632TIP3    H135311   2.995   0.663   5.630  1.5251  0.3586 -0.0027
 4632TIP3    H235312   2.923   0.776   5.561 -0.7883 -0.6065  0.7927
 4633TIP3   OH235313   6.012   0.291  12.002  0.2531 -0.0508 -0.3741
 4633TIP3    H135314   6.067   0.252  11.935 -0.7179 -1.3595 -0.4442
 4633TIP3    H235315   6.035   0.244  12.082  1.3416  1.4364  0.1995
 4634TIP3   OH235316   3.426   0.762   1.224 -0.4957 -0.2595  0.1002
 4634TIP3    H135317   3.509   0.797   1.257 -0.5842  1.5160 -1.4365
 4634TIP3    H235318   3.361   0.792   1.287 -0.2810  0.5483 -0.0491
 4635TIP3   OH235319   1.401   3.677  12.693 -0.1670 -0.0538  0.2716
 4635TIP3    H135320   1.332   3.742  12.706 -0.4919 -0.3198 -0.1077
 4635TIP3    H235321   1.471   3.726  12.650 -1.0593 -0.3275 -1.5207
 4636TIP3   OH235322   1.334   1.413  15.427  0.0886 -0.0276  0.1084
 4636TIP3    H135323   1.305   1.338  15.479 -0.0707 -0.8074 -1.0674
 4636TIP3    H235324   1.429   1.405  15.424  0.3209  1.5667  2.5434
 4637TIP3   OH235325   0.701   4.580   0.209 -0.8424 -0.4780 -0.4589
 4637TIP3    H135326   0.671   4.651   0.152 -1.6726 -0.4837 -0.0445
 4637TIP3    H235327   0.621   4.549   0.251 -0.0226  0.6642  2.0320
 4638TIP3   OH235328   5.778   0.315   3.271  0.1360  0.0031 -0.1332
 4638TIP3    H135329   5.732   0.395   3.294  1.5110  0.8871 -0.3970
 4638TIP3    H235330   5.871   0.339   3.275  0.4998 -0.7595 -3.1085
 4639TIP3   OH235331   3.986   1.928   4.982 -0.1444 -0.6474  0.4015
 4639TIP3    H135332   4.031   1.899   4.902  0.6826 -0.4458  0.7910
 4639TIP3    H235333   3.911   1.978   4.950 -0.9416 -2.2110 -0.2755
 4640TIP3   OH235334   0.069   2.471  14.092 -0.1767 -0.1576 -0.2076
 4640TIP3    H135335   0.001   2.416  14.051  0.5177 -1.7052  0.6672
 4640TIP3    H235336   0.149   2.420  14.081  0.5557  0.8944  0.2633
 4641TIP3   OH235337   0.338   6.646   0.456  0.2408 -0.3404  0.2833
 4641TIP3    H135338   0.388   6.612   0.382 -0.9923  0.5349 -0.9743
 4641TIP3    H235339   0.251   6.607   0.445 -0.2580  0.6732  0.6548
 4642TIP3   OH235340   6.008   6.078  14.602 -0.1203 -0.3903  0.1139
 4642TIP3    H135341   5.934   6.097  14.543 -1.3714 -3.4091  0.6178
 4642TIP3    H235342   6.051   6.163  14.614 -1.5171  0.8243 -2.8724
 4643TIP3   OH235343   5.855   0.896  10.608 -0.2028 -0.1861  0.2177
 4643TIP3    H135344   5.777   0.849  10.579 -0.2285 -0.8414  1.2843
 4643TIP3    H235345   5.829   0.987  10.613 -1.0058 -0.4492  0.8802
 4644TIP3   OH235346   6.580   0.230   0.858  0.2406 -0.5594 -0.0478
 4644TIP3    H135347   6.573   0.243   0.764  0.2307 -2.5435 -0.3434
 4644TIP3    H235348   6.672   0.251   0.879  0.0918  0.4475 -0.3913
 4645TIP3   OH235349   0.410   2.054   4.777  0.0612  0.1767  0.4351
 4645TIP3    H135350   0.374   1.984   4.832 -4.0152 -0.6872 -3.0730
 4645TIP3    H235351   0.358   2.131   4.798  1.4435  0.9916  0.9385
 4646TIP3   OH235352   2.577   5.476  12.514 -0.1440 -0.0995 -0.4176
 4646TIP3    H135353   2.616   5.527  12.442  0.6706 -1.6612 -1.0995
 4646TIP3    H235354   2.603   5.524  12.593  1.4268  0.0298 -0.9873
 4647TIP3   OH235355   2.035   5.891  13.092 -0.1484  0.3550 -0.2793
 4647TIP3    H135356   2.042   5.871  12.999  3.2239  0.7802 -0.1887
 4647TIP3    H235357   1.967   5.959  13.098 -1.5395 -0.8405 -2.2020
 4648TIP3   OH235358   3.445   5.111   6.769  0.4030 -0.2766 -0.7713
 4648TIP3    H135359   3.485   5.037   6.815  0.4875 -0.3964 -1.0320
 4648TIP3    H235360   3.359   5.078   6.742  0.3986 -0.2431 -0.7978
 4649TIP3   OH235361   1.408   5.808  16.163 -0.5260  0.0236 -0.1396
 4649TIP3    H135362   1.324   5.763  16.158 -0.4232 -0.1334 -0.4712
 4649TIP3    H235363   1.429   5.831  16.072 -1.1226  1.7575  0.1364
 4650TIP3   OH235364   3.359   6.282   3.975  0.1112 -0.4613 -0.0354
 4650TIP3    H135365   3.319   6.197   3.992 -2.3380  0.6346  0.0131
 4650TIP3    H235366   3.377   6.318   4.062  0.7291 -0.7394 -0.0478
 4651TIP3   OH235367   6.551   0.299  13.171 -0.0292 -0.1644  1.0535
 4651TIP3    H135368   6.630   0.250  13.196  0.2172  1.0224  2.6592
 4651TIP3    H235369   6.480   0.256  13.218 -0.1369 -0.3892  0.6830
 4652TIP3   OH235370   4.906   5.994   3.378  0.0612 -0.6714 -0.1923
 4652TIP3    H135371   4.909   5.899   3.371 -1.1984 -0.6599 -0.9365
 4652TIP3    H235372   4.984   6.023   3.330 -0.8476 -1.2356 -2.0606
 4653TIP3   OH235373   5.515   1.599  10.575 -0.3746 -0.3647  0.1978
 4653TIP3    H135374   5.597   1.645  10.558 -1.0081  0.7252  0.0261
 4653TIP3    H235375   5.452   1.640  10.515 -1.7461  0.9128  2.4542
 4654TIP3   OH235376   0.467   3.103  11.094 -0.0692 -0.4903 -0.0826
 4654TIP3    H135377   0.512   3.147  11.166 -0.1865 -1.0476  0.3366
 4654TIP3    H235378   0.532   3.099  11.024 -0.0398  0.2959 -0.1087
 4655TIP3   OH235379   0.958   0.097  13.485  0.0425 -0.0314  0.3599
 4655TIP3    H135380   0.889   0.070  13.425  0.8873  1.1946 -1.2316
 4655TIP3    H235381   0.985   0.183  13.452  0.3410  0.8014  2.6916
 4656TIP3   OH235382   4.557   2.440  13.411 -0.3601 -0.2369 -0.3779
 4656TIP3    H135383   4.596   2.427  13.324 -0.5570 -2.9968 -0.1184
 4656TIP3    H235384   4.632   2.452  13.469 -0.0095 -2.1054 -0.4018
 4657TIP3   OH235385   1.022   1.542   0.594  0.0639  0.0525  0.2163
 4657TIP3    H135386   0.952   1.484   0.564  0.0168  0.4676 -0.4740
 4657TIP3    H235387   1.102   1.492   0.580  0.1652  0.8161 -1.9980
 4658TIP3   OH235388   0.277   6.061  12.185  0.0777  0.1684 -0.5226
 4658TIP3    H135389   0.307   6.020  12.104  1.5009 -0.7955  0.4834
 4658TIP3    H235390   0.260   5.988  12.244 -1.0973  0.8674  0.0195
 4659TIP3   OH235391   1.225   3.760   5.312 -0.5170 -0.4739 -0.1308
 4659TIP3    H135392   1.198   3.688   5.369 -1.1674 -0.7763 -0.7976
 4659TIP3    H235393   1.314   3.781   5.340  0.1031 -2.2961 -0.6434
 4660TIP3   OH235394   1.188   6.019  14.014  0.2473  0.0505  0.3724
 4660TIP3    H135395   1.165   6.016  13.921 -0.7310  0.6452  0.5855
 4660TIP3    H235396   1.261   6.081  14.018 -0.2972  0.7335  0.1021
 4661TIP3   OH235397   4.166   0.767   1.943  0.1006 -0.4113  0.1913
 4661TIP3    H135398   4.148   0.781   1.850 -0.6374  3.4438  0.8182
 4661TIP3    H235399   4.080   0.749   1.981  0.1434 -0.1773  0.3992
 4662TIP3   OH235400   5.207   3.424   0.929 -0.5791 -0.3253 -0.0058
 4662TIP3    H135401   5.183   3.348   0.876 -1.0054  0.8070 -1.4637
 4662TIP3    H235402   5.234   3.490   0.866  0.5247  0.4970  1.2963
 4663TIP3   OH235403   4.367   2.149  14.309  0.1553 -0.1553 -1.0194
 4663TIP3    H135404   4.425   2.224  14.295  1.3755 -1.2269 -1.8478
 4663TIP3    H235405   4.283   2.188  14.335  1.3255  1.4105  0.5650
 4664TIP3   OH235406   2.815   4.660  14.204 -0.2324 -0.1304 -0.2946
 4664TIP3    H135407   2.759   4.603  14.257  0.3326 -0.5940 -0.1952
 4664TIP3    H235408   2.775   4.747  14.213 -0.8076 -0.4156 -0.0435
 4665TIP3   OH235409   6.665   0.561  11.932  0.2079 -0.5322 -0.0759
 4665TIP3    H135410   6.588   0.555  11.874 -0.2669 -2.3668  0.6927
 4665TIP3    H235411   6.721   0.488  11.904  2.2067  1.4635 -1.3601
 4666TIP3   OH235412   5.625   6.046  14.963 -0.6601  0.6967 -0.4045
 4666TIP3    H135413   5.608   6.096  15.043  0.9660 -0.4530  0.7014
 4666TIP3    H235414   5.562   5.974  14.966 -0.4330  0.5100 -0.0101
 4667TIP3   OH235415   1.825   4.078   4.684  0.2454 -0.1437 -0.4756
 4667TIP3    H135416   1.782   4.014   4.628  0.1491  0.7897 -1.5058
 4667TIP3    H235417   1.763   4.152   4.688  0.9241  0.4307 -0.4224
 4668TIP3   OH235418   3.272   1.374  11.915  0.4228 -0.5569 -0.6589
 4668TIP3    H135419   3.357   1.379  11.958  0.0265  0.0085  0.0573
 4668TIP3    H235420   3.213   1.340  11.981 -0.0743 -0.1919 -0.9081
 4669TIP3   OH235421   5.345   6.384   3.048  0.5441 -0.1234  0.2584
 4669TIP3    H135422   5.385   6.432   3.121 -1.2734 -1.0571  1.9176
 4669TIP3    H235423   5.419   6.347   3.001  1.8067  1.3302  1.0291
 4670TIP3   OH235424   1.099   5.734  15.472  0.0601  0.0045 -0.0800
 4670TIP3    H135425   1.054   5.755  15.390  0.3836  0.7592 -0.0717
 4670TIP3    H235426   1.034   5.751  15.539 -0.4515 -1.3576 -0.2239
 4671TIP3   OH235427   5.189   4.873   4.013  0.6392  0.0233 -0.0015
 4671TIP3    H135428   5.246   4.945   3.988  0.1312  0.8814  1.2709
 4671TIP3    H235429   5.247   4.806   4.048  0.8473  1.0085  1.5565
 4672TIP3   OH235430   4.474   1.579  15.857 -0.1241 -0.2606  0.0148
 4672TIP3    H135431   4.433   1.493  15.850 -0.4428 -0.2337  1.5070
 4672TIP3    H235432   4.415   1.631  15.912 -0.2313  1.1016 -1.3351
 4673TIP3   OH235433   2.156   3.779  11.199 -0.4752 -0.0263  0.3088
 4673TIP3    H135434   2.090   3.847  11.189  0.1377  0.5710  0.3202
 4673TIP3    H235435   2.228   3.821  11.247  0.9848  0.0570 -1.8814
 4674TIP3   OH235436   4.310   0.439   2.166  0.0203 -0.8365 -0.5010
 4674TIP3    H135437   4.371   0.442   2.240  0.3047  0.4613 -0.7692
 4674TIP3    H235438   4.313   0.348   2.135  1.3610 -0.9241 -0.1285
 4675TIP3   OH235439   4.481   4.253   1.484 -0.3583 -0.1127  0.7714
 4675TIP3    H135440   4.462   4.337   1.443  1.7470 -0.2672 -0.5973
 4675TIP3    H235441   4.395   4.219   1.511 -1.4121  1.5991 -0.3478
 4676TIP3   OH235442   0.365   6.146   0.989 -0.1030 -0.0665  0.0363
 4676TIP3    H135443   0.441   6.197   0.962 -1.6596  1.4526 -1.5683
 4676TIP3    H235444   0.362   6.072   0.929 -0.4564  0.4089 -0.5338
 4677TIP3   OH235445   1.022   3.305  16.467 -0.0483  0.4751  0.1696
 4677TIP3    H135446   1.062   3.311  16.380  3.2011  0.0597  1.5474
 4677TIP3    H235447   0.985   3.216  16.469 -0.0493  0.4448 -0.7425
 4678TIP3   OH235448   4.574   6.579  15.585  0.1368  0.4263 -0.3436
 4678TIP3    H135449   4.558   6.541  15.499  2.5429  1.2678 -1.2095
 4678TIP3    H235450   4.535   6.666  15.581 -2.9252 -0.8165  0.7001
 4679TIP3   OH235451   1.545   1.973   5.796 -0.3740 -0.1218 -0.2154
 4679TIP3    H135452   1.598   1.959   5.718  0.0775 -1.1461  0.2600
 4679TIP3    H235453   1.454   1.965   5.766 -0.2344  0.7748 -0.8706
 4680TIP3   OH235454   5.155   6.348   4.491 -0.2807  0.4167 -0.7519
 4680TIP3    H135455   5.190   6.265   4.459  1.1628  1.1373 -1.0567
 4680TIP3    H235456   5.103   6.324   4.568 -0.0137 -0.7798 -0.9350
 4681TIP3   OH235457   5.088   0.468   2.510 -0.2798  0.0929  0.0681
 4681TIP3    H135458   5.130   0.456   2.595 -1.1166  0.5769  0.5587
 4681TIP3    H235459   5.072   0.380   2.478  1.4057 -0.1079 -0.2817
 4682TIP3   OH235460   1.662   3.875   4.577  0.3267  1.0106 -0.7025
 4682TIP3    H135461   1.599   3.824   4.627  1.2261  0.6143  0.0281
 4682TIP3    H235462   1.678   3.823   4.498 -0.0044  0.9485 -0.7272
 4683TIP3   OH235463   6.332   2.136  15.233  0.1614 -0.1300  0.7074
 4683TIP3    H135464   6.337   2.230  15.252  0.0752  0.8056 -3.4201
 4683TIP3    H235465   6.238   2.119  15.222  0.3495 -0.1519 -0.9327
 4684TIP3   OH235466   2.255   3.381  14.595  0.3449 -0.0178  0.2241
 4684TIP3    H135467   2.323   3.402  14.532 -0.0581  2.4769  0.5699
 4684TIP3    H235468   2.302   3.351  14.673  0.9851  0.2162 -0.0707
 4685TIP3   OH235469   5.655   5.834  16.041  0.3430  0.8404  0.2687
 4685TIP3    H135470   5.683   5.925  16.028  3.5721 -0.1087  0.1962
 4685TIP3    H235471   5.712   5.783  15.984 -2.6242 -1.1442 -1.0911
 4686TIP3   OH235472   0.131   4.143  12.259 -0.1996 -0.0798 -0.2853
 4686TIP3    H135473   0.041   4.173  12.269 -0.1385  0.2222 -0.6335
 4686TIP3    H235474   0.123   4.056  12.220 -0.4401 -1.2525  2.2666
 4687TIP3   OH235475   6.429   3.432  11.467  0.4519  0.4743 -0.4370
 4687TIP3    H135476   6.396   3.511  11.509  0.5716  0.3615 -0.1258
 4687TIP3    H235477   6.498   3.462  11.409 -0.2400  0.7207 -1.1425
 4688TIP3   OH235478   2.296   6.014   5.817 -0.4224  0.4234  0.4640
 4688TIP3    H135479   2.299   6.006   5.721  1.9261  1.6177  0.3984
 4688TIP3    H235480   2.236   6.086   5.833  0.9322  1.7422 -0.2458
 4689TIP3   OH235481   1.119   1.007  13.558 -0.0371  0.3324 -0.4780
 4689TIP3    H135482   1.061   1.030  13.485 -1.3622 -0.1918  0.3993
 4689TIP3    H235483   1.069   1.027  13.636  0.9000 -0.3113  0.3012
 4690TIP3   OH235484   5.741   2.372  16.323 -0.1855 -0.8243  0.3136
 4690TIP3    H135485   5.694   2.449  16.355  2.6328 -0.4204  3.8059
 4690TIP3    H235486   5.678   2.300  16.330 -2.3366  0.8222 -1.4856
 4691TIP3   OH235487   4.424   2.488   5.145 -0.7105  0.1549 -0.4986
 4691TIP3    H135488   4.451   2.528   5.228  0.2426 -0.6452 -0.4196
 4691TIP3    H235489   4.505   2.476   5.096 -0.9619 -1.7590 -0.4917
 4692TIP3   OH235490   4.981   4.418  15.162  0.0951 -0.1569 -0.0169
 4692TIP3    H135491   5.026   4.387  15.084 -1.0742  2.4045 -1.7590
 4692TIP3    H235492   4.984   4.343  15.222  0.5573 -2.3649 -2.6720
 4693TIP3   OH235493   1.749   0.627   3.458 -0.9794  0.0791 -0.2859
 4693TIP3    H135494   1.817   0.693   3.447 -0.4643 -0.2412  0.8919
 4693TIP3    H235495   1.670   0.678   3.477 -0.6335  0.3658  0.3928
 4694TIP3   OH235496   3.634   1.841  16.788 -0.1679  0.0917  0.2412
 4694TIP3    H135497   3.664   1.750  16.781 -0.8041 -0.2591  1.9383
 4694TIP3    H235498   3.604   1.862  16.700  1.3705 -0.8423 -0.5322
 4695TIP3   OH235499   0.977   3.820  13.207 -0.0942 -0.4256 -0.0892
 4695TIP3    H135500   0.891   3.781  13.187  0.1276 -0.5924 -0.7265
 4695TIP3    H235501   1.034   3.790  13.136  0.9959 -1.9321  1.3629
 4696TIP3   OH235502   2.794   3.190   2.769 -0.0338 -0.2114  0.1492
 4696TIP3    H135503   2.714   3.228   2.806 -0.3502 -0.9990  0.2739
 4696TIP3    H235504   2.863   3.214   2.830  0.2629  2.5260 -1.1450
 4697TIP3   OH235505   6.301   0.074   0.192  0.2165  0.1509 -0.3941
 4697TIP3    H135506   6.296   0.005   0.258  2.6242 -0.8095 -1.1259
 4697TIP3    H235507   6.390   0.109   0.201  0.2957  0.5785 -2.5418
 4698TIP3   OH235508   1.324   0.110  11.493 -1.0399  0.2914  0.0094
 4698TIP3    H135509   1.324   0.015  11.503  0.1495  0.2125 -0.6818
 4698TIP3    H235510   1.387   0.141  11.557  0.5394  0.3965 -1.5466
 4699TIP3   OH235511   6.376   2.956  16.226 -0.0775  0.2702 -0.4118
 4699TIP3    H135512   6.332   3.039  16.207  1.0945  0.6736 -1.4411
 4699TIP3    H235513   6.362   2.942  16.320 -1.4480  0.9314 -0.5065
 4700TIP3   OH235514   0.733   1.977  12.775  0.4689  0.3867 -0.4805
 4700TIP3    H135515   0.689   1.894  12.795 -1.1411  0.6507 -2.6804
 4700TIP3    H235516   0.792   1.957  12.702  0.7975  0.9597 -0.3758
 4701TIP3   OH235517   3.097   5.256  14.117 -0.6425  0.4269  1.1961
 4701TIP3    H135518   3.159   5.286  14.051  0.2128  0.1875  1.8818
 4701TIP3    H235519   3.045   5.333  14.137  0.3194  0.9834  1.5949
 4702TIP3   OH235520   6.469   2.897  13.937  0.0270 -0.2736 -0.7705
 4702TIP3    H135521   6.476   2.958  14.010 -0.6832 -2.1508  0.9118
 4702TIP3    H235522   6.536   2.926  13.875  0.6991  1.2914  0.6574
 4703TIP3   OH235523   2.116   2.966   3.936 -0.2018 -0.2716 -0.0331
 4703TIP3    H135524   2.198   2.934   3.899 -0.6585  0.3903 -1.6771
 4703TIP3    H235525   2.142   3.044   3.986  0.1069  0.3372 -1.1065
 4704TIP3   OH235526   2.688   5.850   6.000 -0.7009 -0.1576 -0.2181
 4704TIP3    H135527   2.717   5.867   6.089  1.1635 -0.1051 -0.8103
 4704TIP3    H235528   2.621   5.916   5.983 -0.2466  0.5505  0.7438
 4705TIP3   OH235529   3.950   0.599  11.325  0.0051 -0.4454  0.1325
 4705TIP3    H135530   3.867   0.556  11.349 -0.5640 -0.4133 -1.7036
 4705TIP3    H235531   3.968   0.659  11.398 -1.1670 -1.0282  0.9243
 4706TIP3   OH235532   5.246   2.599   4.312  0.3773 -0.3435 -0.0265
 4706TIP3    H135533   5.331   2.568   4.342 -0.0538 -1.5281  0.0264
 4706TIP3    H235534   5.239   2.567   4.222  0.4435  0.6899 -0.4036
 4707TIP3   OH235535   4.030   1.069   0.950 -0.7116 -0.6646 -0.0870
 4707TIP3    H135536   4.025   1.060   0.855 -1.2324 -1.5136  0.0087
 4707TIP3    H235537   3.939   1.059   0.980 -0.2057 -3.2903  0.7154
 4708TIP3   OH235538   1.490   3.301  13.937  0.4883  0.0069  0.1589
 4708TIP3    H135539   1.466   3.308  14.030 -0.9937 -0.9963 -0.1313
 4708TIP3    H235540   1.496   3.207  13.921  2.3284  0.1988 -0.3962
 4709TIP3   OH235541   4.668   0.662  14.591 -0.6610 -0.1809  0.1951
 4709TIP3    H135542   4.694   0.571  14.585 -0.9974 -0.2163 -0.7075
 4709TIP3    H235543   4.655   0.677  14.685  0.9348 -0.6194  0.5018
 4710TIP3   OH235544   6.597   6.051   4.397 -0.0907  0.0091  0.4070
 4710TIP3    H135545   6.672   6.027   4.452  1.3153 -0.7317 -1.7571
 4710TIP3    H235546   6.586   5.977   4.337  0.3163  1.9920 -2.2360
 4711TIP3   OH235547   4.050   2.532  16.352  0.0198  0.1805 -0.1446
 4711TIP3    H135548   4.084   2.621  16.356  0.0917  0.0814  1.4662
 4711TIP3    H235549   4.127   2.477  16.344 -0.1073  0.3782 -4.2266
 4712TIP3   OH235550   3.412   0.749  10.999 -0.2673 -0.1487  0.1786
 4712TIP3    H135551   3.354   0.813  10.957  1.0603  1.5213  0.8196
 4712TIP3    H235552   3.393   0.667  10.955 -1.6808  0.7907 -1.0065
 4713TIP3   OH235553   4.169   3.843   4.232 -0.4245 -0.1602  0.5451
 4713TIP3    H135554   4.101   3.883   4.286 -0.1616  0.9221  0.0781
 4713TIP3    H235555   4.176   3.753   4.265 -1.6993 -0.1177  0.9432
 4714TIP3   OH235556   2.119   2.257   0.136  0.4620 -0.0142  0.0818
 4714TIP3    H135557   2.133   2.336   0.084 -1.0666  0.4056  0.2684
 4714TIP3    H235558   2.043   2.214   0.095  0.4864 -0.7179  0.7536
 4715TIP3   OH235559   2.129   4.674  14.704  0.0269 -0.3224  0.0695
 4715TIP3    H135560   2.070   4.621  14.650 -1.7271 -0.5455  2.1226
 4715TIP3    H235561   2.213   4.670  14.659 -0.9471 -1.9671 -1.6768
 4716TIP3   OH235562   4.246   5.376   3.217  0.1275  0.4035  0.1260
 4716TIP3    H135563   4.270   5.409   3.303  2.3432  2.3948 -1.2057
 4716TIP3    H235564   4.193   5.445   3.178 -1.3983 -0.7559  0.1105
 4717TIP3   OH235565   3.587   4.191  14.619  0.5044  0.5862  0.4591
 4717TIP3    H135566   3.495   4.209  14.634  0.3102  1.3810 -1.5114
 4717TIP3    H235567   3.591   4.096  14.606 -0.0381  0.5675  0.4247
 4718TIP3   OH235568   1.742   3.213  14.159 -0.6072  0.1457  0.3470
 4718TIP3    H135569   1.674   3.255  14.210 -0.2553 -0.7717  1.6123
 4718TIP3    H235570   1.698   3.142  14.113 -0.7289  0.3172  0.1990
 4719TIP3   OH235571   4.218   0.234  14.813  0.3397 -0.0838  0.1997
 4719TIP3    H135572   4.149   0.279  14.861 -1.2495 -1.4105 -0.8102
 4719TIP3    H235573   4.209   0.142  14.837  0.5813 -0.5262 -1.3618
 4720TIP3   OH235574   3.406   5.460   0.691  0.0969  0.2727 -0.3449
 4720TIP3    H135575   3.329   5.414   0.725 -1.0096  1.5073 -1.1010
 4720TIP3    H235576   3.480   5.423   0.739 -0.9033 -1.3566 -0.0309
 4721TIP3   OH235577   3.772   5.984   2.694 -0.0133 -0.3541 -0.0449
 4721TIP3    H135578   3.683   6.015   2.713 -0.1899 -0.0768 -1.2456
 4721TIP3    H235579   3.778   5.989   2.599  1.1854 -0.6880  0.0135
 4722TIP3   OH235580   3.948   2.063   0.138 -0.5884 -0.3481  0.1057
 4722TIP3    H135581   3.951   2.016   0.054  1.1173 -2.0741  1.1100
 4722TIP3    H235582   3.994   2.006   0.199 -1.4467  1.1029  2.1392
 4723TIP3   OH235583   3.489   5.722   1.338  0.2410 -0.4305  0.1218
 4723TIP3    H135584   3.553   5.793   1.333 -1.5463  1.1447 -1.9806
 4723TIP3    H235585   3.406   5.767   1.355 -1.6026 -1.4790 -5.0692
 4724TIP3   OH235586   5.581   5.443   6.623 -0.3670 -0.1289 -0.2124
 4724TIP3    H135587   5.492   5.407   6.613 -0.1066 -0.3353 -1.9348
 4724TIP3    H235588   5.633   5.395   6.559  0.5034  1.6127 -0.8127
 4725TIP3   OH235589   1.997   3.359  14.960  0.1071  0.0261 -0.4110
 4725TIP3    H135590   1.924   3.420  14.975  0.4872  0.4767 -0.3894
 4725TIP3    H235591   1.957   3.272  14.964 -0.3128  0.2475  0.2844
 4726TIP3   OH235592   1.773   1.571   6.028 -0.2094  0.3892  0.1607
 4726TIP3    H135593   1.846   1.599   5.973 -0.2122  0.6570  0.2928
 4726TIP3    H235594   1.815   1.540   6.109 -0.1470 -0.8054 -0.3169
 4727TIP3   OH235595   0.275   3.067   2.198  0.0953 -0.6195 -0.2580
 4727TIP3    H135596   0.249   3.024   2.116  0.2351 -1.2749  0.0408
 4727TIP3    H235597   0.309   3.152   2.170  1.4097 -1.3742 -1.0114
 4728TIP3   OH235598   0.889   5.160  10.539 -0.0752 -0.0656 -0.0418
 4728TIP3    H135599   0.885   5.087  10.477 -1.1235 -1.3556  1.4904
 4728TIP3    H235600   0.979   5.159  10.570  0.2105  0.0004 -0.8514
 4729TIP3   OH235601   6.556   3.359  10.932  0.2722 -0.0770  0.1852
 4729TIP3    H135602   6.470   3.379  10.895 -0.3392  0.5252  1.9013
 4729TIP3    H235603   6.591   3.444  10.958  1.1237 -0.3874  0.0585
 4730TIP3   OH235604   1.698   5.289  15.541  0.0675 -0.6781 -0.0556
 4730TIP3    H135605   1.771   5.329  15.494  0.7798 -1.1105  0.6613
 4730TIP3    H235606   1.694   5.337  15.624  0.0028 -1.1350  0.2054
 4731TIP3   OH235607   2.610   4.748  14.683 -0.2340 -0.0885 -0.5368
 4731TIP3    H135608   2.653   4.707  14.758 -0.6888 -0.1690 -0.3198
 4731TIP3    H235609   2.679   4.756  14.617 -0.3509 -2.1287 -0.9562
 4732TIP3   OH235610   2.639   2.172   5.031 -0.5884  0.0833 -0.1839
 4732TIP3    H135611   2.701   2.238   5.061 -0.4230 -0.9686  1.8251
 4732TIP3    H235612   2.580   2.220   4.973  0.8339  1.5320 -0.4708
 4733TIP3   OH235613   1.047   4.507  16.645 -0.1470  0.2338 -0.1415
 4733TIP3    H135614   0.978   4.442  16.657  0.4054 -0.4770 -0.6689
 4733TIP3    H235615   1.019   4.558  16.569 -0.0042 -0.1983 -0.4931
 4734TIP3   OH235616   6.375   1.231  15.706 -0.1914 -0.1231 -0.7482
 4734TIP3    H135617   6.288   1.257  15.736 -0.0081 -0.3916  0.0104
 4734TIP3    H235618   6.384   1.274  15.621 -0.0532  2.0411  0.3134
 4735TIP3   OH235619   1.286   0.704  13.127 -0.5598 -0.3401  0.1795
 4735TIP3    H135620   1.278   0.772  13.061 -0.1063 -1.1868 -0.7673
 4735TIP3    H235621   1.365   0.728  13.176 -1.1082  0.4917  0.6601
 4736TIP3   OH235622   0.472   4.749   3.637 -0.4978 -0.1004  0.1067
 4736TIP3    H135623   0.544   4.711   3.688  1.5210  0.1917 -2.4208
 4736TIP3    H235624   0.479   4.843   3.650  0.2293  0.0005 -0.9088
 4737TIP3   OH235625   0.294   0.754   1.807  0.0204  0.0494 -0.2740
 4737TIP3    H135626   0.326   0.728   1.894  2.9890  1.0347 -1.0130
 4737TIP3    H235627   0.240   0.680   1.778  1.0360 -1.3666  1.3830
 4738TIP3   OH235628   4.554   0.217  16.838  0.4069  0.2040 -0.1985
 4738TIP3    H135629   4.496   0.241  16.765 -0.8694 -0.2341  0.6417
 4738TIP3    H235630   4.557   0.295  16.893  0.1752  0.0457  0.0382
 4739TIP3   OH235631   5.967   5.878   6.783 -0.1292  0.0540 -0.7667
 4739TIP3    H135632   6.023   5.821   6.836 -0.0905  0.4221 -0.4092
 4739TIP3    H235633   5.907   5.818   6.739  1.6970 -0.4960 -2.5605
 4740TIP3   OH235634   5.538   5.377   1.108  0.0059 -0.1674  0.3835
 4740TIP3    H135635   5.479   5.318   1.061  2.0994  0.3550 -3.0102
 4740TIP3    H235636   5.486   5.456   1.123 -1.0149 -0.7287 -0.1470
 4741TIP3   OH235637   4.118   3.624  14.307  0.3089 -0.2602  0.1968
 4741TIP3    H135638   4.163   3.707  14.292  0.8660 -0.7408 -0.7986
 4741TIP3    H235639   4.165   3.584  14.381 -0.3442  0.5775  1.0791
 4742TIP3   OH235640   2.556   4.512  11.150  0.7728 -0.2566 -0.1556
 4742TIP3    H135641   2.621   4.522  11.080  0.3137 -0.3861 -0.5984
 4742TIP3    H235642   2.603   4.463  11.218  1.4871  0.6023 -0.0139
 4743TIP3   OH235643   6.197   0.136   5.317 -0.4574 -0.9675  0.1031
 4743TIP3    H135644   6.194   0.177   5.404  0.3580 -1.3515  0.3128
 4743TIP3    H235645   6.289   0.142   5.291 -0.4954 -1.8712 -0.2482
 4744TIP3   OH235646   1.232   3.580   2.107  0.0290  0.3189 -0.5733
 4744TIP3    H135647   1.218   3.659   2.056 -0.5392  0.6346  0.0589
 4744TIP3    H235648   1.151   3.530   2.097  1.0073 -0.9791 -2.3331
 4745TIP3   OH235649   6.062   1.448   2.527  0.3173  0.2949 -0.1944
 4745TIP3    H135650   6.035   1.510   2.459  0.8073  1.4412  0.6406
 4745TIP3    H235651   6.100   1.503   2.595  1.3376 -0.9859  0.2828
 4746TIP3   OH235652   4.917   0.138  15.290 -0.1209  0.0559  0.0066
 4746TIP3    H135653   4.893   0.064  15.345  0.5183  0.7657  1.2772
 4746TIP3    H235654   4.929   0.101  15.202 -0.0375 -1.2860  0.5777
 4747TIP3   OH235655   5.943   1.622   1.492  0.0798  0.5287  0.1041
 4747TIP3    H135656   6.016   1.598   1.435  0.6983 -1.2555  1.6017
 4747TIP3    H235657   5.866   1.582   1.451  0.3836 -0.0079  0.0490
 4748TIP3   OH235658   0.679   4.769   5.726 -0.3353 -0.8308  0.2687
 4748TIP3    H135659   0.741   4.734   5.789  0.7019 -1.1057 -0.8702
 4748TIP3    H235660   0.604   4.710   5.729 -0.2028 -0.9578  1.0753
 4749TIP3   OH235661   3.736   3.891   3.171 -0.0692  0.2448 -0.5006
 4749TIP3    H135662   3.719   3.800   3.148  2.0887 -0.5629  0.9475
 4749TIP3    H235663   3.810   3.887   3.231  0.5227  3.0189 -0.9883
 4750TIP3   OH235664   3.782   3.608  15.870 -0.0635 -0.6623  0.1283
 4750TIP3    H135665   3.745   3.619  15.782 -0.6750 -0.7358  0.3720
 4750TIP3    H235666   3.800   3.514  15.877 -1.2142 -0.8567  0.5498
 4751TIP3   OH235667   5.610   1.765   0.019  0.3766 -0.5912  0.3529
 4751TIP3    H135668   5.640   1.813  -0.058  1.6651 -0.3416  0.9915
 4751TIP3    H235669   5.666   1.795   0.090 -0.0177 -1.6820  1.1532
 4752TIP3   OH235670   2.296   5.246   1.406  0.4299  0.3326  0.1295
 4752TIP3    H135671   2.294   5.315   1.472  0.7744  0.3740  0.0981
 4752TIP3    H235672   2.313   5.291   1.323  0.3968  0.2407  0.0724
 4753TIP3   OH235673   1.435   2.882  16.088 -0.3308  0.4603 -0.2457
 4753TIP3    H135674   1.369   2.866  16.155  2.0242 -1.3672  1.7417
 4753TIP3    H235675   1.472   2.968  16.111  1.0941 -0.5598  1.4071
 4754TIP3   OH235676   1.440   1.963   0.700  0.2503  0.5957  0.0447
 4754TIP3    H135677   1.432   1.896   0.769 -1.1193  0.4431 -0.2545
 4754TIP3    H235678   1.529   1.951   0.667 -0.0216 -1.2200 -0.1255
 4755TIP3   OH235679   5.047   4.664   0.235 -0.0887 -0.2471 -0.1022
 4755TIP3    H135680   4.953   4.678   0.223 -0.1996 -1.3021 -0.5476
 4755TIP3    H235681   5.074   4.612   0.159  0.6721 -0.7160  0.4775
 4756TIP3   OH235682   0.399   4.829  15.619 -0.9712  0.2431 -0.3738
 4756TIP3    H135683   0.344   4.756  15.648  0.5197 -1.3313 -1.3460
 4756TIP3    H235684   0.405   4.817  15.524  1.5545 -0.0191 -0.2152
 4757TIP3   OH235685   5.483   2.301   1.728  0.0342 -0.5264 -0.3054
 4757TIP3    H135686   5.573   2.325   1.747  0.0693  0.2152 -1.3387
 4757TIP3    H235687   5.452   2.370   1.668 -1.7096  0.0958  1.2640
 4758TIP3   OH235688   1.461   2.470   4.282 -0.4495  0.7594  0.0872
 4758TIP3    H135689   1.533   2.436   4.228 -2.1871  0.5738 -2.1948
 4758TIP3    H235690   1.484   2.445   4.371  2.1598  0.4265 -0.6274
 4759TIP3   OH235691   2.748   4.964   1.612  0.0881  0.2105  0.1399
 4759TIP3    H135692   2.735   5.004   1.527 -1.3142  2.1272  1.2213
 4759TIP3    H235693   2.834   4.995   1.640  1.1061 -1.4147 -1.0631
 4760TIP3   OH235694   5.969   1.500  14.774 -0.0102  0.9889  0.2489
 4760TIP3    H135695   5.962   1.437  14.703 -1.5179  1.0093  0.3595
 4760TIP3    H235696   6.035   1.563  14.744  0.2501  0.3141 -0.5973
 4761TIP3   OH235697   2.242   0.054   0.195  0.5062 -0.1146 -0.0204
 4761TIP3    H135698   2.155   0.045   0.156  0.3679  0.3207  0.1868
 4761TIP3    H235699   2.293   0.103   0.131  1.3036 -2.4308 -1.2152
 4762TIP3   OH235700   2.468   4.603  14.309  0.5154  0.1792  0.2838
 4762TIP3    H135701   2.546   4.548  14.304  0.3676  0.0918 -1.2021
 4762TIP3    H235702   2.441   4.615  14.218 -1.6008 -0.3453  0.8216
 4763TIP3   OH235703   2.309   2.679   2.498  0.0002  0.1063 -0.3632
 4763TIP3    H135704   2.281   2.721   2.578 -0.8584 -1.8269  0.3798
 4763TIP3    H235705   2.288   2.741   2.429 -0.1177  1.3824  0.8029
 4764TIP3   OH235706   1.243   2.331   4.742 -1.2114 -0.3188  0.4942
 4764TIP3    H135707   1.166   2.378   4.708 -0.0019 -0.2828 -2.3164
 4764TIP3    H235708   1.229   2.240   4.717 -1.2523 -0.6740  1.7384
 4765TIP3   OH235709   1.380   3.312  17.067 -0.2900  0.2809 -0.0385
 4765TIP3    H135710   1.304   3.266  17.033  0.0878 -0.4475  0.1007
 4765TIP3    H235711   1.446   3.305  16.998 -0.6127  1.6218 -0.5045
 4766TIP3   OH235712   0.360   3.086   6.209  0.5378 -0.4782 -0.9700
 4766TIP3    H135713   0.449   3.053   6.209  0.3670 -0.9476 -1.3161
 4766TIP3    H235714   0.355   3.142   6.131  1.0523  1.0044  0.0339
 4767TIP3   OH235715   3.561   3.535  12.009  0.5827  0.5113 -0.1306
 4767TIP3    H135716   3.627   3.552  12.076  0.8882  1.6566 -0.7048
 4767TIP3    H235717   3.606   3.553  11.927  0.6255 -2.2326 -0.7371
 4768TIP3   OH235718   6.602   4.041  12.067 -0.1183 -0.6549  0.2481
 4768TIP3    H135719   6.598   3.954  12.028  0.4642 -1.1617  1.3015
 4768TIP3    H235720   6.511   4.070  12.072 -0.1744 -0.4348 -1.7936
 4769TIP3   OH235721   2.411   2.632   2.981  0.1355  0.2545  0.5069
 4769TIP3    H135722   2.437   2.543   3.002  0.0177  0.4197  1.4003
 4769TIP3    H235723   2.335   2.648   3.036 -0.7910  0.3799 -0.7901
 4770TIP3   OH235724   3.234   5.991   3.788  0.2137 -0.4755  0.1601
 4770TIP3    H135725   3.284   5.934   3.846 -0.5568 -3.0616 -1.6063
 4770TIP3    H235726   3.289   6.001   3.711 -0.1322  0.3028  0.0067
 4771TIP3   OH235727   2.240   0.479  13.640  0.3738 -0.2244 -0.3159
 4771TIP3    H135728   2.255   0.560  13.591  0.0387 -0.2063 -0.3891
 4771TIP3    H235729   2.289   0.491  13.722 -1.3896  0.9467  0.6063
 4772TIP3   OH235730   6.531   2.062   5.129 -0.4178 -0.0317 -0.3259
 4772TIP3    H135731   6.438   2.047   5.144 -0.0903 -0.4065  1.3675
 4772TIP3    H235732   6.572   1.976   5.135  0.1350  0.2242 -0.3256
 4773TIP3   OH235733   1.674   0.093   2.508 -0.3821  0.1725  0.0723
 4773TIP3    H135734   1.606   0.161   2.515 -0.2346  0.2636  0.6032
 4773TIP3    H235735   1.641   0.020   2.559 -0.8949 -0.4571 -1.1290
 4774TIP3   OH235736   5.171   4.835  14.054 -0.1171 -0.0120  0.1461
 4774TIP3    H135737   5.261   4.810  14.029  0.0093  0.7120 -0.1471
 4774TIP3    H235738   5.117   4.763  14.021  0.2589  0.0081 -0.5459
 4775TIP3   OH235739   2.515   2.146  16.050 -0.7670 -0.1208 -0.3939
 4775TIP3    H135740   2.505   2.201  16.128 -1.7811 -1.8388  0.7379
 4775TIP3    H235741   2.434   2.095  16.047  1.3591 -3.7224  0.3424
 4776TIP3   OH235742   6.371   2.413  16.795  0.3368  0.2804 -0.3132
 4776TIP3    H135743   6.288   2.461  16.800  0.0663  0.0732 -2.1583
 4776TIP3    H235744   6.349   2.334  16.745  1.3993 -0.3515  0.1970
 4777TIP3   OH235745   6.493   5.782  15.554  0.4740 -0.3395  0.0715
 4777TIP3    H135746   6.471   5.690  15.571  1.4259 -0.6578 -0.3691
 4777TIP3    H235747   6.487   5.791  15.459  3.1142 -0.6889 -0.1705
 4778TIP3   OH235748   0.945   0.480  16.823  0.1496  0.6039  0.3049
 4778TIP3    H135749   1.035   0.463  16.798  0.1009  0.3953  0.2752
 4778TIP3    H235750   0.943   0.469  16.918  0.0606  0.1931  0.2526
 4779TIP3   OH235751   5.281   6.137   1.178  0.2054 -0.9260  0.0242
 4779TIP3    H135752   5.347   6.067   1.168  0.9408 -0.0736 -1.1966
 4779TIP3    H235753   5.242   6.146   1.092 -0.3653 -0.2787  0.3428
 4780TIP3   OH235754   0.906   4.067   0.796  0.5522 -0.8824  0.4407
 4780TIP3    H135755   0.975   4.003   0.778  0.7423 -0.6706  0.4170
 4780TIP3    H235756   0.892   4.061   0.890 -0.3312 -1.8783  0.2596
 4781TIP3   OH235757   3.361   3.777   2.692  0.0730  0.2417 -0.0212
 4781TIP3    H135758   3.386   3.720   2.619  1.1812  2.6672 -1.6031
 4781TIP3    H235759   3.419   3.751   2.764  0.5395 -0.6553 -0.7137
 4782TIP3   OH235760   1.379   0.678   0.592 -0.1706  0.3446 -0.7212
 4782TIP3    H135761   1.367   0.773   0.600  0.3574  0.3851 -0.3631
 4782TIP3    H235762   1.436   0.668   0.515  0.2389  0.3554 -0.4225
 4783TIP3   OH235763   2.785   4.348   0.360 -0.2804 -0.0085 -0.7109
 4783TIP3    H135764   2.726   4.345   0.284  0.8080  1.0190 -1.6219
 4783TIP3    H235765   2.873   4.349   0.322  0.2634  1.1786  0.5325
 4784TIP3   OH235766   3.170   6.766  11.205 -0.5085 -0.8117 -0.7903
 4784TIP3    H135767   3.088   6.721  11.225 -0.4982 -0.4073  0.1740
 4784TIP3    H235768   3.153   6.858  11.226  0.8985 -1.0726  1.5627
 4785TIP3   OH235769   0.902   5.487   3.554  0.5083 -0.3495 -0.2068
 4785TIP3    H135770   0.834   5.508   3.491  0.4827 -1.2876 -0.5012
 4785TIP3    H235771   0.857   5.439   3.624  0.8250 -0.7688 -0.2897
 4786TIP3   OH235772   1.978   1.086  11.573 -0.2662 -0.2008 -0.3439
 4786TIP3    H135773   1.933   1.042  11.646 -2.5543  0.4541 -1.3203
 4786TIP3    H235774   1.914   1.085  11.502  1.1220  1.1697 -1.6336
 4787TIP3   OH235775   3.955   4.577  15.602  0.4129 -0.1030  0.1570
 4787TIP3    H135776   4.000   4.509  15.654 -2.7683 -2.8715 -0.4986
 4787TIP3    H235777   3.869   4.584  15.643 -0.4200  1.2181 -1.7736
 4788TIP3   OH235778   6.499   3.164   2.846  0.2941  0.2978 -0.2562
 4788TIP3    H135779   6.455   3.217   2.912  2.4771  1.2345  0.5177
 4788TIP3    H235780   6.509   3.223   2.771 -0.5397 -0.1835 -0.7461
 4789TIP3   OH235781   3.315   1.908  15.749  1.0311  0.5398 -0.1719
 4789TIP3    H135782   3.244   1.939  15.692  1.3254 -0.3298 -1.0172
 4789TIP3    H235783   3.351   1.988  15.788 -1.4938  0.8717  1.5810
 4790TIP3   OH235784   3.012   5.198   2.881  0.1396  0.0909  0.0233
 4790TIP3    H135785   2.986   5.110   2.907  0.4131  0.4537  1.5896
 4790TIP3    H235786   3.011   5.248   2.962  2.7144  0.8639 -0.3787
 4791TIP3   OH235787   0.835   2.547   4.538 -0.1169 -0.2086 -0.1639
 4791TIP3    H135788   0.760   2.586   4.582 -0.1737  1.4084 -1.6263
 4791TIP3    H235789   0.800   2.516   4.454  0.7385  0.0886 -0.6372
 4792TIP3   OH235790   4.217   6.077   1.001 -0.1074  0.6381 -0.2867
 4792TIP3    H135791   4.210   6.172   1.017 -0.9504  0.4791  0.3624
 4792TIP3    H235792   4.172   6.038   1.076 -0.7859 -0.2463 -1.1543
 4793TIP3   OH235793   3.766   4.157  10.971 -0.0012 -0.1576 -0.1143
 4793TIP3    H135794   3.675   4.155  10.942 -0.2618  1.0777  0.5981
 4793TIP3    H235795   3.772   4.234  11.027  1.4891 -0.2278 -0.1582
 4794TIP3   OH235796   5.593   5.741   1.822 -0.3316  0.0942  0.0449
 4794TIP3    H135797   5.685   5.718   1.832 -0.1162  0.4030 -1.0831
 4794TIP3    H235798   5.578   5.810   1.887  0.7372  1.3853 -1.0480
 4795TIP3   OH235799   3.148   1.808  16.633  0.2147 -0.6392  0.0257
 4795TIP3    H135800   3.170   1.857  16.554 -1.3997 -0.3038 -0.2304
 4795TIP3    H235801   3.203   1.730  16.629 -0.2251 -0.8761 -1.6992
 4796TIP3   OH235802   6.235   4.946  12.209  0.7670  0.3206  0.1072
 4796TIP3    H135803   6.237   4.850  12.200  1.2996  0.2109  1.3199
 4796TIP3    H235804   6.157   4.973  12.160 -0.9059 -0.9906  1.9631
 4797TIP3   OH235805   4.888   6.744  12.205 -0.2895  0.0018  0.3142
 4797TIP3    H135806   4.904   6.650  12.217 -0.5003  0.0510  1.0196
 4797TIP3    H235807   4.943   6.769  12.131  0.8136 -0.3960  0.9956
 4798TIP3   OH235808   2.012   0.808  15.617 -0.9787  0.6212  0.2407
 4798TIP3    H135809   1.931   0.759  15.603 -0.3936 -0.5001  0.7319
 4798TIP3    H235810   2.039   0.784  15.706  0.2231  0.5040 -0.1545
 4799TIP3   OH235811   3.207   0.026   1.995  0.3511 -0.1619 -0.2591
 4799TIP3    H135812   3.124   0.001   2.034 -0.2132 -0.6906 -1.7501
 4799TIP3    H235813   3.224   0.115   2.026 -0.5589 -0.2165  0.3814
 4800TIP3   OH235814   4.847   4.433  14.775 -0.4443 -0.3929  0.1836
 4800TIP3    H135815   4.874   4.403  14.688  2.3425  0.8681  0.5742
 4800TIP3    H235816   4.839   4.528  14.766  0.5920 -0.1722  1.4851
 4801TIP3   OH235817   1.279   5.137  11.503 -0.8458  0.4224  0.3872
 4801TIP3    H135818   1.319   5.223  11.516 -2.6719  1.1876  1.1214
 4801TIP3    H235819   1.226   5.147  11.424  1.2931 -0.9315 -1.2680
 4802TIP3   OH235820   2.272   6.347  15.695  0.1738  0.7268  0.3700
 4802TIP3    H135821   2.195   6.319  15.745  1.1335 -1.4278  0.6834
 4802TIP3    H235822   2.306   6.422  15.743 -0.6650  0.5247  1.2850
 4803TIP3   OH235823   3.966   1.816  14.810  0.1888 -0.2185  0.4647
 4803TIP3    H135824   3.989   1.894  14.861 -1.1348 -0.1262  0.9522
 4803TIP3    H235825   4.048   1.789  14.768  0.9339  0.6847  1.3175
 4804TIP3   OH235826   4.330   4.981   5.687  0.3134 -0.9071 -0.2719
 4804TIP3    H135827   4.291   4.893   5.688  1.2358 -1.3204  0.7744
 4804TIP3    H235828   4.425   4.965   5.686  0.4829  0.0730 -0.2276
 4805TIP3   OH235829   3.036   3.928   4.963 -0.3610  0.5356  0.1564
 4805TIP3    H135830   3.006   3.874   4.890  2.1314  0.5854 -0.9337
 4805TIP3    H235831   3.126   3.952   4.941 -0.0625  1.7975  2.5376
 4806TIP3   OH235832   5.927   3.490   4.603 -0.1320 -0.1446 -0.2804
 4806TIP3    H135833   6.002   3.455   4.554 -0.9776 -2.2607 -0.0997
 4806TIP3    H235834   5.867   3.521   4.536  1.1982  2.2970 -0.4154
 4807TIP3   OH235835   6.074   4.982   0.729  0.2669  0.2955 -0.6317
 4807TIP3    H135836   6.160   4.981   0.771  0.1274  0.0259 -0.3507
 4807TIP3    H235837   6.090   4.954   0.639  0.6438  1.3709 -0.9151
 4808TIP3   OH235838   4.965   1.733  14.161 -0.1452 -0.1835  0.4182
 4808TIP3    H135839   4.947   1.752  14.069 -2.1314  1.1390  1.0567
 4808TIP3    H235840   4.879   1.724  14.201  0.7017 -0.0662  2.2895
 4809TIP3   OH235841   3.243   6.771   4.355  0.5658 -0.0890 -0.4920
 4809TIP3    H135842   3.223   6.860   4.386  0.1080 -0.5841  0.6441
 4809TIP3    H235843   3.169   6.748   4.299 -0.5932 -0.7491  1.2899
 4810TIP3   OH235844   5.526   3.616   4.034  0.7670 -0.7821  0.1691
 4810TIP3    H135845   5.472   3.694   4.038  1.9669  0.1878 -1.8124
 4810TIP3    H235846   5.464   3.544   4.025 -0.2798  0.0897  0.3063
 4811TIP3   OH235847   1.441   1.212  15.056 -0.0997  0.5275  0.3932
 4811TIP3    H135848   1.492   1.172  14.986 -0.9944 -0.3416  0.2122
 4811TIP3    H235849   1.471   1.168  15.136  0.0534  0.6366  0.3942
 4812TIP3   OH235850   5.141   4.369  16.375 -0.1792 -0.5052  0.0949
 4812TIP3    H135851   5.138   4.333  16.463  1.6077 -2.2128 -0.5171
 4812TIP3    H235852   5.096   4.305  16.321  1.8005 -1.2304 -0.7684
 4813TIP3   OH235853   1.763   0.189   3.337  0.1798 -0.0162 -0.0733
 4813TIP3    H135854   1.698   0.259   3.343  1.2670  1.1209 -1.1263
 4813TIP3    H235855   1.712   0.110   3.322 -0.8886  1.1660 -3.1302
 4814TIP3   OH235856   4.591   4.402  14.922 -0.2995 -0.0411  0.3830
 4814TIP3    H135857   4.628   4.418  15.009  0.1914  1.3440 -0.0647
 4814TIP3    H235858   4.667   4.387  14.866 -0.6433 -1.5811  0.3060
 4815TIP3   OH235859   2.008   3.227   4.992  0.0563 -0.0947 -0.3665
 4815TIP3    H135860   2.103   3.221   4.989  0.1602 -0.2957  1.9935
 4815TIP3    H235861   1.990   3.301   5.050 -1.2179  0.0290 -0.9015
 4816TIP3   OH235862   3.941   5.104   4.554 -0.6731 -0.4179 -0.0081
 4816TIP3    H135863   3.922   5.052   4.476 -1.2252  0.7956 -0.6952
 4816TIP3    H235864   4.018   5.062   4.593 -0.7574 -1.3894 -0.8685
 4817TIP3   OH235865   0.891   3.030  16.495  0.2512 -0.4484  0.4135
 4817TIP3    H135866   0.872   2.943  16.533 -0.5298 -0.9138 -1.0018
 4817TIP3    H235867   0.812   3.051  16.445  2.2820 -1.1220 -3.2951
 4818TIP3   OH235868   4.469   5.113   6.360 -0.1581  0.3903 -0.1662
 4818TIP3    H135869   4.450   5.024   6.388  0.2452 -0.2659 -1.8870
 4818TIP3    H235870   4.560   5.127   6.387  0.4626 -0.4955 -1.7047
 4819TIP3   OH235871   0.957   5.521   6.223  0.3673  0.3079  0.2516
 4819TIP3    H135872   1.049   5.500   6.211  0.0088 -0.3320 -1.4601
 4819TIP3    H235873   0.916   5.439   6.250 -0.2455 -0.2170 -2.1315
 4820TIP3   OH235874   6.377   0.579   1.147 -0.1363  0.3310  0.0564
 4820TIP3    H135875   6.384   0.510   1.081  1.2914 -0.1153  0.6443
 4820TIP3    H235876   6.424   0.653   1.109  1.8797 -0.3689  1.1037
 4821TIP3   OH235877   0.714   1.162   3.281 -0.0755 -0.0609  0.0530
 4821TIP3    H135878   0.663   1.218   3.223 -1.2940  0.9927  2.0843
 4821TIP3    H235879   0.649   1.110   3.327  0.8936 -1.1277  0.2271
 4822TIP3   OH235880   1.001   1.747  12.398 -0.2762 -0.0689  0.0098
 4822TIP3    H135881   1.008   1.681  12.467 -0.6638  0.3235  0.4289
 4822TIP3    H235882   0.949   1.706  12.329 -0.2370 -0.3176  0.1303
 4823TIP3   OH235883   1.606   5.490   5.917 -0.7975  0.4162  0.2430
 4823TIP3    H135884   1.548   5.566   5.914  0.5273  1.4192 -0.3194
 4823TIP3    H235885   1.633   5.484   6.009  0.7965  1.9487 -0.0988
 4824TIP3   OH235886   5.308   4.381   1.683 -0.4667  0.2641 -0.3136
 4824TIP3    H135887   5.262   4.304   1.717 -0.1218 -0.3003 -1.1148
 4824TIP3    H235888   5.268   4.397   1.598 -0.7734  1.1835  0.0013
 4825TIP3   OH235889   4.290   4.682  15.309 -0.4889  0.1017  0.4036
 4825TIP3    H135890   4.274   4.690  15.403  0.6311  0.0963  0.6010
 4825TIP3    H235891   4.276   4.770  15.274  1.0081  0.5450  0.8830
 4826TIP3   OH235892   1.073   1.400   2.323  0.2420  0.4640  0.3139
 4826TIP3    H135893   0.982   1.410   2.294 -0.4477  2.0473  2.8755
 4826TIP3    H235894   1.103   1.320   2.280 -2.5896 -0.4652 -0.0214
 4827TIP3   OH235895   3.262   1.074   1.814 -0.1105 -0.0718 -0.2379
 4827TIP3    H135896   3.239   1.072   1.721  0.7675 -1.1440 -0.4396
 4827TIP3    H235897   3.243   0.985   1.845  0.2577  0.0825  0.4380
 4828TIP3   OH235898   4.771   3.466   2.286  0.0447  0.3610  0.2461
 4828TIP3    H135899   4.722   3.400   2.334 -0.9749  0.7318 -0.2709
 4828TIP3    H235900   4.738   3.550   2.320 -1.1835  0.6379 -1.5655
 4829TIP3   OH235901   1.306   0.199  12.717 -0.5356  0.2408 -0.0482
 4829TIP3    H135902   1.231   0.210  12.775 -1.4496 -0.7100 -1.0584
 4829TIP3    H235903   1.296   0.112  12.679 -0.3148  1.1028 -2.1680
 4830TIP3   OH235904   5.659   6.705   3.372  0.4683 -0.1127 -0.5821
 4830TIP3    H135905   5.691   6.738   3.288  3.4366 -1.7912 -0.1768
 4830TIP3    H235906   5.594   6.638   3.349  0.3856  0.2803 -1.5017
 4831TIP3   OH235907   0.392   3.327  16.220 -0.0230 -0.8675 -0.1098
 4831TIP3    H135908   0.462   3.267  16.192 -0.0491 -0.8247 -0.2669
 4831TIP3    H235909   0.317   3.270  16.237 -0.2212 -0.8159 -0.8265
 4832TIP3   OH235910   6.001   3.361  12.263  0.3430 -0.5349  0.1646
 4832TIP3    H135911   6.068   3.409  12.312 -0.3266  0.3945  0.1957
 4832TIP3    H235912   5.942   3.429  12.231 -0.2044 -1.2880 -0.4421
 4833TIP3   OH235913   2.908   3.435   0.574 -0.1348 -0.2039  0.3111
 4833TIP3    H135914   2.892   3.382   0.652  1.4963 -1.7981 -0.3921
 4833TIP3    H235915   2.955   3.512   0.605  0.7242 -0.9475  0.8706
 4834TIP3   OH235916   2.228   0.769  12.423 -0.2525  0.3946 -0.0556
 4834TIP3    H135917   2.164   0.722  12.477  1.5071 -1.5764  0.3628
 4834TIP3    H235918   2.249   0.847  12.474 -0.8403  0.0594  0.7065
 4835TIP3   OH235919   6.123   3.260   0.087  0.3478 -0.0555  0.2764
 4835TIP3    H135920   6.047   3.250   0.145  1.1405  0.2906  1.3772
 4835TIP3    H235921   6.107   3.343   0.042  1.1968  1.1944  2.2159
 4836TIP3   OH235922   0.424   3.208   3.109  0.5124  0.4100  0.3199
 4836TIP3    H135923   0.421   3.198   3.204 -4.2845  0.4844  0.3255
 4836TIP3    H235924   0.418   3.302   3.094  3.0867  0.5507 -0.1205
 4837TIP3   OH235925   5.948   2.968   5.504 -0.0254  0.0969  0.2500
 4837TIP3    H135926   5.924   3.056   5.475  0.2717  0.1126  0.0450
 4837TIP3    H235927   5.875   2.913   5.476 -0.5682  0.4027  1.0716
 4838TIP3   OH235928   0.093   4.069  15.099  0.1184  0.2568  0.1592
 4838TIP3    H135929   0.141   4.093  15.020 -0.3634  0.9937  0.0939
 4838TIP3    H235930   0.114   4.138  15.162 -0.1429  0.1018  0.4186
 4839TIP3   OH235931   3.228   5.903   5.852 -0.3894  0.1874 -0.2575
 4839TIP3    H135932   3.193   5.932   5.936  0.9360 -0.0367  0.3825
 4839TIP3    H235933   3.312   5.861   5.874  0.5832  1.2737 -1.8221
 4840TIP3   OH235934   6.761   6.355  12.112  0.6317  0.1093  0.1114
 4840TIP3    H135935   6.731   6.265  12.127  0.9718  0.1504  1.1060
 4840TIP3    H235936   6.857   6.348  12.116  0.7060  0.2808 -1.2201
 4841TIP3   OH235937   4.665   1.507  11.587  0.0508  0.1818 -0.4156
 4841TIP3    H135938   4.683   1.588  11.540  0.3892  0.8522  0.8598
 4841TIP3    H235939   4.721   1.510  11.664  0.5761 -1.5938 -0.7114
 4842TIP3   OH235940   1.570   0.412  11.326 -0.3303 -0.4704  0.0166
 4842TIP3    H135941   1.507   0.348  11.292  1.1629 -0.9955 -1.8825
 4842TIP3    H235942   1.569   0.399  11.421 -3.3763 -0.1612  0.0738
 4843TIP3   OH235943   2.004   4.599   2.541  0.0126 -0.2191 -0.1822
 4843TIP3    H135944   1.973   4.535   2.476  0.6288  0.7162 -1.4227
 4843TIP3    H235945   1.942   4.672   2.533 -1.5229 -1.2187  2.2172
 4844TIP3   OH235946   1.547   1.123  13.710  0.0069  0.0025  0.4134
 4844TIP3    H135947   1.591   1.165  13.636 -1.6287  2.5481  0.8276
 4844TIP3    H235948   1.490   1.057  13.669 -0.1790  0.7366 -0.5396
 4845TIP3   OH235949   2.608   6.286   3.311 -0.5158 -0.4873  0.1800
 4845TIP3    H135950   2.652   6.288   3.396 -0.6758 -0.1283  0.2522
 4845TIP3    H235951   2.518   6.312   3.330 -0.5912 -0.5620 -0.0772
 4846TIP3   OH235952   0.534   3.455  12.364  0.3532  0.7050 -0.3362
 4846TIP3    H135953   0.465   3.506  12.321  0.2107 -0.0780 -1.0511
 4846TIP3    H235954   0.561   3.391  12.298 -0.5205 -1.1138  1.0301
 4847TIP3   OH235955   3.559   1.188   2.190 -0.0066  0.0785  0.4504
 4847TIP3    H135956   3.503   1.266   2.193  2.0649  1.6590 -0.6731
 4847TIP3    H235957   3.599   1.183   2.276  0.5299  0.7842  0.2464
 4848TIP3   OH235958   4.606   3.565  15.928  0.1594 -0.3199 -0.7693
 4848TIP3    H135959   4.607   3.590  15.836 -1.0724  1.2834 -0.3757
 4848TIP3    H235960   4.540   3.622  15.968  1.0312 -0.6349  1.2006
 4849TIP3   OH235961   2.681   2.779   1.168  0.9010  0.0963  0.1073
 4849TIP3    H135962   2.730   2.698   1.158 -1.7027 -1.5877  0.4784
 4849TIP3    H235963   2.633   2.788   1.086 -0.4198  0.1109  0.8602
 4850TIP3   OH235964   4.420   2.925  16.121 -0.6355 -0.5533  0.5736
 4850TIP3    H135965   4.341   2.966  16.086  0.4319  1.5478  0.5677
 4850TIP3    H235966   4.462   2.885  16.045 -1.4225 -1.2313  0.4914
 4851TIP3   OH235967   2.780   3.376   0.193 -0.0668 -1.2495  0.0446
 4851TIP3    H135968   2.875   3.379   0.189 -0.0485 -1.0925  0.5861
 4851TIP3    H235969   2.752   3.465   0.170 -0.1032 -1.4076 -0.5486
 4852TIP3   OH235970   5.467   0.751  15.129 -0.4600 -0.2869 -0.0058
 4852TIP3    H135971   5.373   0.739  15.137 -0.4482  0.6701  1.9232
 4852TIP3    H235972   5.480   0.846  15.124  0.5259 -0.2835  2.0862
 4853TIP3   OH235973   4.145   1.895   4.291  0.9442  0.0078 -0.7483
 4853TIP3    H135974   4.177   1.827   4.350 -0.9397  0.9757  1.4979
 4853TIP3    H235975   4.084   1.850   4.233 -0.6636 -0.1987  1.0424
 4854TIP3   OH235976   0.284   6.753   1.330 -0.1040  0.0558 -0.2719
 4854TIP3    H135977   0.374   6.784   1.343 -0.4126  1.0709 -0.5144
 4854TIP3    H235978   0.233   6.833   1.313 -1.2313 -0.4116  0.8593
 4855TIP3   OH235979   2.639   3.654   1.235 -0.0522  0.4429 -0.0230
 4855TIP3    H135980   2.557   3.671   1.281 -0.4440 -0.5709 -0.3316
 4855TIP3    H235981   2.707   3.678   1.297 -0.5759 -0.0934  0.7604
 4856TIP3   OH235982   3.472   6.677  14.657 -0.1803 -0.0499 -0.3770
 4856TIP3    H135983   3.542   6.733  14.622 -0.3712 -0.5650 -1.5946
 4856TIP3    H235984   3.519   6.608  14.705  0.0526  1.2734  1.3760
 4857TIP3   OH235985   1.919   6.162  12.379  0.5493  0.2245  0.0661
 4857TIP3    H135986   1.827   6.165  12.352  0.2889  0.8075  1.0065
 4857TIP3    H235987   1.967   6.194  12.303 -0.0558  0.2529 -0.3063
 4858TIP3   OH235988   5.191   6.074  12.952 -0.4543 -0.2303 -0.2145
 4858TIP3    H135989   5.166   6.022  13.029  0.2627 -0.5170 -0.1685
 4858TIP3    H235990   5.188   6.164  12.983  0.2056 -0.3682  0.2613
 4859TIP3   OH235991   4.003   5.017   0.923  0.3871 -0.1172 -0.1629
 4859TIP3    H135992   4.012   4.985   0.834  1.8286 -0.1713 -0.0151
 4859TIP3    H235993   4.075   4.976   0.971  0.2109  0.6708  0.8021
 4860TIP3   OH235994   1.859   5.268   5.026  0.6266  0.4529  0.5701
 4860TIP3    H135995   1.826   5.190   5.071 -1.3228  1.2964  0.6839
 4860TIP3    H235996   1.936   5.238   4.978 -0.5897 -1.7424 -0.0770
 4861TIP3   OH235997   2.636   0.090  11.750 -0.3144  0.7038 -0.2211
 4861TIP3    H135998   2.656   0.163  11.691 -1.3553  1.1544 -0.0290
 4861TIP3    H235999   2.557   0.117  11.796  0.3764  0.2545  1.2482
 4862TIP3   OH236000   5.332   3.945  11.311  0.1649  0.6098  0.0745
 4862TIP3    H136001   5.428   3.952  11.315  0.1008  1.3630  0.3378
 4862TIP3    H236002   5.316   3.865  11.262  0.9418 -0.2516  1.1966
 4863TIP3   OH236003   4.589   4.853   5.666  0.3637  0.1464 -0.3299
 4863TIP3    H136004   4.541   4.790   5.719 -1.5247  1.0411 -0.9560
 4863TIP3    H236005   4.642   4.800   5.607 -0.6511 -0.8387 -0.3464
 4864TIP3   OH236006   2.505   6.622   2.282  0.1337  0.0418 -0.3175
 4864TIP3    H136007   2.412   6.597   2.284 -0.2099  0.7804 -3.6283
 4864TIP3    H236008   2.506   6.711   2.319 -0.8406  0.8686 -2.1764
 4865TIP3   OH236009   6.032   1.878  13.040 -0.0217  0.1131 -0.1191
 4865TIP3    H136010   6.090   1.842  12.972  0.5577  0.0200  0.4190
 4865TIP3    H236011   5.998   1.801  13.085 -0.0040  0.1883  0.0237
 4866TIP3   OH236012   6.475   3.268   4.657 -0.1909  0.0567 -0.3084
 4866TIP3    H136013   6.434   3.192   4.615 -1.0059 -0.1520  0.8294
 4866TIP3    H236014   6.547   3.292   4.599 -0.6928 -0.8254 -1.3098
 4867TIP3   OH236015   0.093   5.620  16.482  0.1332 -0.0346 -0.3717
 4867TIP3    H136016   0.178   5.584  16.455 -0.3829  0.2387 -2.4829
 4867TIP3    H236017   0.031   5.578  16.422 -1.2391 -0.2939  1.2125
 4868TIP3   OH236018   4.520   1.977  17.176  0.5532  0.2458  0.4927
 4868TIP3    H136019   4.489   1.887  17.187 -0.7412  0.9262  2.8896
 4868TIP3    H236020   4.519   1.991  17.081  1.5254 -2.4975  0.0338
 4869TIP3   OH236021   6.323   3.826   6.695  0.5221 -0.0358  0.2231
 4869TIP3    H136022   6.355   3.736   6.688 -1.0768 -0.4935 -1.4189
 4869TIP3    H236023   6.244   3.819   6.748  0.7029  0.4937  0.5686
 4870TIP3   OH236024   4.929   1.378   2.318 -0.4117  0.1010 -0.0675
 4870TIP3    H136025   4.969   1.385   2.232  2.1509  0.8211  1.1205
 4870TIP3    H236026   4.975   1.306   2.361 -0.5650  0.7501  1.2311
 4871TIP3   OH236027   6.749   5.603  11.533 -0.1605 -0.3517 -0.0776
 4871TIP3    H136028   6.834   5.589  11.492 -0.1858 -1.4141  0.2172
 4871TIP3    H236029   6.697   5.649  11.467  0.5282 -0.0194 -0.3856
 4872TIP3   OH236030   2.363   0.521  11.773  0.0798  0.2143  0.2854
 4872TIP3    H136031   2.442   0.530  11.826  0.5379 -0.2896 -0.3178
 4872TIP3    H236032   2.313   0.601  11.792 -1.2372 -1.3313  3.8690
 4873TIP3   OH236033   3.059   6.001  16.206 -0.5182  0.2695  0.3509
 4873TIP3    H136034   3.076   5.911  16.177 -1.8858  0.3313 -0.6875
 4873TIP3    H236035   3.106   6.008  16.288  0.7098 -0.9805 -0.2110
 4874TIP3   OH236036   3.972   2.379  16.955  0.1640 -0.1083 -0.6393
 4874TIP3    H136037   3.926   2.453  16.995 -0.8208 -0.7627 -0.5579
 4874TIP3    H236038   3.909   2.307  16.956  1.2643 -1.0923 -0.3062
 4875TIP3   OH236039   1.022   3.014   4.951 -0.3388  0.3877 -0.0219
 4875TIP3    H136040   1.028   3.100   4.909  0.9977 -0.1068 -0.9013
 4875TIP3    H236041   0.966   2.963   4.892 -0.2785  0.3480 -0.0444
 4876TIP3   OH236042   3.751   2.394  16.749 -0.2334 -0.4152 -0.0279
 4876TIP3    H136043   3.823   2.333  16.766  0.0457 -0.1007 -0.0571
 4876TIP3    H236044   3.734   2.435  16.835 -0.0039 -0.0900 -0.1363
 4877TIP3   OH236045   0.128   5.697   2.197 -0.1119  0.1110  0.9584
 4877TIP3    H136046   0.206   5.730   2.151  0.4740 -1.5219  0.7324
 4877TIP3    H236047   0.090   5.633   2.136 -1.5845  0.8419  1.1117
 4878TIP3   OH236048   0.800   1.623  15.689  0.1035 -0.7661 -0.0298
 4878TIP3    H136049   0.736   1.560  15.657  1.6431 -2.7969  0.7711
 4878TIP3    H236050   0.748   1.698  15.719 -1.7408 -1.6078 -1.0384
 4879TIP3   OH236051   3.396   0.156   5.030  0.0364 -0.4293 -0.1549
 4879TIP3    H136052   3.476   0.198   4.998  0.3608 -1.8081 -1.2052
 4879TIP3    H236053   3.326   0.217   5.007  0.7552  0.6353  0.4850
 4880TIP3   OH236054   3.039   1.342  15.030  0.3496  0.1509  0.2473
 4880TIP3    H136055   3.020   1.430  14.997 -0.5592  0.3821  1.3323
 4880TIP3    H236056   3.051   1.355  15.125  3.0904 -0.4555  0.0049
 4881TIP3   OH236057   3.809   1.484   3.752  0.6128  0.4337  0.2877
 4881TIP3    H136058   3.760   1.553   3.797  2.0927  2.5542 -1.1968
 4881TIP3    H236059   3.796   1.503   3.659 -0.4899 -2.4707 -0.1938
 4882TIP3   OH236060   4.388   6.336   3.458  0.5416 -0.2991  0.3949
 4882TIP3    H136061   4.417   6.350   3.368 -1.7400  0.6626 -0.2226
 4882TIP3    H236062   4.416   6.247   3.478  1.2524 -0.4520 -1.2002
 4883TIP3   OH236063   4.511   0.646  16.216  0.3764 -0.4368  0.2700
 4883TIP3    H136064   4.432   0.684  16.179  0.1381 -1.7884 -0.6336
 4883TIP3    H236065   4.568   0.630  16.141  0.9833 -0.6786  0.7735
 4884TIP3   OH236066   0.407   4.156   4.202 -0.1035  0.1436 -0.2068
 4884TIP3    H136067   0.495   4.139   4.169  0.9678  0.6014  2.2893
 4884TIP3    H236068   0.373   4.069   4.224  0.3006  0.0811  0.1902
 4885TIP3   OH236069   6.240   5.510   3.182  0.0405  0.8349 -0.0723
 4885TIP3    H136070   6.236   5.416   3.200  2.7281  0.5024 -1.0268
 4885TIP3    H236071   6.333   5.528   3.168 -0.4126  3.6919  0.3184
 4886TIP3   OH236072   4.282   5.468   1.012  0.3164 -0.8348 -0.4178
 4886TIP3    H136073   4.209   5.406   1.011 -1.2827  0.9647  0.2028
 4886TIP3    H236074   4.357   5.417   1.042 -1.2708 -2.1524  1.4658
 4887TIP3   OH236075   2.351   3.867   6.283 -0.3442 -0.3910  0.0507
 4887TIP3    H136076   2.333   3.836   6.372 -1.1848 -2.3225 -0.7681
 4887TIP3    H236077   2.445   3.853   6.271  0.2469  2.0727  1.4346
 4888TIP3   OH236078   3.693   1.327   2.667  0.4106  0.3016 -1.0034
 4888TIP3    H136079   3.747   1.402   2.690  0.4128  0.1592 -0.5240
 4888TIP3    H236080   3.756   1.255   2.657  0.3172  0.1484 -0.5016
 4889TIP3   OH236081   2.719   5.059  12.579  0.0319  0.6836 -0.1132
 4889TIP3    H136082   2.805   5.021  12.562 -0.1876  0.1700 -0.0816
 4889TIP3    H236083   2.657   4.991  12.553 -0.3558  0.9049  0.2256
 4890TIP3   OH236084   0.920   4.046   2.204 -0.1072  0.6235  0.0827
 4890TIP3    H136085   0.842   4.102   2.210 -0.5039 -0.0270  1.0406
 4890TIP3    H236086   0.886   3.958   2.192  0.4800  0.3260  0.5779
 4891TIP3   OH236087   0.162   4.308   1.929  0.2210  0.4545  0.4980
 4891TIP3    H136088   0.165   4.233   1.988 -0.6874  1.1121  1.3887
 4891TIP3    H236089   0.173   4.384   1.985 -1.8476  1.1592  0.0037
 4892TIP3   OH236090   5.132   0.867   5.851  0.1232 -0.2700 -0.4018
 4892TIP3    H136091   5.064   0.867   5.784 -0.6069  0.0100  0.3301
 4892TIP3    H236092   5.084   0.870   5.934  1.0292 -0.0275  0.1205
 4893TIP3   OH236093   1.654   1.099  14.266  0.2086  0.2546 -0.2541
 4893TIP3    H136094   1.562   1.093  14.241  0.1599 -0.3866  0.0498
 4893TIP3    H236095   1.682   1.184  14.235  0.1927 -0.5493 -2.5909
 4894TIP3   OH236096   4.116   0.061  11.917 -0.5427 -0.8631  0.3089
 4894TIP3    H136097   4.162   0.046  11.999  0.2292 -1.0653 -0.1542
 4894TIP3    H236098   4.023   0.056  11.940 -0.3299 -0.7655  1.1906
 4895TIP3   OH236099   6.603   3.073  14.874  0.1803 -0.4491  0.1349
 4895TIP3    H136100   6.591   2.997  14.931  1.7527 -1.7604 -1.2042
 4895TIP3    H236101   6.530   3.131  14.895 -0.9049 -2.2182  1.3763
 4896TIP3   OH236102   2.582   2.393  16.171  0.0704  0.1593 -0.3156
 4896TIP3    H136103   2.556   2.412  16.081  0.8165 -2.6825 -1.1818
 4896TIP3    H236104   2.621   2.475  16.203 -1.6078  1.6585 -2.0226
 4897TIP3   OH236105   5.261   0.362  13.277  0.0469  0.5573  0.3525
 4897TIP3    H136106   5.166   0.355  13.268  0.1730 -1.3668  0.3781
 4897TIP3    H236107   5.296   0.295  13.219  1.4117  1.5351  0.0318
 4898TIP3   OH236108   4.273   4.092   1.534  0.4333 -0.2277 -0.5317
 4898TIP3    H136109   4.312   4.005   1.544  1.2640  0.3498  1.5245
 4898TIP3    H236110   4.192   4.087   1.586  1.1749  0.6395  0.7197
 4899TIP3   OH236111   3.944   5.742   1.144  0.3273 -0.5301  0.2970
 4899TIP3    H136112   4.036   5.729   1.122  0.3899 -0.8486  0.7557
 4899TIP3    H236113   3.897   5.728   1.061  0.4414 -2.9776  0.6206
 4900TIP3   OH236114   5.977   5.660   4.480  0.1553  0.7299 -0.3175
 4900TIP3    H136115   5.956   5.745   4.519 -1.7201 -0.1360  0.6038
 4900TIP3    H236116   5.954   5.670   4.387  0.4145  1.3782 -0.3148
 4901TIP3   OH236117   4.805   5.871   0.357  0.4913 -0.3499  0.2102
 4901TIP3    H136118   4.822   5.838   0.445  1.1727 -0.4683  0.0380
 4901TIP3    H236119   4.731   5.931   0.367  0.6993 -0.2116  0.8981
 4902TIP3   OH236120   1.504   1.449  13.526 -0.0287  0.3870 -0.5927
 4902TIP3    H136121   1.547   1.478  13.606  0.3255  1.4513 -1.1579
 4902TIP3    H236122   1.468   1.529  13.488 -0.5928 -0.1781 -1.2667
 4903TIP3   OH236123   2.840   5.359   5.191 -0.3129 -0.0519  0.3124
 4903TIP3    H136124   2.853   5.392   5.280 -1.0802  0.9482  0.0572
 4903TIP3    H236125   2.779   5.421   5.151  0.4896 -0.1507 -1.1034
 4904TIP3   OH236126   2.658   6.060  15.083  0.1938  0.1808  0.0178
 4904TIP3    H136127   2.612   6.074  15.165 -1.9797  0.5720 -1.2490
 4904TIP3    H236128   2.734   6.006  15.107 -0.8236 -0.3438  2.1411
 4905TIP3   OH236129   5.179   1.593   1.639 -0.2240 -0.1629  0.1668
 4905TIP3    H136130   5.118   1.644   1.694  1.3098  1.4392  0.4302
 4905TIP3    H236131   5.207   1.654   1.572 -1.9760 -2.0826 -2.4009
 4906TIP3   OH236132   5.959   4.980  14.060 -0.6952  0.1957 -0.0479
 4906TIP3    H136133   5.926   4.932  14.136 -2.2030  0.9894 -0.1865
 4906TIP3    H236134   6.013   4.916  14.013 -1.8146 -1.0412  0.3304
 4907TIP3   OH236135   4.321   0.671  13.991  0.2950  0.0690  0.1849
 4907TIP3    H136136   4.315   0.640  14.082  0.2382 -0.0759  0.1326
 4907TIP3    H236137   4.414   0.686  13.978  0.1696  1.2834  0.6532
 4908TIP3   OH236138   5.430   3.048   0.811  0.3617 -0.0871  0.3942
 4908TIP3    H136139   5.498   3.113   0.790  1.1510 -0.9648  0.1957
 4908TIP3    H236140   5.348   3.092   0.791  0.8757  0.9363  0.4729
 4909TIP3   OH236141   6.177   4.271   1.699 -0.3323 -0.3709 -0.0491
 4909TIP3    H136142   6.260   4.314   1.678  0.6521 -1.7459  0.9325
 4909TIP3    H236143   6.124   4.339   1.740  0.3919  0.4699 -0.4948
 4910TIP3   OH236144   6.071   4.128   1.385  0.1843  0.0499  0.4581
 4910TIP3    H136145   6.062   4.108   1.478 -2.5618 -0.8239  0.0646
 4910TIP3    H236146   6.016   4.062   1.341  2.0670 -0.0606 -1.8421
 4911TIP3   OH236147   3.779   2.288   0.704 -0.0638  0.2326 -0.5109
 4911TIP3    H136148   3.825   2.360   0.748  1.8592 -1.0615 -0.3062
 4911TIP3    H236149   3.692   2.287   0.743  0.0341  2.1431 -0.1878
 4912TIP3   OH236150   4.032   0.281  12.261  0.1851  0.4841 -0.3719
 4912TIP3    H136151   3.953   0.321  12.226  0.6571  2.0928  0.3603
 4912TIP3    H236152   4.082   0.354  12.298  1.1905 -0.7397  0.7534
 4913TIP3   OH236153   3.283   2.243  12.702 -0.1995  0.1660 -0.0079
 4913TIP3    H136154   3.334   2.203  12.772  0.6146  0.0662 -0.6588
 4913TIP3    H236155   3.216   2.178  12.681  0.3508 -0.3373 -0.2088
 4914TIP3   OH236156   4.004   5.506   3.351  0.3130 -0.3972  0.6137
 4914TIP3    H136157   3.958   5.490   3.268 -1.0200 -2.0963  1.6448
 4914TIP3    H236158   4.043   5.592   3.340  0.4394 -0.7377 -1.9127
 4915TIP3   OH236159   1.750   4.886  14.675  0.4648  0.0741  0.4569
 4915TIP3    H136160   1.720   4.948  14.608 -0.2556 -0.4555  0.2809
 4915TIP3    H236161   1.706   4.804  14.652 -0.2831  0.0368  1.9422
 4916TIP3   OH236162   3.350   4.626  15.364 -0.2257  0.2123 -0.3342
 4916TIP3    H136163   3.343   4.675  15.282 -1.4747  0.1838 -0.2415
 4916TIP3    H236164   3.342   4.534  15.338  1.0596  0.0941 -0.3736
 4917TIP3   OH236165   5.795   4.555  15.516  0.3819 -0.1885  0.2245
 4917TIP3    H136166   5.833   4.483  15.566  0.9757 -0.2100 -0.2449
 4917TIP3    H236167   5.727   4.591  15.573  0.6225 -0.6133  0.7862
 4918TIP3   OH236168   2.342   1.597   2.912  0.1999 -0.5620  0.0744
 4918TIP3    H136169   2.293   1.546   2.848 -0.5722  0.5192 -0.2163
 4918TIP3    H236170   2.429   1.557   2.914  0.9446  0.8012 -3.2895
 4919TIP3   OH236171   4.379   0.173   5.005  0.1866  0.4962  0.1118
 4919TIP3    H136172   4.455   0.132   4.963 -0.4036  1.0240 -1.4961
 4919TIP3    H236173   4.319   0.192   4.933 -1.2499  0.5850  1.3116
 4920TIP3   OH236174   2.399   2.081  15.169  0.1942 -0.6119 -0.0449
 4920TIP3    H136175   2.418   1.989  15.187 -1.1066 -1.1820 -1.4985
 4920TIP3    H236176   2.408   2.125  15.253  1.7557 -1.9089  0.4752
 4921TIP3   OH236177   5.791   3.347   0.378  0.4073  0.1006  0.0324
 4921TIP3    H136178   5.696   3.348   0.394  0.3246 -1.2813 -0.3069
 4921TIP3    H236179   5.810   3.434   0.343 -0.8978  0.0731 -0.8006
 4922TIP3   OH236180   5.188   5.679   2.292 -0.3110  0.0882  0.2089
 4922TIP3    H136181   5.241   5.720   2.360 -0.0744  0.7378 -0.3605
 4922TIP3    H236182   5.127   5.748   2.264 -0.2093 -0.0742 -0.4376
 4923TIP3   OH236183   3.925   0.115   2.830  0.0287 -0.2871 -0.0087
 4923TIP3    H136184   3.868   0.171   2.882  1.0345  0.6420  0.1068
 4923TIP3    H236185   3.874   0.035   2.818 -0.4184 -0.3309  1.9737
 4924TIP3   OH236186   2.339   1.906   0.300  0.3186  0.9508 -0.3362
 4924TIP3    H136187   2.296   1.939   0.379  0.0448 -0.6921  0.2176
 4924TIP3    H236188   2.267   1.894   0.237  0.2775  0.4169 -0.1878
 4925TIP3   OH236189   3.299   0.868  12.714  0.5210 -0.0975  0.5195
 4925TIP3    H136190   3.216   0.916  12.726 -0.9999 -2.7174  0.8330
 4925TIP3    H236191   3.355   0.930  12.666 -2.5454  0.8182 -2.0986
 4926TIP3   OH236192   6.060   3.750  14.901 -0.1899  0.2608 -0.4039
 4926TIP3    H136193   5.982   3.802  14.879  0.1051  0.9288  0.1171
 4926TIP3    H236194   6.097   3.727  14.816 -0.6708  0.3683 -0.6489
 4927TIP3   OH236195   5.798   2.581   2.807 -0.2273 -0.0819 -0.2917
 4927TIP3    H136196   5.734   2.558   2.875 -2.7833  0.5450 -2.4078
 4927TIP3    H236197   5.877   2.603   2.856 -0.7617 -3.4141  2.2817
 4928TIP3   OH236198   3.528   2.980  16.498 -0.1940  0.1502  0.0449
 4928TIP3    H136199   3.487   2.900  16.530  0.5316 -0.1984  0.1122
 4928TIP3    H236200   3.525   2.972  16.403  2.4032 -1.2827  0.0406
 4929TIP3   OH236201   2.815   5.224   4.961 -0.1191 -0.4659 -0.1947
 4929TIP3    H136202   2.798   5.157   5.027 -0.2691 -1.5834 -1.3355
 4929TIP3    H236203   2.871   5.288   5.005 -1.0058 -0.6833  1.2871
 4930TIP3   OH236204   4.913   3.618   2.875  0.0230  0.0661  0.5888
 4930TIP3    H136205   4.917   3.595   2.782 -0.9618  0.8981  0.3269
 4930TIP3    H236206   4.841   3.681   2.881 -1.2164 -1.4481  2.2034
 4931TIP3   OH236207   2.432   6.734   1.976  0.4279 -0.4365 -0.0767
 4931TIP3    H136208   2.355   6.745   2.030  1.1595  1.3322  0.6407
 4931TIP3    H236209   2.475   6.655   2.010  0.0842 -0.1840  0.9357
 4932TIP3   OH236210   3.815   5.225   6.094  0.1886 -0.2806 -0.0745
 4932TIP3    H136211   3.890   5.211   6.036 -0.1099 -1.6887 -0.1533
 4932TIP3    H236212   3.826   5.159   6.163  0.1324  0.8808  1.0553
 4933TIP3   OH236213   0.955   5.143  11.902 -0.4382 -0.5080  0.2488
 4933TIP3    H136214   0.914   5.208  11.845  2.5774  0.5257 -0.8054
 4933TIP3    H236215   0.974   5.190  11.982 -0.4160 -0.7373  0.3799
 4934TIP3   OH236216   5.097   5.798   1.747 -0.5875 -0.3344 -0.2946
 4934TIP3    H136217   5.109   5.820   1.839 -2.1109 -0.4503 -0.0529
 4934TIP3    H236218   5.013   5.839   1.723 -0.5591 -0.9161 -1.4252
 4935TIP3   OH236219   4.290   3.204  12.164 -0.8722  0.0015  0.0705
 4935TIP3    H136220   4.272   3.127  12.110 -1.9711 -0.2973  0.8532
 4935TIP3    H236221   4.355   3.254  12.113 -1.1196 -0.7868 -1.0398
 4936TIP3   OH236222   0.083   4.043  15.967 -0.0137  0.9756  0.2379
 4936TIP3    H136223   0.122   4.053  16.054 -0.0938  0.5665  0.3192
 4936TIP3    H236224   0.157   4.023  15.910 -0.3477 -1.9599  0.7528
 4937TIP3   OH236225   6.517   4.791   5.626 -0.1635 -0.3110  0.3587
 4937TIP3    H136226   6.580   4.719   5.622  0.8952  0.5910  0.6947
 4937TIP3    H236227   6.571   4.870   5.623 -1.2229  0.4639  1.5150
 4938TIP3   OH236228   1.298   0.118  13.167  1.1294  0.0132  0.1552
 4938TIP3    H136229   1.336   0.191  13.118 -0.1117 -0.1406 -1.0305
 4938TIP3    H236230   1.221   0.156  13.211  0.4830 -0.5853 -0.4633
 4939TIP3   OH236231   6.466   5.701  14.655  0.5134 -0.0306 -0.1894
 4939TIP3    H136232   6.402   5.632  14.669 -0.3784  0.9591  0.7603
 4939TIP3    H236233   6.478   5.705  14.561 -1.1132  0.0136 -0.4075
 4940TIP3   OH236234   1.536   0.579  12.819  0.2527 -0.2597 -0.5342
 4940TIP3    H136235   1.621   0.607  12.853  0.1698 -0.0567 -0.4961
 4940TIP3    H236236   1.488   0.660  12.804 -0.8049 -0.4365  1.7004
 4941TIP3   OH236237   5.959   1.402   0.152  0.7887 -0.4567  0.0253
 4941TIP3    H136238   5.883   1.351   0.181  0.4103  0.2853  0.3682
 4941TIP3    H236239   5.999   1.349   0.083 -0.2119 -0.7262 -0.3561
 4942TIP3   OH236240   6.107   0.098  16.823  0.0507 -0.2535  0.4647
 4942TIP3    H136241   6.092   0.004  16.813 -1.8317 -0.0973  1.6204
 4942TIP3    H236242   6.032   0.130  16.874 -0.5683  2.2841 -1.8957
 4943TIP3   OH236243   4.853   1.413   1.723 -0.7933  0.4964  0.0108
 4943TIP3    H136244   4.823   1.477   1.787 -0.7278  0.0695  0.4819
 4943TIP3    H236245   4.810   1.331   1.750 -2.6971  0.8089 -1.9321
 4944TIP3   OH236246   0.332   3.584   5.083  0.0171  0.4048  0.2236
 4944TIP3    H136247   0.393   3.547   5.147  0.7526 -1.2861 -1.4111
 4944TIP3    H236248   0.258   3.524   5.083  0.3424 -0.0061 -1.0185
 4945TIP3   OH236249   4.260   1.701   2.213  0.0538  0.5564 -1.2247
 4945TIP3    H136250   4.236   1.642   2.284  0.9475 -0.2218 -1.5645
 4945TIP3    H236251   4.229   1.787   2.242  1.6492  0.5056  0.7302
 4946TIP3   OH236252   5.355   0.296  14.870  0.1998  0.0149  0.1330
 4946TIP3    H136253   5.363   0.341  14.955 -0.0546 -0.6455  0.5064
 4946TIP3    H236254   5.442   0.305  14.830  0.3021  0.3826  0.4287
 4947TIP3   OH236255   5.331   0.632  14.755 -0.2562 -0.4419  0.8266
 4947TIP3    H136256   5.277   0.708  14.775  0.3790  1.0133 -2.5582
 4947TIP3    H236257   5.274   0.574  14.705  0.9691  0.7481 -2.0801
 4948TIP3   OH236258   2.994   0.813   6.050  0.3776 -0.3336  0.0102
 4948TIP3    H136259   3.013   0.723   6.077 -0.3863 -0.9535 -1.4439
 4948TIP3    H236260   2.901   0.825   6.069  0.6186  0.3517  0.7612
 4949TIP3   OH236261   5.255   2.228  16.610  0.3464 -0.4543  0.4971
 4949TIP3    H136262   5.213   2.208  16.526 -2.1551  0.7501  1.3840
 4949TIP3    H236263   5.188   2.277  16.658  1.6305 -1.3583  3.3027
 4950TIP3   OH236264   6.643   6.628  10.785 -0.3239  0.0763 -0.1667
 4950TIP3    H136265   6.585   6.698  10.815  1.3332 -0.1857  3.9269
 4950TIP3    H236266   6.604   6.548  10.822 -0.6264 -0.8685 -2.4368
 4951TIP3   OH236267   4.453   1.290  15.634 -0.2637  0.3068  0.1214
 4951TIP3    H136268   4.369   1.275  15.592 -1.3661  1.9732  1.6951
 4951TIP3    H236269   4.509   1.323  15.563 -0.8647 -0.9134 -0.9466
 4952TIP3   OH236270   1.770   6.379  10.922 -0.6394 -0.5792  0.4259
 4952TIP3    H136271   1.791   6.287  10.942 -0.2441 -1.0410 -1.9192
 4952TIP3    H236272   1.689   6.375  10.872 -0.2704  0.2896 -0.2534
 4953TIP3   OH236273   5.170   0.339   1.044 -0.0623 -0.1657  0.3691
 4953TIP3    H136274   5.255   0.317   1.006 -0.2142  1.0037 -0.6597
 4953TIP3    H236275   5.152   0.267   1.104  1.3384 -0.7701  0.0860
 4954TIP3   OH236276   3.281   3.152  13.968  0.2820  0.1734  0.1411
 4954TIP3    H136277   3.222   3.224  13.943 -0.2593 -0.4518 -0.4186
 4954TIP3    H236278   3.362   3.196  13.994 -0.6448  1.0833  1.5576
 4955TIP3   OH236279   6.219   4.172  15.160  0.7665  0.0932 -0.2386
 4955TIP3    H136280   6.233   4.174  15.065  1.1857  0.4045 -0.1705
 4955TIP3    H236281   6.273   4.099  15.190 -0.3265 -0.7907 -0.3947
 4956TIP3   OH236282   5.322   5.825   1.289  0.4908 -0.6051 -0.2596
 4956TIP3    H136283   5.372   5.785   1.360 -0.8780 -2.1223 -0.1180
 4956TIP3    H236284   5.230   5.813   1.314  0.0173  0.9209 -1.1666
 4957TIP3   OH236285   4.660   4.756  15.428  0.0711 -0.0640 -0.4667
 4957TIP3    H136286   4.594   4.690  15.447  0.9800 -0.5611  1.0417
 4957TIP3    H236287   4.706   4.722  15.351  0.2963 -1.0324  0.0812
 4958TIP3   OH236288   4.287   5.947   4.551  0.2783 -0.1584 -0.0384
 4958TIP3    H136289   4.349   5.879   4.528  0.4087  0.7070 -2.3975
 4958TIP3    H236290   4.212   5.931   4.493 -0.3876  0.6796  0.5816
 4959TIP3   OH236291   4.512   3.520  14.134 -0.4682  0.4187  0.7440
 4959TIP3    H136292   4.506   3.484  14.223  0.4590  0.9500  1.0216
 4959TIP3    H236293   4.578   3.466  14.090 -0.9568  0.1290  0.3617
 4960TIP3   OH236294   0.113   2.112  12.942  0.5137  0.0684  0.4591
 4960TIP3    H136295   0.197   2.081  12.907  1.0365  2.1161 -0.2272
 4960TIP3    H236296   0.106   2.071  13.028  2.0899 -0.3639  0.4047
 4961TIP3   OH236297   3.030   5.338  16.445 -0.8780 -0.4561 -0.4009
 4961TIP3    H136298   2.965   5.405  16.464 -1.1710 -0.5480 -1.0872
 4961TIP3    H236299   3.059   5.356  16.356 -0.3355 -0.7294 -0.2858
 4962TIP3   OH236300   1.251   5.533  16.968 -0.3736 -0.0562  0.2686
 4962TIP3    H136301   1.161   5.547  16.996  1.0194  3.2536  3.4653
 4962TIP3    H236302   1.286   5.621  16.954  2.8325 -1.2083  0.5786
 4963TIP3   OH236303   1.062   0.041   6.138  0.5383  0.7426  0.3061
 4963TIP3    H136304   1.080   0.113   6.078  1.9999  0.3047  0.1999
 4963TIP3    H236305   0.982   0.067   6.183 -0.8782  0.8449 -2.1878
 4964TIP3   OH236306   2.416   0.237   0.647 -0.2363  0.0018 -0.1730
 4964TIP3    H136307   2.385   0.179   0.578  0.8596 -0.5055 -0.2632
 4964TIP3    H236308   2.372   0.207   0.726 -0.9536  0.1285 -0.5244
 4965TIP3   OH236309   5.469   4.691  14.069 -0.1665  0.0279  0.2166
 4965TIP3    H136310   5.531   4.684  14.141 -0.3405  0.0165  0.3665
 4965TIP3    H236311   5.485   4.778  14.031  0.6928 -0.4150 -0.4409
 4966TIP3   OH236312   5.508   0.611   0.580  0.3373 -0.3842  1.0742
 4966TIP3    H136313   5.464   0.696   0.584  0.1934 -0.3495 -0.7346
 4966TIP3    H236314   5.598   0.632   0.554  0.1573 -0.8197  0.0907
 4967TIP3   OH236315   6.396   1.555   2.940 -0.6260 -0.4068  0.3660
 4967TIP3    H136316   6.473   1.520   2.985  0.9439  1.2542 -0.9654
 4967TIP3    H236317   6.329   1.487   2.951  0.9105 -1.7290  1.8311
 4968TIP3   OH236318   6.327   4.277  17.160  0.1280 -0.4661 -0.1907
 4968TIP3    H136319   6.393   4.318  17.104 -0.6621  0.3176 -0.5582
 4968TIP3    H236320   6.372   4.262  17.243  1.3471 -1.7375 -1.0401
 4969TIP3   OH236321   3.160   0.499  10.314 -0.1524 -0.5377  0.3020
 4969TIP3    H136322   3.153   0.410  10.349  0.4598 -2.0284 -3.1032
 4969TIP3    H236323   3.080   0.510  10.262 -0.1765  0.8789  0.6295
 4970TIP3   OH236324   3.870   6.579  14.792  0.3279 -0.7061  1.0021
 4970TIP3    H136325   3.790   6.527  14.800  0.1903 -0.5429  0.6986
 4970TIP3    H236326   3.840   6.667  14.772  0.6268 -0.9611 -0.6579
 4971TIP3   OH236327   6.554   4.949  14.759 -0.5775  0.3465 -0.0740
 4971TIP3    H136328   6.608   5.022  14.790 -1.0642  0.7466 -0.1526
 4971TIP3    H236329   6.616   4.877  14.746  0.2953  1.4642 -2.3564
 4972TIP3   OH236330   3.712   5.581  16.651  0.0762 -0.8006  0.0779
 4972TIP3    H136331   3.631   5.535  16.628 -0.3149  0.6346 -1.4244
 4972TIP3    H236332   3.781   5.534  16.604  0.1268 -1.9449  1.2565
 4973TIP3   OH236333   3.939   2.906   5.922 -0.0681  0.1834 -0.0324
 4973TIP3    H136334   3.915   2.999   5.922  0.9608  0.4532 -0.8578
 4973TIP3    H236335   3.999   2.897   5.996  1.3503  0.5798 -1.1242
 4974TIP3   OH236336   1.506   0.849   6.283 -0.0771  0.0477 -0.3769
 4974TIP3    H136337   1.582   0.885   6.329 -0.1066  0.8651 -0.9672
 4974TIP3    H236338   1.491   0.909   6.211 -1.7535  0.2923  0.1707
 4975TIP3   OH236339   4.838   3.313   4.419  0.5050 -0.2905  0.4894
 4975TIP3    H136340   4.762   3.264   4.451 -0.1512  2.3458  3.1759
 4975TIP3    H236341   4.906   3.300   4.485  0.5149  1.8147  0.9598
 4976TIP3   OH236342   5.682   0.594  12.337 -0.3624  0.4667 -0.1993
 4976TIP3    H136343   5.677   0.630  12.248 -0.5585  2.1416  0.4579
 4976TIP3    H236344   5.591   0.579  12.362 -0.3149  0.1536 -0.2127
 4977TIP3   OH236345   6.003   6.680  12.616 -0.0346 -0.0552 -0.2745
 4977TIP3    H136346   5.917   6.655  12.648  1.0816 -1.9764  1.3460
 4977TIP3    H236347   6.006   6.647  12.526 -0.5142 -1.1528  0.1028
 4978TIP3   OH236348   4.083   0.904  14.598 -0.0853 -0.0157  0.0298
 4978TIP3    H136349   4.062   0.821  14.555 -0.6198  0.0338  0.1934
 4978TIP3    H236350   4.177   0.914  14.586  0.0958 -0.9612  0.5551
 4979TIP3   OH236351   4.156   2.208  11.724 -0.8502  0.1199  0.9489
 4979TIP3    H136352   4.195   2.123  11.705 -0.9965 -0.2196  2.1722
 4979TIP3    H236353   4.174   2.223  11.817 -1.2935  1.1815  0.8744
 4980TIP3   OH236354   2.604   3.694   1.653  0.1780 -0.2050 -0.1804
 4980TIP3    H136355   2.621   3.758   1.723  0.1117  0.4576 -0.7641
 4980TIP3    H236356   2.664   3.622   1.672 -0.2668 -0.3044  0.9084
 4981TIP3   OH236357   3.469   2.644   2.936  0.5761 -0.4176 -0.2659
 4981TIP3    H136358   3.422   2.706   2.880 -2.7098 -0.2994  2.4876
 4981TIP3    H236359   3.540   2.696   2.974  0.6560  0.4252 -1.5176
 4982TIP3   OH236360   6.585   2.146   2.474  0.2188 -0.2446 -0.3931
 4982TIP3    H136361   6.587   2.149   2.378 -1.0592  0.1460 -0.4106
 4982TIP3    H236362   6.555   2.058   2.495  0.5087 -0.3336 -0.3476
 4983TIP3   OH236363   4.988   5.602   6.399 -0.1359 -0.4557  0.0141
 4983TIP3    H136364   4.902   5.603   6.356 -0.0575 -0.4410 -0.1413
 4983TIP3    H236365   5.031   5.682   6.368 -0.7055  0.4085  1.3899
 4984TIP3   OH236366   2.557   2.482   4.477  0.6842  0.3038 -0.3700
 4984TIP3    H136367   2.505   2.558   4.449 -0.6791  0.1437  1.5844
 4984TIP3    H236368   2.561   2.490   4.572  0.6014 -2.0247 -0.1438
 4985TIP3   OH236369   6.221   1.060  11.761 -0.2162  0.6718 -0.0143
 4985TIP3    H136370   6.311   1.082  11.738  0.1070  1.3846  1.8410
 4985TIP3    H236371   6.172   1.141  11.747 -0.4558  0.4398 -0.4986
 4986TIP3   OH236372   6.231   5.056   6.400 -0.3947  0.4686 -0.2669
 4986TIP3    H136373   6.183   5.135   6.427 -0.1977  0.5929 -0.2799
 4986TIP3    H236374   6.166   5.003   6.355 -0.3062  1.0377 -1.0715
 4987TIP3   OH236375   0.535   5.488  15.000 -0.4480  0.1376  0.2758
 4987TIP3    H136376   0.563   5.411  14.951  1.0781 -0.0743  1.4536
 4987TIP3    H236377   0.600   5.555  14.980 -1.4787  0.9810 -0.3290
 4988TIP3   OH236378   3.411   4.744   1.623  0.3799  0.6763  0.5559
 4988TIP3    H136379   3.478   4.785   1.568 -0.4317  1.4352  0.1235
 4988TIP3    H236380   3.330   4.792   1.602 -0.2546 -0.0973  1.2212
 4989TIP3   OH236381   0.416   0.897  13.059  0.0289  0.2394 -0.6236
 4989TIP3    H136382   0.468   0.900  13.139  0.9798 -0.3352 -1.2128
 4989TIP3    H236383   0.374   0.983  13.054 -0.7902 -0.0451  0.9748
 4990TIP3   OH236384   3.467   1.034  15.763 -0.6343 -0.0057 -0.3747
 4990TIP3    H136385   3.549   1.071  15.795  0.9556 -2.3147 -1.5812
 4990TIP3    H236386   3.410   1.110  15.747  0.8103  1.5431  1.6629
 4991TIP3   OH236387   4.779   2.807  12.415  0.4108  0.1922 -0.3626
 4991TIP3    H136388   4.721   2.738  12.382  1.0106 -0.1955 -0.6072
 4991TIP3    H236389   4.752   2.819  12.506  0.7098 -0.7961 -0.1337
 4992TIP3   OH236390   1.498   3.242   6.555  0.1143  0.3928 -0.5703
 4992TIP3    H136391   1.425   3.195   6.594  0.1331  0.9361  0.1336
 4992TIP3    H236392   1.491   3.225   6.461 -1.3919  1.1145 -0.5958
 4993TIP3   OH236393   3.970   5.192   3.390 -0.2463 -0.0010 -0.2714
 4993TIP3    H136394   4.020   5.174   3.470  0.7284  1.8232 -0.4352
 4993TIP3    H236395   3.903   5.254   3.417  0.2017  0.7653 -0.9001
 4994TIP3   OH236396   6.379   5.325  11.956  0.3397  0.9084  0.4373
 4994TIP3    H136397   6.382   5.390  11.886 -0.9992  1.3350  0.7677
 4994TIP3    H236398   6.380   5.241  11.911  1.5883  1.1441 -0.0053
 4995TIP3   OH236399   1.837   2.827   4.333  0.5362 -0.4826 -0.1917
 4995TIP3    H136400   1.933   2.826   4.325  0.4184  0.3752 -1.8542
 4995TIP3    H236401   1.810   2.741   4.301  0.7042 -0.5183 -0.2366
 4996TIP3   OH236402   2.729   0.866  17.238 -0.1965  0.3188 -0.0387
 4996TIP3    H136403   2.706   0.873  17.145 -0.0996 -0.1132 -0.0942
 4996TIP3    H236404   2.649   0.836  17.281  0.2171 -1.0421 -0.2089
 4997TIP3   OH236405   2.655   3.420   1.084  0.8667  0.4291 -0.1658
 4997TIP3    H136406   2.621   3.501   1.121 -2.4044 -0.3989 -1.2396
 4997TIP3    H236407   2.702   3.448   1.005  0.7919  1.3873  0.1241
 4998TIP3   OH236408   4.234   2.898  12.960 -0.1739 -0.6508  0.1595
 4998TIP3    H136409   4.260   2.976  13.009 -0.6639 -0.8353  0.7226
 4998TIP3    H236410   4.177   2.931  12.891  1.1578 -0.3031 -0.7810
 4999TIP3   OH236411   5.920   0.540   0.323  0.1608 -0.5499  0.4703
 4999TIP3    H136412   5.943   0.448   0.314  1.1246 -0.2501 -0.2025
 4999TIP3    H236413   5.871   0.561   0.244 -0.2148 -0.5367  0.7080
 5000TIP3   OH236414   3.899   4.970   2.775  0.1723  0.0336  0.2709
 5000TIP3    H136415   3.849   5.048   2.755 -1.5246 -1.0994 -0.0200
 5000TIP3    H236416   3.879   4.910   2.703  0.0066 -1.3173  1.4249
 5001TIP3   OH236417   1.132   6.732  16.806 -0.4641 -0.6025 -0.2803
 5001TIP3    H136418   1.215   6.690  16.785  0.6148 -0.1422  2.8476
 5001TIP3    H236419   1.140   6.821  16.770 -0.4479 -1.1932 -1.7780
 5002TIP3   OH236420   5.328   0.775   2.922 -0.2525  0.4630 -0.1831
 5002TIP3    H136421   5.355   0.800   3.010 -0.4463 -0.0414  0.0242
 5002TIP3    H236422   5.380   0.830   2.864  0.9629 -0.2363  0.2145
 5003TIP3   OH236423   6.450   2.857   6.524 -0.7137 -0.6223  0.1627
 5003TIP3    H136424   6.497   2.895   6.598 -0.5082 -1.2691  0.3628
 5003TIP3    H236425   6.502   2.781   6.499 -1.0742 -0.7155 -0.3007
 5004TIP3   OH236426   6.519   0.772  14.545 -0.0795  0.4371 -0.3666
 5004TIP3    H136427   6.556   0.688  14.517  0.5152 -0.0991  1.9657
 5004TIP3    H236428   6.440   0.749  14.593  0.5434  1.1328  1.0216
 5005TIP3   OH236429   2.300   3.176  17.228 -0.1627 -0.3401  0.6898
 5005TIP3    H136430   2.376   3.144  17.277  2.1811  0.8713 -1.9311
 5005TIP3    H236431   2.274   3.256  17.273  0.6995 -0.3043  1.1392
 5006TIP3   OH236432   0.356   4.137  15.422  0.1567  0.7084 -0.1063
 5006TIP3    H136433   0.401   4.203  15.476  0.4386  0.0203  0.5064
 5006TIP3    H236434   0.427   4.095  15.373  0.1202  0.0695  0.3763
 5007TIP3   OH236435   2.895   3.669   1.923 -0.7928 -0.0545 -0.5467
 5007TIP3    H136436   2.873   3.721   1.846 -1.7484 -0.7996 -0.7830
 5007TIP3    H236437   2.841   3.705   1.993  0.0860  0.6321 -0.2027
 5008TIP3   OH236438   5.079   3.997  17.085  0.1072 -0.4960  0.8746
 5008TIP3    H136439   5.099   3.919  17.035 -1.1992 -0.9147  0.9710
 5008TIP3    H236440   5.164   4.035  17.107  0.7363 -1.7013  0.5377
 5009TIP3   OH236441   3.950   3.987  14.792  0.0544 -0.1330 -0.2325
 5009TIP3    H136442   3.960   3.915  14.730 -2.2285  0.6385 -1.5565
 5009TIP3    H236443   4.018   4.049  14.768 -0.0732 -0.3669 -1.2231
 5010TIP3   OH236444   5.364   4.755  10.966  0.2552  0.1975  0.3936
 5010TIP3    H136445   5.337   4.846  10.977 -1.5517  0.0049 -2.1114
 5010TIP3    H236446   5.296   4.705  11.011  1.0502  0.0273  1.4437
 5011TIP3   OH236447   5.757   4.237   2.698 -0.4710 -0.1754 -0.1175
 5011TIP3    H136448   5.832   4.181   2.717  0.4220  0.9066 -0.3841
 5011TIP3    H236449   5.761   4.252   2.603  0.9767  2.6084  0.3133
 5012TIP3   OH236450   5.536   6.565  11.924 -0.4168  0.3648  0.0998
 5012TIP3    H136451   5.530   6.573  12.019  0.0081  0.2677  0.1333
 5012TIP3    H236452   5.475   6.494  11.903  1.0161 -1.0224  0.5142
 5013TIP3   OH236453   0.964   1.694   0.102  0.7390 -0.3618  0.6919
 5013TIP3    H136454   0.936   1.606   0.077 -0.8558  0.3273  0.0168
 5013TIP3    H236455   0.907   1.717   0.175 -0.2346  0.9088 -0.4457
 5014TIP3   OH236456   1.302   2.599   0.336 -0.1447 -0.4314 -0.0149
 5014TIP3    H136457   1.336   2.599   0.426 -0.5587  0.0176  0.1392
 5014TIP3    H236458   1.365   2.546   0.287 -0.1295 -1.0193  0.6226
 5015TIP3   OH236459   4.680   4.442  15.176  0.2990 -1.4934  0.4693
 5015TIP3    H136460   4.769   4.472  15.197 -0.6042  2.5879 -1.1296
 5015TIP3    H236461   4.628   4.466  15.252 -0.5159  1.6455 -1.0035
 5016TIP3   OH236462   2.268   1.681  13.213 -0.3551 -0.4309  0.2015
 5016TIP3    H136463   2.225   1.767  13.211 -1.0275 -0.7000  2.4584
 5016TIP3    H236464   2.356   1.698  13.246 -0.0620 -0.4453 -0.5625
 5017TIP3   OH236465   0.245   6.115  12.583  0.4362 -0.3208 -0.5022
 5017TIP3    H136466   0.340   6.106  12.588  0.2471 -2.5547 -0.5718
 5017TIP3    H236467   0.214   6.032  12.546 -1.5601  0.3119 -0.3461
 5018TIP3   OH236468   5.171   3.622  11.657 -0.5827  0.0579  0.0556
 5018TIP3    H136469   5.195   3.711  11.683 -0.6817  0.3013 -0.6665
 5018TIP3    H236470   5.095   3.634  11.600  0.9120 -0.2955 -2.0756
 5019TIP3   OH236471   6.494   6.149   4.699  0.5018 -0.8150  0.0214
 5019TIP3    H136472   6.416   6.094   4.705  0.4170 -0.5608  1.5558
 5019TIP3    H236473   6.538   6.121   4.619 -1.3037 -0.7709 -1.0046
 5020TIP3   OH236474   2.912   5.677   1.418  0.1069 -0.6693  0.1449
 5020TIP3    H136475   2.901   5.597   1.470  0.6829 -0.5358  0.4830
 5020TIP3    H236476   2.873   5.656   1.334 -0.9881 -0.8301  0.6798
 5021TIP3   OH236477   6.039   1.100  16.777 -0.0127  0.6423  0.1221
 5021TIP3    H136478   5.955   1.082  16.734 -0.0312 -0.2022  0.4996
 5021TIP3    H236479   6.041   1.195  16.786 -0.7217  0.7027 -0.3217
 5022TIP3   OH236480   2.359   6.553   5.486 -0.4199 -0.2109  0.1347
 5022TIP3    H136481   2.280   6.581   5.439 -0.9938  0.8186  1.6867
 5022TIP3    H236482   2.373   6.462   5.458 -1.7392 -0.1673 -0.6878
 5023TIP3   OH236483   1.765   0.671  15.660 -0.2226 -0.1119  0.4789
 5023TIP3    H136484   1.750   0.746  15.718  0.2437  1.4756 -1.4286
 5023TIP3    H236485   1.677   0.642  15.635 -0.3876  1.6152 -1.0540
 5024TIP3   OH236486   6.220   0.940   3.877  0.3778 -0.2810 -0.6702
 5024TIP3    H136487   6.311   0.923   3.854  1.0390  0.5020  1.2265
 5024TIP3    H236488   6.198   0.874   3.943  0.2851  0.8615  0.4718
 5025TIP3   OH236489   3.743   1.562  13.418  0.1418  0.2738  0.0997
 5025TIP3    H136490   3.807   1.557  13.489  1.5971  1.0617 -1.1465
 5025TIP3    H236491   3.792   1.595  13.343 -1.1196 -1.5150 -1.5822
 5026TIP3   OH236492   1.551   3.255   5.603  0.0135  0.1689 -0.1451
 5026TIP3    H136493   1.572   3.348   5.604  1.3544 -0.1242  1.1233
 5026TIP3    H236494   1.480   3.245   5.667 -1.4559  0.5917 -1.6809
 5027TIP3   OH236495   4.951   4.407  11.560 -0.3900 -0.1766  0.5657
 5027TIP3    H136496   4.972   4.314  11.574  1.9197  0.1042 -0.8989
 5027TIP3    H236497   5.003   4.453  11.626 -0.5747  0.1730  0.4645
 5028TIP3   OH236498   5.202   4.553  15.649  0.0934  0.1530 -0.4394
 5028TIP3    H136499   5.152   4.524  15.572 -2.2196  0.9561  0.7000
 5028TIP3    H236500   5.176   4.644  15.661  1.0925  0.2884  0.7815
 5029TIP3   OH236501   0.608   0.908  11.323 -0.5768 -0.1151 -0.2082
 5029TIP3    H136502   0.626   0.860  11.403  2.5988  0.6845 -0.3542
 5029TIP3    H236503   0.651   0.857  11.254  0.5867  1.5100 -0.7252
 5030TIP3   OH236504   5.541   0.591   5.414  0.5446 -0.1458 -0.3664
 5030TIP3    H136505   5.556   0.686   5.417 -2.5205  0.3599  1.3466
 5030TIP3    H236506   5.594   0.561   5.341  1.3289  2.9449 -1.1629
 5031TIP3   OH236507   4.665   6.538  13.089  0.0366  0.3060  0.9376
 5031TIP3    H136508   4.741   6.487  13.061  0.3789  0.5415  1.4217
 5031TIP3    H236509   4.590   6.482  13.068  0.1203  1.3500 -2.3151
 5032TIP3   OH236510   2.353   4.212  13.014 -0.4385 -0.4903  0.4366
 5032TIP3    H136511   2.446   4.214  13.039 -0.4467 -0.6256  0.4775
 5032TIP3    H236512   2.340   4.125  12.976 -0.1367  0.1521 -1.1778
 5033TIP3   OH236513   1.971   2.203   4.628 -0.1143 -0.5627  0.2534
 5033TIP3    H136514   1.923   2.286   4.618  1.9156  0.6238  0.1104
 5033TIP3    H236515   2.021   2.213   4.709  0.0984 -1.6717  0.2665
 5034TIP3   OH236516   4.075   0.022  16.260  0.2118 -0.1156 -0.3138
 5034TIP3    H136517   4.135  -0.040  16.219  0.9249 -0.5080  1.2928
 5034TIP3    H236518   4.092   0.014  16.354 -1.0723  1.0930  0.0433
 5035TIP3   OH236519   6.607   0.595  16.163 -0.6221  0.1815  0.9979
 5035TIP3    H136520   6.693   0.576  16.201  0.0506 -0.6814 -0.8940
 5035TIP3    H236521   6.597   0.690  16.172  0.6877  0.3334  0.9599
 5036TIP3   OH236522   6.414   4.469   2.157 -0.3072  0.1660 -0.1740
 5036TIP3    H136523   6.408   4.419   2.076 -1.1333 -0.4185  0.2483
 5036TIP3    H236524   6.506   4.495   2.162 -0.0637 -0.5605 -0.8344
 5037TIP3   OH236525   0.885   0.434  16.087  0.0481  0.2447 -0.4852
 5037TIP3    H136526   0.969   0.418  16.044 -1.6511 -1.7842 -3.1781
 5037TIP3    H236527   0.877   0.363  16.151 -0.0160 -0.0606 -0.8334
 5038TIP3   OH236528   1.779   2.932  15.519  0.2595 -0.0649  0.4247
 5038TIP3    H136529   1.729   3.006  15.555  2.1484  2.1774 -1.3703
 5038TIP3    H236530   1.725   2.899  15.448  0.9324  1.9485 -1.0956
 5039TIP3   OH236531   2.870   0.392   3.311  0.0476 -0.7358  0.0441
 5039TIP3    H136532   2.840   0.302   3.315 -2.4515  0.0841  0.5690
 5039TIP3    H236533   2.831   0.427   3.230  0.2456  0.1244  0.3086
 5040TIP3   OH236534   2.671   0.713  16.435 -0.5175 -0.5620 -0.3456
 5040TIP3    H136535   2.718   0.796  16.442 -1.4417 -0.1338  1.0164
 5040TIP3    H236536   2.677   0.689  16.343 -0.2728  1.0227 -0.7462
 5041TIP3   OH236537   3.659   3.486   6.138 -0.0211  0.1800  0.4982
 5041TIP3    H136538   3.727   3.493   6.204 -0.0786 -0.4458  0.6297
 5041TIP3    H236539   3.647   3.392   6.125  0.3146  0.2887 -0.7362
 5042TIP3   OH236540   0.127   5.309   5.656 -0.3712 -0.1914  0.3787
 5042TIP3    H136541   0.122   5.397   5.620 -0.6790  0.8649  2.9153
 5042TIP3    H236542   0.219   5.297   5.677 -0.6063  0.2162  1.6698
 5043TIP3   OH236543   1.774   0.974   5.383  0.0366  0.0044 -0.4231
 5043TIP3    H136544   1.859   0.931   5.377  0.0503 -0.2672  1.5759
 5043TIP3    H236545   1.713   0.914   5.341  0.4169 -0.9587  0.4021
 5044TIP3   OH236546   5.465   5.110   5.996  0.8785  0.2534 -0.5070
 5044TIP3    H136547   5.459   5.177   6.064  0.4780  0.2743 -0.5586
 5044TIP3    H236548   5.409   5.039   6.027  2.3642 -0.6334  0.1918
 5045TIP3   OH236549   1.788   2.479   0.181 -0.1049 -0.3127 -0.1561
 5045TIP3    H136550   1.714   2.537   0.192 -0.4560 -0.4421 -1.7310
 5045TIP3    H236551   1.780   2.446   0.091  0.9830 -1.5256  0.1714
 5046TIP3   OH236552   3.931   1.209  13.050  0.2039 -0.4237  0.2074
 5046TIP3    H136553   3.877   1.154  12.993  0.7862 -0.9591  0.1682
 5046TIP3    H236554   3.969   1.148  13.113  1.9870 -0.2841 -0.7138
 5047TIP3   OH236555   4.077   4.317   5.337 -0.3647 -0.6039 -0.1232
 5047TIP3    H136556   4.134   4.374   5.286 -1.3292  0.0489 -0.5026
 5047TIP3    H236557   4.025   4.271   5.271  0.1089 -1.6027  0.1997
 5048TIP3   OH236558   2.590   4.673   4.919  0.7858  0.2809  0.2546
 5048TIP3    H136559   2.594   4.578   4.904 -0.5916  0.3619 -0.8597
 5048TIP3    H236560   2.512   4.700   4.869  2.2815  2.2880 -1.0276
 5049TIP3   OH236561   0.539   5.219  14.790  0.7345  0.3103 -0.5648
 5049TIP3    H136562   0.617   5.166  14.776 -1.3648 -2.6272 -1.5950
 5049TIP3    H236563   0.499   5.184  14.869 -1.5561 -0.8363 -2.1719
 5050TIP3   OH236564   0.518   5.866   2.925 -0.4787  0.2184  0.2055
 5050TIP3    H136565   0.459   5.792   2.912  0.2212 -0.5148  1.1546
 5050TIP3    H236566   0.604   5.833   2.900 -0.1842  0.7545  0.5033
 5051TIP3   OH236567   1.312   1.517   6.224  0.4779 -0.3208  1.0816
 5051TIP3    H136568   1.244   1.583   6.210 -0.9098 -1.4533  2.4110
 5051TIP3    H236569   1.265   1.438   6.249  2.1971 -1.5318  0.6236
 5052TIP3   OH236570   2.137   4.512  12.081  0.4854  0.3132 -0.2966
 5052TIP3    H136571   2.151   4.514  12.175 -0.8936 -0.5660 -0.0537
 5052TIP3    H236572   2.144   4.603  12.053  0.5854  0.6124  0.6956
 5053TIP3   OH236573   4.064   3.609  17.175 -0.0321  0.2191  0.3571
 5053TIP3    H136574   4.095   3.654  17.254  2.0034  0.2294 -0.4225
 5053TIP3    H236575   4.079   3.671  17.104  0.9379 -0.9223 -0.4513
 5054TIP3   OH236576   0.991   6.622   4.194  0.1033 -0.0684  0.1578
 5054TIP3    H136577   1.032   6.606   4.109 -0.8047  0.5067 -0.4052
 5054TIP3    H236578   1.011   6.545   4.247  0.9894 -0.2606 -0.4600
 5055TIP3   OH236579   6.342   5.050   4.242  0.7652  0.2670 -0.8093
 5055TIP3    H136580   6.269   5.000   4.206  0.3499  0.8783 -0.8291
 5055TIP3    H236581   6.402   5.063   4.168 -0.5667  2.4051 -1.5852
 5056TIP3   OH236582   3.880   5.778  13.372  0.2097 -0.0104 -0.2767
 5056TIP3    H136583   3.916   5.849  13.425  1.0064 -0.9165  0.4217
 5056TIP3    H236584   3.817   5.820  13.314 -0.8395  0.9840  1.5471
 5057TIP3   OH236585   2.961   5.779   5.258 -0.1543  0.0137  0.1958
 5057TIP3    H136586   2.926   5.807   5.343 -0.8790  0.3177 -0.2012
 5057TIP3    H236587   2.949   5.684   5.258 -1.3543  0.1656 -0.1074
 5058TIP3   OH236588   4.371   2.843   6.729  0.7539  0.2983  0.5468
 5058TIP3    H136589   4.358   2.810   6.641  3.2207  0.1786  0.1745
 5058TIP3    H236590   4.378   2.765   6.784 -0.5130  0.3668  0.8152
 5059TIP3   OH236591   3.853   5.440   1.107 -0.0702 -0.1186  0.0694
 5059TIP3    H136592   3.821   5.525   1.077 -0.4903 -0.4737 -0.5171
 5059TIP3    H236593   3.824   5.434   1.199 -2.1419 -0.6182 -0.5710
 5060TIP3   OH236594   1.304   1.727  16.425  0.7427  0.5837  0.2855
 5060TIP3    H136595   1.336   1.673  16.353 -0.4416  0.2880 -0.0405
 5060TIP3    H236596   1.314   1.672  16.503 -0.0925  0.0292  0.0119
 5061TIP3   OH236597   2.499   5.054  14.010  0.1365 -0.3605 -0.0938
 5061TIP3    H136598   2.406   5.073  14.008  0.4299  1.1182 -0.5701
 5061TIP3    H236599   2.536   5.120  14.068  1.3302  1.2027 -2.5759
 5062TIP3   OH236600   1.438   1.562   3.487  0.8212 -0.1002 -0.5673
 5062TIP3    H136601   1.381   1.493   3.454  0.5669  1.2270 -2.9889
 5062TIP3    H236602   1.515   1.515   3.521 -0.2150 -1.6723 -0.3234
 5063TIP3   OH236603   1.104   3.156   2.012 -0.0315 -0.0276  0.2538
 5063TIP3    H136604   1.073   3.225   2.070  0.5280 -0.6344  1.2899
 5063TIP3    H236605   1.129   3.085   2.071  0.5062 -0.6657 -0.7363
 5064TIP3   OH236606   3.284   2.140   5.722  0.1900 -0.1356 -0.2428
 5064TIP3    H136607   3.282   2.187   5.805 -1.2286  2.0129 -1.4509
 5064TIP3    H236608   3.203   2.088   5.723 -0.3150  0.6280 -0.6705
 5065TIP3   OH236609   4.926   5.415  12.960  0.3041  0.0254  0.0373
 5065TIP3    H136610   4.910   5.413  12.866 -1.3353 -2.9193  0.3186
 5065TIP3    H236611   4.857   5.471  12.996  1.5353  1.9715 -0.5897
 5066TIP3   OH236612   2.490   4.598   1.012  0.3615 -0.0612 -0.3643
 5066TIP3    H136613   2.473   4.668   1.074 -0.4924 -0.2047 -0.4343
 5066TIP3    H236614   2.524   4.526   1.066 -2.6744 -1.0583  0.3267
 5067TIP3   OH236615   5.597   0.141   3.080  0.0806 -0.1375 -0.0054
 5067TIP3    H136616   5.627   0.201   3.148 -1.0814 -1.5780  1.8227
 5067TIP3    H236617   5.565   0.198   3.010 -1.4702  1.4023  1.9144
 5068TIP3   OH236618   0.215   0.870  10.648 -0.4303  0.0600 -0.7010
 5068TIP3    H136619   0.201   0.798  10.709  2.0893  1.3278  1.4639
 5068TIP3    H236620   0.138   0.926  10.660 -0.6966 -0.4673  0.1709
 5069TIP3   OH236621   4.229   4.045  16.314 -0.0310 -0.7541  0.2184
 5069TIP3    H136622   4.272   3.992  16.247  0.3872  1.0470 -0.9770
 5069TIP3    H236623   4.136   4.044  16.289  0.3855  1.5102 -1.5550
 5070TIP3   OH236624   0.052   5.627   4.341 -0.0267  0.4601  0.6405
 5070TIP3    H136625  -0.007   5.553   4.354  1.0216 -0.7536 -1.3299
 5070TIP3    H236626   0.006   5.685   4.280  0.7023 -0.3720 -0.7118
 5071TIP3   OH236627   3.976   4.046   0.145  0.4572  0.6848 -0.2937
 5071TIP3    H136628   3.951   3.992   0.070 -0.3890  1.0580 -0.2860
 5071TIP3    H236629   4.070   4.062   0.133  0.7189 -0.7664 -0.3032
 5072TIP3   OH236630   6.024   6.160   0.825 -0.3622 -0.2913 -0.2281
 5072TIP3    H136631   5.969   6.108   0.883 -2.5063  1.0720 -0.9561
 5072TIP3    H236632   6.057   6.231   0.880 -1.1598  0.1361 -0.2854
 5073TIP3   OH236633   2.902   5.488  14.910  0.0890 -0.6758  0.2474
 5073TIP3    H136634   2.921   5.582  14.912 -1.5715 -0.3250  2.5889
 5073TIP3    H236635   2.973   5.449  14.961  0.5285 -0.6283 -0.3315
 5074TIP3   OH236636   3.593   3.913  14.660 -0.3408  0.2828 -0.3566
 5074TIP3    H136637   3.661   3.847  14.671 -0.7119 -0.2529 -1.2483
 5074TIP3    H236638   3.539   3.880  14.589 -1.4535  0.7855  0.2518
 5075TIP3   OH236639   3.267   5.849  15.075 -0.2514  0.3823  0.9235
 5075TIP3    H136640   3.309   5.922  15.031 -2.0771  2.4723  2.4842
 5075TIP3    H236641   3.325   5.828  15.148 -0.7839  1.8384  1.8084
 5076TIP3   OH236642   3.449   2.873   0.070  0.0509  0.2645  0.2313
 5076TIP3    H136643   3.369   2.885   0.120  0.0692  0.0273  0.3164
 5076TIP3    H236644   3.468   2.960   0.034  0.4844  0.6279  1.3130
 5077TIP3   OH236645   6.638   1.683  14.829  0.4036 -0.5872 -0.4986
 5077TIP3    H136646   6.621   1.595  14.796 -0.2696 -0.5776 -0.1800
 5077TIP3    H236647   6.701   1.670  14.900 -0.1244 -0.8630 -0.0844
 5078TIP3   OH236648   3.674   2.581   3.576 -0.2145 -0.2774  0.6114
 5078TIP3    H136649   3.766   2.556   3.562 -0.0833  0.2599  0.4619
 5078TIP3    H236650   3.627   2.498   3.582  0.0023 -0.5640 -1.2314
 5079TIP3   OH236651   4.830   5.928  11.334 -0.7149  0.1772  0.1264
 5079TIP3    H136652   4.860   5.871  11.405 -0.8510 -0.2786 -0.1810
 5079TIP3    H236653   4.890   5.911  11.262 -1.2221 -0.1525 -0.2236
 5080TIP3   OH236654   6.185   1.767  15.099  0.1564 -0.0889 -0.2754
 5080TIP3    H136655   6.098   1.731  15.116 -0.5248  0.4751 -2.3707
 5080TIP3    H236656   6.245   1.699  15.128 -0.9797 -0.3839  1.4092
 5081TIP3   OH236657   2.002   2.108   2.646 -0.0189 -0.4321  0.1316
 5081TIP3    H136658   1.915   2.068   2.644 -0.6061  0.9136 -1.3534
 5081TIP3    H236659   2.054   2.056   2.584  0.2575 -1.2226  1.0034
 5082TIP3   OH236660   2.122   3.532  11.890 -0.1538  0.0745 -0.0258
 5082TIP3    H136661   2.162   3.616  11.867 -1.3589  0.6217 -0.1906
 5082TIP3    H236662   2.058   3.517  11.820  0.5210 -1.3105 -0.3584
 5083TIP3   OH236663   2.196   2.684  12.431  0.2715  0.4072  0.4697
 5083TIP3    H136664   2.265   2.741  12.466  1.2081 -0.9322  0.8486
 5083TIP3    H236665   2.222   2.669  12.340  0.5594 -0.2017  0.6490
 5084TIP3   OH236666   1.703   0.642  16.014 -0.2648  0.2543  0.5512
 5084TIP3    H136667   1.619   0.683  16.034  0.4912  0.6220  3.1774
 5084TIP3    H236668   1.754   0.711  15.973 -0.5531  0.5903  0.7592
 5085TIP3   OH236669   1.259   3.600  15.313  0.1767  0.3307 -0.5780
 5085TIP3    H136670   1.194   3.555  15.366  2.6066 -0.1015  2.1462
 5085TIP3    H236671   1.212   3.674  15.274 -1.4618  1.3233  3.0621
 5086TIP3   OH236672   0.898   6.428  15.052 -0.0869  0.1110  0.3568
 5086TIP3    H136673   0.844   6.354  15.082  0.9833 -1.1162 -0.6930
 5086TIP3    H236674   0.946   6.456  15.130 -0.5576 -0.2572  0.7814
 5087TIP3   OH236675   4.192   2.344   4.264  0.0232 -0.7004  0.1688
 5087TIP3    H136676   4.176   2.254   4.294  0.1966 -0.6158  0.5269
 5087TIP3    H236677   4.287   2.349   4.254 -0.0416 -0.7436 -0.4592
 5088TIP3   OH236678   2.462   5.712  15.289  1.0018  0.6018 -0.0610
 5088TIP3    H136679   2.439   5.805  15.303 -0.6360  0.1191  0.6426
 5088TIP3    H236680   2.555   5.707  15.309  1.3467  2.3047 -1.1377
 5089TIP3   OH236681   3.722   0.938   0.067 -0.1272  0.4024  0.6524
 5089TIP3    H136682   3.755   0.853   0.040 -0.7933  0.9443 -2.0381
 5089TIP3    H236683   3.654   0.919   0.132 -1.5873 -1.2560 -1.2975
 5090TIP3   OH236684   0.455   6.382  14.743  0.0133 -0.2927  0.6304
 5090TIP3    H136685   0.447   6.374  14.838  1.9067 -1.4671  0.7249
 5090TIP3    H236686   0.407   6.307  14.708  1.3306 -1.2329  0.7806
 5091TIP3   OH236687   1.314   6.530  15.508 -0.3025  0.1381 -0.1324
 5091TIP3    H136688   1.368   6.609  15.518 -0.0438 -0.1733  1.0414
 5091TIP3    H236689   1.339   6.495  15.423  0.3931  0.7208 -0.1757
 5092TIP3   OH236690   0.632   4.433  12.103  0.2370  0.3189  1.0386
 5092TIP3    H136691   0.649   4.451  12.011  1.8273 -0.1051  1.2376
 5092TIP3    H236692   0.537   4.443  12.112  0.2024  1.4487 -0.3923
 5093TIP3   OH236693   5.851   4.041  14.671 -0.2515 -0.2383 -0.2766
 5093TIP3    H136694   5.845   4.021  14.764 -0.7666 -0.9461 -0.4639
 5093TIP3    H236695   5.785   4.110  14.657  0.9193  0.9962  0.1862
 5094TIP3   OH236696   6.528   1.699  11.592  0.4712  0.4191 -0.0475
 5094TIP3    H136697   6.547   1.712  11.685  1.4090  0.2060 -0.2121
 5094TIP3    H236698   6.613   1.688  11.551 -0.1302 -4.0877 -0.2838
 5095TIP3   OH236699   5.906   4.200   6.601 -0.3490 -0.3473  0.7736
 5095TIP3    H136700   5.889   4.106   6.591  0.7240 -0.3321 -1.5725
 5095TIP3    H236701   5.989   4.205   6.648 -0.7812 -0.5603  1.5620
 5096TIP3   OH236702   3.240   6.196   3.459  0.3352 -0.1209  0.6147
 5096TIP3    H136703   3.206   6.279   3.424  0.3124 -0.5409 -0.3795
 5096TIP3    H236704   3.226   6.203   3.554 -0.1787  0.7809  0.4862
 5097TIP3   OH236705   2.689   5.903  16.199 -0.3853 -0.2033  0.2502
 5097TIP3    H136706   2.693   5.934  16.109  1.2027 -2.1029 -0.3665
 5097TIP3    H236707   2.607   5.938  16.233  0.0119  2.3214 -1.2486
 5098TIP3   OH236708   3.826   4.506   1.066  0.0185 -0.6207  0.2070
 5098TIP3    H136709   3.808   4.422   1.023 -0.1742 -1.2074  1.3945
 5098TIP3    H236710   3.906   4.489   1.117 -1.1858 -0.7357  2.1273
 5099TIP3   OH236711   2.636   1.841   3.447  0.0986  0.7925 -0.0594
 5099TIP3    H136712   2.553   1.889   3.443 -0.0140  0.5194 -1.1411
 5099TIP3    H236713   2.675   1.868   3.530 -2.0964 -0.7582  1.5415
 5100TIP3   OH236714   3.134   3.101   3.273  0.2572  0.0347 -0.7592
 5100TIP3    H136715   3.192   3.178   3.265  0.0510  0.2025 -0.6408
 5100TIP3    H236716   3.132   3.063   3.185  0.0283  0.4058 -0.9161
 5101TIP3   OH236717   0.716   0.417  15.891 -0.2738  0.7338  0.0553
 5101TIP3    H136718   0.775   0.436  15.965 -0.1407  1.5959 -0.2648
 5101TIP3    H236719   0.652   0.488  15.893  0.8390  1.8161 -1.7983
 5102TIP3   OH236720   0.029   3.513  16.827 -0.0664  0.4102 -0.0923
 5102TIP3    H136721   0.084   3.544  16.755  0.0247 -2.6141 -1.3845
 5102TIP3    H236722   0.084   3.522  16.905  1.0019  0.6772 -0.8670
 5103TIP3   OH236723   2.248   5.509  16.898 -0.6536 -0.0116  0.3062
 5103TIP3    H136724   2.289   5.445  16.956  2.6224  1.3429 -0.3840
 5103TIP3    H236725   2.210   5.458  16.827 -0.0768 -1.3217  0.9324
 5104TIP3   OH236726   2.556   4.221  14.968 -1.0970  0.0801 -0.3699
 5104TIP3    H136727   2.592   4.133  14.983  0.1375  0.6852  0.2522
 5104TIP3    H236728   2.628   4.270  14.927 -0.9622  1.4907  1.4872
 5105TIP3   OH236729   2.472   5.203  12.586  0.4124  0.0723  0.7383
 5105TIP3    H136730   2.500   5.294  12.597  0.2700  0.3007 -0.6758
 5105TIP3    H236731   2.554   5.155  12.571  0.4014  0.1373  0.4592
 5106TIP3   OH236732   1.735   5.051   4.600 -0.0705 -0.1647 -0.3020
 5106TIP3    H136733   1.681   5.126   4.576  0.2413  0.2487  0.2864
 5106TIP3    H236734   1.817   5.089   4.631  0.1632 -0.7552 -0.1853
 5107TIP3   OH236735   4.806   1.172  15.408  0.4827 -0.2186 -0.4325
 5107TIP3    H136736   4.874   1.220  15.361  2.0424 -0.5988  1.3605
 5107TIP3    H236737   4.737   1.237  15.423  0.7415  0.3561 -1.6330
 5108TIP3   OH236738   4.412   5.544   4.341  0.4001 -0.0335  0.1237
 5108TIP3    H136739   4.389   5.476   4.278  2.0619  1.7901 -2.5583
 5108TIP3    H236740   4.455   5.497   4.412 -2.6149 -2.2736  0.5608
 5109TIP3   OH236741   3.756   2.392   1.529 -0.1534  0.4416  0.0766
 5109TIP3    H136742   3.792   2.303   1.520 -4.0293 -1.0455 -1.7618
 5109TIP3    H236743   3.720   2.395   1.617 -0.7513 -0.0958 -0.1499
 5110TIP3   OH236744   0.092   4.501  12.513 -0.3286 -1.0528 -0.3436
 5110TIP3    H136745   0.185   4.522  12.524 -0.7132  0.3669  0.3300
 5110TIP3    H236746   0.077   4.509  12.419  0.0609 -0.4872 -0.3649
 5111TIP3   OH236747   0.121   2.907   6.629 -0.2051 -0.1214  0.2756
 5111TIP3    H136748   0.174   2.829   6.614 -0.1519 -0.0299 -0.0231
 5111TIP3    H236749   0.154   2.943   6.712 -2.0660 -1.9042  1.8496
 5112TIP3   OH236750   1.273   5.636  12.073  0.0401 -0.0196  0.3239
 5112TIP3    H136751   1.199   5.612  12.018 -0.4247  1.5178  0.2518
 5112TIP3    H236752   1.242   5.622  12.163 -0.1558  0.0982  0.2753
 5113TIP3   OH236753   4.217   6.515  17.098 -0.1374 -0.6361  0.3256
 5113TIP3    H136754   4.302   6.560  17.104 -0.3734 -0.3294  1.6411
 5113TIP3    H236755   4.235   6.428  17.133  0.5040 -1.8942 -2.9525
 5114TIP3   OH236756   4.814   2.958   4.408 -0.3298  0.2972 -0.2703
 5114TIP3    H136757   4.880   2.892   4.387  1.0028  0.6013  2.6581
 5114TIP3    H236758   4.737   2.932   4.357  1.1204 -1.7574 -1.4981
 5115TIP3   OH236759   1.928   5.732   3.973 -0.3879 -0.3163  0.7023
 5115TIP3    H136760   2.000   5.713   3.912  0.0912  1.2040  0.7657
 5115TIP3    H236761   1.968   5.724   4.059  0.1497  1.9965  0.7239
 5116TIP3   OH236762   6.618   5.477   1.057 -0.3274  0.1431  0.6200
 5116TIP3    H136763   6.540   5.482   1.001  0.4806 -0.5449 -0.6182
 5116TIP3    H236764   6.688   5.511   1.002  0.5660 -0.9623  1.0654
 5117TIP3   OH236765   1.365   2.154  13.963 -0.2247 -0.5769 -0.1387
 5117TIP3    H136766   1.390   2.067  13.932  0.5817 -0.2320 -0.4568
 5117TIP3    H236767   1.303   2.137  14.035 -0.2262 -1.4062 -0.3349
 5118TIP3   OH236768   2.363   4.100   5.277  0.1116  0.1360  0.0015
 5118TIP3    H136769   2.350   4.116   5.370 -1.8272 -2.0266  0.1642
 5118TIP3    H236770   2.317   4.171   5.233  1.4484  1.4370  0.6813
 5119TIP3   OH236771   2.819   6.505   0.529 -0.1252 -0.2327  0.4859
 5119TIP3    H136772   2.850   6.443   0.462 -2.2905 -0.2210 -0.5582
 5119TIP3    H236773   2.812   6.589   0.482  1.8756  0.6245  1.6603
 5120TIP3   OH236774   5.703   5.231  16.354 -0.3916  0.0597 -0.0271
 5120TIP3    H136775   5.798   5.223  16.339 -0.5283  0.2671 -1.0227
 5120TIP3    H236776   5.667   5.151  16.316 -0.6320  0.0595  0.2057
 5121TIP3   OH236777   5.912   0.095   5.620  0.4142  0.3491 -0.2738
 5121TIP3    H136778   5.971   0.166   5.597  0.1140  0.1140 -1.8973
 5121TIP3    H236779   5.945   0.060   5.702  1.1935  1.6688 -0.0309
 5122TIP3   OH236780   0.436   3.430   6.196 -0.2531 -0.0305  0.1916
 5122TIP3    H136781   0.349   3.471   6.196 -0.4404 -0.4294  0.6815
 5122TIP3    H236782   0.427   3.354   6.139 -0.7940 -1.2752  1.9187
 5123TIP3   OH236783   0.141   1.655  13.660  0.7590  0.5402  0.1368
 5123TIP3    H136784   0.230   1.624  13.680  1.0717  1.6015  0.4027
 5123TIP3    H236785   0.129   1.637  13.567  0.9062 -0.4554  0.3013
 5124TIP3   OH236786   5.005   6.652  16.348  0.1491  0.0369 -0.1534
 5124TIP3    H136787   4.977   6.561  16.355 -0.7931  0.1830 -1.8039
 5124TIP3    H236788   5.094   6.652  16.382  0.4121 -1.6351 -0.7849
 5125TIP3   OH236789   3.880   2.939  15.081  0.3905  0.3474 -0.1702
 5125TIP3    H136790   3.856   3.021  15.038 -1.5035 -0.0860  0.0135
 5125TIP3    H236791   3.802   2.915  15.132  1.3052 -1.0139  0.6123
 5126TIP3   OH236792   2.463   1.021   1.376  0.0353  0.4461  0.2366
 5126TIP3    H136793   2.444   0.927   1.366 -1.9843  0.5922  2.1574
 5126TIP3    H236794   2.505   1.046   1.294 -0.8447 -1.8087 -0.9563
 5127TIP3   OH236795   1.458   6.020   4.588 -0.6997 -0.3148 -0.1327
 5127TIP3    H136796   1.418   6.037   4.503  0.5527 -1.5360 -0.9881
 5127TIP3    H236797   1.515   6.095   4.603 -1.7843  0.4537  0.1617
 5128TIP3   OH236798   4.751   2.081   5.106  0.2165  0.3834  0.5953
 5128TIP3    H136799   4.673   2.132   5.083  0.8606  1.4305  0.7507
 5128TIP3    H236800   4.822   2.121   5.057  0.6676 -0.5851  0.4463
 5129TIP3   OH236801   1.080   2.754  15.935  0.4545  0.1844  0.3732
 5129TIP3    H136802   1.169   2.777  15.909  0.6358  0.9765  1.6750
 5129TIP3    H236803   1.088   2.664  15.969  0.4116 -0.4352 -1.1925
 5130TIP3   OH236804   0.042   0.891   4.521  0.3605 -0.4139 -0.1747
 5130TIP3    H136805   0.104   0.932   4.582  1.2757  1.5577 -2.3953
 5130TIP3    H236806   0.091   0.818   4.484  0.4798 -0.4042 -0.0389
 5131TIP3   OH236807   3.038   0.908  13.035  0.3020 -0.4418  0.0016
 5131TIP3    H136808   3.065   0.925  12.944  1.1395 -2.6464 -0.1853
 5131TIP3    H236809   2.994   0.989  13.062  1.0507  0.6737 -1.9850
 5132TIP3   OH236810   0.160   0.553   1.171 -0.3932 -0.3942  0.3723
 5132TIP3    H136811   0.144   0.543   1.265 -0.1244 -0.8023  0.3741
 5132TIP3    H236812   0.254   0.572   1.165 -0.5641  0.4652  0.2453
 5133TIP3   OH236813   1.761   2.930  12.843  0.0156 -0.0940  0.0027
 5133TIP3    H136814   1.848   2.895  12.864  0.6827  1.4660 -0.0317
 5133TIP3    H236815   1.700   2.870  12.885  1.1401 -0.8817  0.5414
 5134TIP3   OH236816   4.893   5.119   2.045  0.0226 -0.8102  0.0183
 5134TIP3    H136817   4.952   5.049   2.017  0.4990  0.5774 -2.6257
 5134TIP3    H236818   4.863   5.159   1.964 -1.4100  1.1152  1.4381
 5135TIP3   OH236819   4.753   0.800  14.298 -0.0582  0.5769  0.1907
 5135TIP3    H136820   4.734   0.747  14.375  1.1096  1.1149  0.8683
 5135TIP3    H236821   4.724   0.888  14.322 -1.9019  0.2814 -0.8890
 5136TIP3   OH236822   6.025   1.219   6.193 -0.0066  0.2644 -0.1896
 5136TIP3    H136823   6.090   1.195   6.259 -1.5159  0.0391  1.2530
 5136TIP3    H236824   5.960   1.149   6.198 -3.1015  3.1447  2.2067
 5137TIP3   OH236825   2.024   5.148  15.627  0.6957  0.6173  0.7048
 5137TIP3    H136826   2.082   5.099  15.568 -0.0445 -1.1675  1.4115
 5137TIP3    H236827   1.936   5.130  15.593  0.3480  0.5452  1.6469
 5138TIP3   OH236828   5.002   2.003   0.030  0.0799 -0.3508  0.1782
 5138TIP3    H136829   5.002   1.929   0.091 -0.1500 -0.6160 -0.1440
 5138TIP3    H236830   4.926   1.989  -0.025  0.0331  0.1340  0.1168
 5139TIP3   OH236831   4.610   3.147  13.309  0.2862  0.9013  0.2077
 5139TIP3    H136832   4.633   3.088  13.381  1.5735 -2.4472 -2.7603
 5139TIP3    H236833   4.694   3.179  13.277 -0.1163  0.5891 -1.1952
 5140TIP3   OH236834   2.174   1.080   2.792  0.1597 -0.1904 -0.3853
 5140TIP3    H136835   2.120   1.106   2.718  0.0905  0.2846 -0.1733
 5140TIP3    H236836   2.110   1.056   2.860  0.2139  0.1453 -0.2137
 5141TIP3   OH236837   6.498   3.329   3.343  0.3461 -0.8439  0.2375
 5141TIP3    H136838   6.483   3.244   3.303  1.4693 -2.3308  2.8203
 5141TIP3    H236839   6.568   3.313   3.406  0.6976  2.0458  0.6312
 5142TIP3   OH236840   6.748   5.895  12.419 -0.0525 -0.0467 -0.4322
 5142TIP3    H136841   6.675   5.884  12.480  1.1222 -1.0244  0.8316
 5142TIP3    H236842   6.800   5.816  12.428  1.6778  1.0296 -0.6101
 5143TIP3   OH236843   2.288   5.897  11.828  0.2458 -0.0951 -0.3936
 5143TIP3    H136844   2.339   5.977  11.818  1.4815 -0.9592 -1.2322
 5143TIP3    H236845   2.308   5.866  11.916  2.4361 -1.2367 -1.2330
 5144TIP3   OH236846   4.927   3.190   4.986  0.1386 -0.3042  0.2474
 5144TIP3    H136847   4.943   3.101   4.955  1.0839 -0.2380  0.5127
 5144TIP3    H236848   4.853   3.182   5.046  0.6303 -1.0229  0.7704
 5145TIP3   OH236849   4.651   5.848   0.006 -0.1176  0.1183  0.6762
 5145TIP3    H136850   4.646   5.842   0.101 -0.5085 -3.2967  0.4902
 5145TIP3    H236851   4.744   5.832  -0.014 -0.2416 -0.2734  0.4144
 5146TIP3   OH236852   0.389   0.199   0.047 -0.3837  0.3300  0.2845
 5146TIP3    H136853   0.356   0.109   0.053 -0.4645  0.2819 -0.7119
 5146TIP3    H236854   0.377   0.235   0.134 -0.1435 -0.6999  0.7575
 5147TIP3   OH236855   6.361   5.075  16.646 -0.1375  0.3841 -0.0128
 5147TIP3    H136856   6.448   5.085  16.684  0.8335 -1.3450 -1.6791
 5147TIP3    H236857   6.305   5.053  16.720  0.7635  1.9459  1.1387
 5148TIP3   OH236858   1.017   1.764  16.123 -0.1726 -0.7284 -0.2834
 5148TIP3    H136859   0.922   1.751  16.124 -0.0310 -1.8178 -0.2998
 5148TIP3    H236860   1.034   1.820  16.199 -1.1623  1.9706 -1.9850
 5149TIP3   OH236861   6.601   5.352  17.050 -0.1676 -0.3561 -0.1199
 5149TIP3    H136862   6.626   5.290  17.119 -0.2669 -0.7551 -0.4387
 5149TIP3    H236863   6.679   5.405  17.036 -1.1671  1.9899  2.6773
 5150TIP3   OH236864   2.920   3.915   2.732 -1.1049 -0.3925  0.7778
 5150TIP3    H136865   2.948   3.936   2.643 -1.6428 -0.8951  0.4862
 5150TIP3    H236866   2.975   3.840   2.757 -0.1770  0.4436  1.2904
 5151TIP3   OH236867   5.219   4.190  11.773 -0.1067  0.1656 -0.0780
 5151TIP3    H136868   5.293   4.192  11.833 -0.8577  0.3358  0.8672
 5151TIP3    H236869   5.142   4.195  11.830 -0.8065  3.2127 -1.1954
 5152TIP3   OH236870   5.918   1.803  16.838 -0.0959 -0.4554 -0.0780
 5152TIP3    H136871   5.895   1.754  16.759 -0.2340  2.2437 -1.7938
 5152TIP3    H236872   5.834   1.830  16.875 -0.0534 -2.2990  1.4076
 5153TIP3   OH236873   6.279   2.039  11.113 -0.0656  0.2101  0.0799
 5153TIP3    H136874   6.202   2.030  11.057 -0.2693 -2.2857  0.7251
 5153TIP3    H236875   6.351   2.006  11.060  0.7706  3.2811 -0.8235
 5154TIP3   OH236876   5.715   2.742   4.738  0.3689  0.1915  0.4635
 5154TIP3    H136877   5.709   2.676   4.807 -1.1936 -0.4590 -0.2693
 5154TIP3    H236878   5.750   2.819   4.781  0.9798 -0.7188  1.6165
 5155TIP3   OH236879   3.277   2.589   3.822  0.0169  0.3343 -0.0890
 5155TIP3    H136880   3.194   2.545   3.841  0.1838 -1.2909 -2.8802
 5155TIP3    H236881   3.344   2.529   3.854  0.1666  1.7334  2.3422
 5156TIP3   OH236882   0.099   1.454   1.129 -0.1616  0.1971 -0.1175
 5156TIP3    H136883   0.187   1.488   1.143 -0.2256 -0.5036  2.1785
 5156TIP3    H236884   0.052   1.526   1.087  1.3561  0.7518 -0.9102
 5157TIP3   OH236885   5.011   0.486  16.962  0.0748 -0.7318  0.2013
 5157TIP3    H136886   4.965   0.440  17.032 -1.8012 -0.7988 -1.0308
 5157TIP3    H236887   4.955   0.475  16.885 -0.2227  3.2326 -0.2542
 5158TIP3   OH236888   3.555   0.005   1.910  0.4600  0.2903 -0.1570
 5158TIP3    H136889   3.556  -0.020   2.003 -0.1359 -0.8095 -0.4352
 5158TIP3    H236890   3.592   0.093   1.908 -0.0241  0.5289  1.1893
 5159TIP3   OH236891   2.877   5.409   3.840 -0.0060  0.2879 -0.1007
 5159TIP3    H136892   2.946   5.343   3.841 -0.2572  0.0351  1.2381
 5159TIP3    H236893   2.826   5.391   3.919 -0.4876  1.6555 -0.0944
 5160TIP3   OH236894   5.690   1.863  12.002 -0.0281  0.6312 -0.4384
 5160TIP3    H136895   5.658   1.952  11.999 -0.4210  0.5444  1.0883
 5160TIP3    H236896   5.612   1.808  11.997  0.0001  0.4055  1.3591
 5161TIP3   OH236897   6.622   2.704   1.734  0.1116  0.2072  0.4970
 5161TIP3    H136898   6.705   2.731   1.772 -0.8524  0.6446  2.3525
 5161TIP3    H236899   6.602   2.620   1.777 -0.7652  0.4661  0.6118
 5162TIP3   OH236900   6.216   5.444  15.882 -0.0572 -0.3574 -0.6470
 5162TIP3    H136901   6.190   5.374  15.942 -0.1260  1.6854  1.7876
 5162TIP3    H236902   6.263   5.506  15.937 -1.4782  2.3572 -2.3842
 5163TIP3   OH236903   4.170   1.941   2.060 -0.4088 -0.0702  0.5732
 5163TIP3    H136904   4.201   2.009   2.120  0.0761  1.3668 -1.2282
 5163TIP3    H236905   4.078   1.962   2.046 -0.4318 -0.1832  0.5577
 5164TIP3   OH236906   5.562   5.012  15.420  0.1640  0.2938  0.1240
 5164TIP3    H136907   5.510   5.079  15.465 -0.6343 -0.8500  0.9396
 5164TIP3    H236908   5.497   4.954  15.380  0.7479 -1.8999  2.2387
 5165TIP3   OH236909   1.828   2.548   4.303  0.1370  0.5637 -0.3386
 5165TIP3    H136910   1.813   2.486   4.374 -0.7688  0.7472 -0.3532
 5165TIP3    H236911   1.795   2.504   4.225  0.2989  0.7167 -0.4938
 5166TIP3   OH236912   3.822   0.638  15.119 -0.5245 -0.5369 -0.0395
 5166TIP3    H136913   3.914   0.660  15.110 -0.6413  0.3035  0.8134
 5166TIP3    H236914   3.775   0.717  15.094 -0.9694 -0.2594  1.6457
 5167TIP3   OH236915   3.283   3.126  10.789  0.5923  0.2371 -0.3539
 5167TIP3    H136916   3.377   3.107  10.790  0.3523 -1.5503 -3.6306
 5167TIP3    H236917   3.273   3.196  10.725 -0.3612  0.2666 -0.1839
 5168TIP3   OH236918   2.818   5.519  12.887 -0.3662 -0.1677 -0.0809
 5168TIP3    H136919   2.818   5.425  12.905  0.8313 -0.6609 -2.4477
 5168TIP3    H236920   2.908   5.547  12.905 -0.5263  0.3830 -0.1203
 5169TIP3   OH236921   4.333   3.608  16.314  0.1598 -0.1174  0.2210
 5169TIP3    H136922   4.243   3.629  16.338  0.3148  0.3615  0.3874
 5169TIP3    H236923   4.380   3.607  16.398  0.2668 -0.5920  0.1602
 5170TIP3   OH236924   1.143   5.188  13.727 -0.1354  0.2302 -0.9371
 5170TIP3    H136925   1.096   5.245  13.666 -1.1837 -0.0300 -0.3890
 5170TIP3    H236926   1.168   5.112  13.674 -1.2516 -0.1035 -0.9894
 5171TIP3   OH236927   3.024   2.368   0.267 -0.2815  0.3721 -0.3467
 5171TIP3    H136928   3.100   2.313   0.288  0.9131  2.2775  0.4381
 5171TIP3    H236929   3.010   2.421   0.346 -1.1553  1.5152 -1.2478
 5172TIP3   OH236930   4.147   5.464  15.265  0.2482 -0.0478  0.5676
 5172TIP3    H136931   4.152   5.492  15.174  1.5975  1.8259  1.1956
 5172TIP3    H236932   4.235   5.429  15.284  1.4232  3.5645  2.3615
 5173TIP3   OH236933   1.678   6.669  13.890  0.4111 -0.3571 -0.1589
 5173TIP3    H136934   1.751   6.717  13.852 -0.7907  0.1781 -1.8790
 5173TIP3    H236935   1.617   6.737  13.919 -0.5442 -0.8089 -1.0792
 5174TIP3   OH236936   2.118   2.729  15.121 -0.1837  0.0316  0.2429
 5174TIP3    H136937   2.199   2.757  15.079 -0.6100  0.0809 -0.5637
 5174TIP3    H236938   2.098   2.798  15.184  0.1931  0.2080  0.1689
 5175TIP3   OH236939   3.878   1.581  10.322  0.0669  0.5203  0.0468
 5175TIP3    H136940   3.807   1.534  10.365  0.2798  0.4088  0.2759
 5175TIP3    H236941   3.863   1.673  10.344  1.5416  0.2332  2.3616
 5176TIP3   OH236942   1.081   2.653  13.083  0.2387 -0.1765  0.2537
 5176TIP3    H136943   1.083   2.697  13.168 -0.4856  0.8988 -0.2658
 5176TIP3    H236944   1.125   2.569  13.097  0.4532  0.1583  1.5901
 5177TIP3   OH236945   4.060   3.070   0.110 -0.1751  0.3423  0.5489
 5177TIP3    H136946   4.105   3.139   0.060  2.4787 -0.3278  1.8888
 5177TIP3    H236947   4.028   3.009   0.044  0.3684  1.1830 -0.5065
 5178TIP3   OH236948   4.014   5.592   5.641 -0.2833  0.1458 -0.2146
 5178TIP3    H136949   4.035   5.614   5.732 -1.5057 -0.1363  0.1559
 5178TIP3    H236950   3.928   5.631   5.627 -0.1496  0.0775 -1.2127
 5179TIP3   OH236951   3.576   3.265   4.257  0.1310 -0.1085 -0.1067
 5179TIP3    H136952   3.619   3.320   4.322 -0.3456  0.6644 -0.4451
 5179TIP3    H236953   3.642   3.249   4.190  0.2594  0.0770 -0.0241
 5180TIP3   OH236954   3.142   4.891  11.798 -0.0796 -0.3374 -0.3340
 5180TIP3    H136955   3.151   4.979  11.834 -0.0237  0.5499 -2.4702
 5180TIP3    H236956   3.138   4.904  11.704  2.4497 -2.8285 -0.8511
 5181TIP3   OH236957   1.541   3.456   3.231  0.5322 -0.0734 -0.0573
 5181TIP3    H136958   1.559   3.432   3.140 -0.1929  0.8953 -0.4599
 5181TIP3    H236959   1.613   3.514   3.256  0.9426 -0.6556  0.1144
 5182TIP3   OH236960   5.843   5.917  15.483 -0.0322  0.2456  0.1526
 5182TIP3    H136961   5.888   5.966  15.552 -1.3269  0.1570  1.0898
 5182TIP3    H236962   5.912   5.893  15.421  1.2538 -0.1953  1.7323
 5183TIP3   OH236963   1.975   5.098  13.660 -0.2056 -0.5682  0.1938
 5183TIP3    H136964   2.004   5.116  13.571  0.6988 -0.3039  0.5332
 5183TIP3    H236965   2.039   5.036  13.694 -0.6450 -0.8036  0.5980
 5184TIP3   OH236966   4.481   4.230   0.602 -0.1501  0.5157 -0.3327
 5184TIP3    H136967   4.565   4.249   0.560 -1.1598  0.3944 -2.4618
 5184TIP3    H236968   4.458   4.142   0.572 -1.8628  1.2290 -1.1908
 5185TIP3   OH236969   5.056   2.924   6.683  0.2251 -0.8784  0.5053
 5185TIP3    H136970   5.137   2.958   6.645 -0.7058 -1.3611 -2.0651
 5185TIP3    H236971   4.987   2.957   6.625 -1.1375 -2.8194  0.9758
 5186TIP3   OH236972   4.695   5.231   3.894  0.3436  0.2297  0.2145
 5186TIP3    H136973   4.669   5.306   3.840 -0.6293 -0.1315  0.1749
 5186TIP3    H236974   4.791   5.233   3.893  0.3413  0.1115 -1.6959
 5187TIP3   OH236975   1.067   6.484   4.610  0.2186 -0.5665  0.5986
 5187TIP3    H136976   1.103   6.400   4.584 -0.3589 -0.4414 -0.6096
 5187TIP3    H236977   1.138   6.546   4.594 -0.4686 -0.3320 -1.7152
 5188TIP3   OH236978   2.030   6.758   4.551  0.3675  0.5155 -0.3840
 5188TIP3    H136979   2.009   6.823   4.618 -1.0733  0.9760 -1.2586
 5188TIP3    H236980   1.957   6.762   4.490  0.8907 -1.0324 -1.1362
 5189TIP3   OH236981   2.636   2.392  13.291  0.3710  0.3030 -0.1506
 5189TIP3    H136982   2.598   2.328  13.351  0.5442  1.6538  1.4180
 5189TIP3    H236983   2.646   2.344  13.208 -2.0481 -0.8912  0.2272
 5190TIP3   OH236984   5.700   3.344   6.272 -0.3527 -0.1058  0.1689
 5190TIP3    H136985   5.706   3.249   6.270  0.1198 -0.0736 -0.0922
 5190TIP3    H236986   5.696   3.367   6.365  0.3971 -0.3296  0.2574
 5191TIP3   OH236987   0.380   1.918   5.285 -0.1098  0.5704  0.2754
 5191TIP3    H136988   0.377   2.013   5.298 -1.0110  0.5700  0.0991
 5191TIP3    H236989   0.453   1.889   5.340 -0.5916  1.2230  1.2823
 5192TIP3   OH236990   4.397   5.322  13.809  0.5718 -0.2424  0.2611
 5192TIP3    H136991   4.376   5.412  13.786  0.7281 -0.2734 -0.0026
 5192TIP3    H236992   4.340   5.269  13.754  0.8946 -0.3148 -0.0049
 5193TIP3   OH236993   6.151   2.174  15.448  0.2866  0.4868 -0.4357
 5193TIP3    H136994   6.112   2.103  15.498  0.3990  0.7242 -0.0149
 5193TIP3    H236995   6.245   2.166  15.464  0.0597  2.7074  2.2184
 5194TIP3   OH236996   2.279   5.747   0.955 -0.4367 -0.5455  0.2329
 5194TIP3    H136997   2.266   5.837   0.986  1.0683 -0.0804 -0.4627
 5194TIP3    H236998   2.309   5.757   0.864  0.3841 -1.7386  0.3693
 5195TIP3   OH236999   4.404   2.897  10.595 -0.2682  0.4207 -0.2056
 5195TIP3    H137000   4.395   2.853  10.679 -0.7481 -0.3308 -0.6400
 5195TIP3    H237001   4.497   2.922  10.590 -0.0237 -0.4138  0.1137
 5196TIP3   OH237002   5.340   3.894  13.344  0.3474 -0.4596 -0.5186
 5196TIP3    H137003   5.297   3.910  13.260 -0.9954  0.3717  0.3044
 5196TIP3    H237004   5.329   3.801  13.360 -1.6611 -0.1738 -0.0737
 5197TIP3   OH237005   5.775   0.796   1.503 -0.5033 -0.1986 -0.2268
 5197TIP3    H137006   5.828   0.837   1.434 -0.9728  1.0993  0.1628
 5197TIP3    H237007   5.715   0.739   1.456 -2.2744  2.3034 -1.1069
 5198TIP3   OH237008   3.484   0.542   4.391 -0.5976 -0.0426  0.0097
 5198TIP3    H137009   3.561   0.584   4.429 -0.4698 -1.2889  1.1447
 5198TIP3    H237010   3.418   0.543   4.461 -0.6613 -1.5435 -0.0243
 5199TIP3   OH237011   4.677   2.184  11.777  0.5784  0.1677 -0.9833
 5199TIP3    H137012   4.658   2.148  11.691  0.4954 -0.0454 -0.8737
 5199TIP3    H237013   4.640   2.272  11.775  1.2083  0.4338 -1.4222
 5200TIP3   OH237014   3.696   0.402   4.162 -0.4081  0.3371  0.4293
 5200TIP3    H137015   3.716   0.495   4.164  0.6699  0.1356 -0.5428
 5200TIP3    H237016   3.606   0.397   4.131 -1.2878  1.1602  2.7951
 5201TIP3   OH237017   2.411   6.032  15.337 -0.3816  0.2121 -0.1557
 5201TIP3    H137018   2.451   6.117  15.317 -0.3205  0.2033 -0.0720
 5201TIP3    H237019   2.428   6.020  15.431 -2.3711  1.1410  0.3402
 5202TIP3   OH237020   2.837   5.313   0.117 -0.5660 -0.2562 -0.1684
 5202TIP3    H137021   2.776   5.309   0.190  0.6316 -0.4630  0.8286
 5202TIP3    H237022   2.868   5.403   0.116 -0.4079 -0.3099 -0.2765
 5203TIP3   OH237023   3.752   6.424   4.334 -0.4993  0.3098  0.2376
 5203TIP3    H137024   3.834   6.377   4.349 -1.9311 -2.2526  0.2569
 5203TIP3    H237025   3.759   6.456   4.244  0.0508 -0.8946 -0.1623
 5204TIP3   OH237026   3.183   0.776   3.445  0.1956  0.4326 -0.1100
 5204TIP3    H137027   3.159   0.684   3.433  3.8972 -0.5475 -0.6062
 5204TIP3    H237028   3.108   0.814   3.489 -1.4987 -2.7897 -0.0189
 5205TIP3   OH237029   4.679   2.624  16.135  0.1497  0.3246 -0.1272
 5205TIP3    H137030   4.614   2.565  16.175 -0.8101  1.3893 -0.0935
 5205TIP3    H237031   4.647   2.637  16.046  0.7401  0.2402 -0.3525
 5206TIP3   OH237032   0.701   6.222  12.820  0.1557 -0.8132 -0.0436
 5206TIP3    H137033   0.623   6.244  12.870  1.3811  0.3154  1.4396
 5206TIP3    H237034   0.721   6.132  12.846  0.2859 -0.5332  0.8328
 5207TIP3   OH237035   2.771   1.661   1.900 -0.2421 -0.1930  0.3620
 5207TIP3    H137036   2.812   1.580   1.932  0.8950 -0.5927 -1.9988
 5207TIP3    H237037   2.802   1.728   1.961  1.4385 -1.0124  0.4428
 5208TIP3   OH237038   1.326   5.409  16.531  0.0409  0.7480  0.6715
 5208TIP3    H137039   1.263   5.354  16.577 -0.8882  1.3735  0.1580
 5208TIP3    H237040   1.374   5.453  16.602  0.5196 -0.3889  1.0729
 5209TIP3   OH237041   6.038   3.351  11.593  0.0823  0.2867 -0.0695
 5209TIP3    H137042   6.109   3.311  11.541 -1.0449 -0.7926 -0.8107
 5209TIP3    H237043   6.040   3.443  11.570  2.4448  0.6244  1.3117
 5210TIP3   OH237044   1.999   5.163  16.520 -0.0885  0.1262 -0.1572
 5210TIP3    H137045   2.061   5.159  16.593 -1.2775  0.6437  0.9095
 5210TIP3    H237046   2.021   5.087  16.466  0.5352 -0.5114  0.9558
 5211TIP3   OH237047   5.442   1.422   2.805 -0.7481 -0.1355 -0.6145
 5211TIP3    H137048   5.369   1.483   2.813 -1.2773 -0.9250  0.7962
 5211TIP3    H237049   5.423   1.353   2.869  0.8160 -0.7791 -0.8134
 5212TIP3   OH237050   2.620   2.031  13.638  0.3375  0.4234  0.2276
 5212TIP3    H137051   2.705   2.075  13.634  1.5162 -1.4780  2.9895
 5212TIP3    H237052   2.619   1.989  13.724 -2.9166 -0.6074 -0.2565
 5213TIP3   OH237053   4.190   6.621  14.096  0.7889 -0.0770 -0.9323
 5213TIP3    H137054   4.278   6.594  14.123  1.4074  2.4416 -0.2821
 5213TIP3    H237055   4.134   6.597  14.170  1.3354  0.4080 -0.3472
 5214TIP3   OH237056   1.894   2.041   3.029  0.0192 -0.4287  0.4991
 5214TIP3    H137057   1.899   1.968   3.091 -0.7472  1.5980  3.0397
 5214TIP3    H237058   1.800   2.048   3.009  0.0636  0.0355  0.4635
 5215TIP3   OH237059   6.782   1.703   5.903 -0.1509 -0.0957 -0.1535
 5215TIP3    H137060   6.698   1.706   5.948  1.5016 -1.3695  3.1589
 5215TIP3    H237061   6.836   1.644   5.956  2.6326  0.1638 -2.5679
 5216TIP3   OH237062   6.340   6.774  13.920  0.0113  0.1565  0.2683
 5216TIP3    H137063   6.436   6.772  13.919  0.0289  0.9247  0.8369
 5216TIP3    H237064   6.316   6.798  14.009 -0.7481 -1.5036  0.5397
 5217TIP3   OH237065   5.983   3.373  16.885  0.1539 -0.1647  0.2355
 5217TIP3    H137066   5.986   3.469  16.891  0.5912 -0.0440 -1.8646
 5217TIP3    H237067   5.903   3.349  16.932  0.0152  1.2237  0.7258
 5218TIP3   OH237068   5.157   4.270   5.902  0.3174  0.2139 -0.8268
 5218TIP3    H137069   5.224   4.329   5.936 -0.8077  0.3760  1.1985
 5218TIP3    H237070   5.205   4.207   5.849  2.0267  0.5918  0.2420
 5219TIP3   OH237071   6.627   1.220  13.190  0.2215  0.3131  0.1527
 5219TIP3    H137072   6.561   1.256  13.131  1.7238  0.6663 -1.3449
 5219TIP3    H237073   6.680   1.163  13.134  0.3478 -1.0573  1.6378
 5220TIP3   OH237074   1.319   0.361  16.600  0.2750 -0.3577 -0.1373
 5220TIP3    H137075   1.331   0.446  16.558 -1.7073 -0.9174 -1.9006
 5220TIP3    H237076   1.310   0.382  16.693  1.0865  1.2476 -0.4035
 5221TIP3   OH237077   6.070   5.978  10.931  0.3499 -0.3123 -0.2103
 5221TIP3    H137078   6.164   5.965  10.926  0.3419 -0.4747  0.0799
 5221TIP3    H237079   6.036   5.939  10.850  0.4785 -0.6993 -0.0752
 5222TIP3   OH237080   2.896   4.966   1.149 -0.1633 -0.3577 -0.0487
 5222TIP3    H137081   2.854   4.886   1.180 -0.5057  0.4481  1.5978
 5222TIP3    H237082   2.851   4.986   1.067 -0.4672 -1.5264 -0.1838
 5223TIP3   OH237083   0.847   3.696  15.085 -0.2518 -0.0962  0.4399
 5223TIP3    H137084   0.864   3.646  15.005  0.7242 -0.2156  0.7154
 5223TIP3    H237085   0.752   3.703  15.089 -0.2889  1.7356 -1.8838
 5224TIP3   OH237086   1.318   5.603  13.582 -0.0925 -0.0963 -0.8208
 5224TIP3    H137087   1.350   5.552  13.508 -2.6671 -0.6159 -1.5989
 5224TIP3    H237088   1.229   5.629  13.558  0.4549  3.1855  0.3643
 5225TIP3   OH237089   1.894   2.594  14.435 -0.7087 -0.5416  0.1525
 5225TIP3    H137090   1.945   2.560  14.361 -0.1953 -0.8372  0.6389
 5225TIP3    H237091   1.937   2.675  14.460 -0.1724 -1.0422  0.8807
 5226TIP3   OH237092   5.806   5.619  12.374  0.4920 -0.3283  0.0907
 5226TIP3    H137093   5.851   5.543  12.336 -0.0523 -0.5986 -0.0214
 5226TIP3    H237094   5.876   5.681  12.393  0.9569 -0.9041  0.2835
 5227TIP3   OH237095   1.173   5.324  10.899  0.2063  0.0295 -0.4137
 5227TIP3    H137096   1.176   5.332  10.803 -0.1909  1.1179 -0.3411
 5227TIP3    H237097   1.214   5.404  10.931  2.9134 -1.5945  0.3422
 5228TIP3   OH237098   3.014   4.708   5.989 -0.8823  0.3192 -0.2625
 5228TIP3    H137099   3.055   4.706   5.903 -2.2348 -0.5549 -0.9015
 5228TIP3    H237100   2.966   4.625   5.995 -0.7729  0.3413  1.3492
 5229TIP3   OH237101   4.848   6.162   2.065 -0.1347  0.1436  0.0356
 5229TIP3    H137102   4.797   6.091   2.104  0.3099 -0.6518 -0.8254
 5229TIP3    H237103   4.930   6.164   2.116  0.5304 -1.0273 -0.9611
 5230TIP3   OH237104   3.690   0.210  12.944  0.0428  0.0272  0.0276
 5230TIP3    H137105   3.678   0.169  12.858  1.2456  3.2936 -1.8354
 5230TIP3    H237106   3.604   0.208  12.985 -1.1789  0.7847 -2.4201
 5231TIP3   OH237107   6.738   4.974   1.679 -0.8777  0.3651 -0.3115
 5231TIP3    H137108   6.735   5.008   1.768  0.5700  0.1754 -0.1726
 5231TIP3    H237109   6.741   4.879   1.690 -0.8928  0.3340 -0.5599
 5232TIP3   OH237110   3.891   0.144   0.991  0.1875  0.4841  0.4292
 5232TIP3    H137111   3.916   0.204   0.920 -0.7325  1.0736  0.5924
 5232TIP3    H237112   3.883   0.200   1.068  0.6009 -0.0604  0.8697
 5233TIP3   OH237113   1.228   0.029  15.786 -0.5984  0.3779 -0.6471
 5233TIP3    H137114   1.260   0.118  15.804  0.7901 -0.0426 -1.0072
 5233TIP3    H237115   1.271  -0.026  15.851 -3.0644  0.2378  0.9176
 5234TIP3   OH237116   1.693   1.124  12.648  0.0358 -0.5193 -0.0598
 5234TIP3    H137117   1.712   1.031  12.639  1.7898 -0.0345 -1.6844
 5234TIP3    H237118   1.764   1.157  12.703 -0.4763 -0.1095  0.3559
 5235TIP3   OH237119   1.077   5.401   4.846 -0.3574  0.2390 -0.4969
 5235TIP3    H137120   1.161   5.441   4.871 -0.8717  2.5824 -2.3553
 5235TIP3    H237121   1.102   5.322   4.797  0.7005 -0.4005  1.0232
 5236TIP3   OH237122   2.465   5.194   0.207  0.3085 -0.4567 -0.5346
 5236TIP3    H137123   2.504   5.259   0.148 -1.0940  1.3759  0.5123
 5236TIP3    H237124   2.389   5.238   0.244  0.6041 -1.9099  1.9048
 5237TIP3   OH237125   3.997   4.019   4.990  0.6132  0.3863  0.1886
 5237TIP3    H137126   3.938   3.961   4.942 -0.0431  0.6712  0.6275
 5237TIP3    H237127   4.014   3.972   5.072  1.1366  0.2299 -0.0079
 5238TIP3   OH237128   0.218   2.283  15.548 -0.9253 -0.2066  0.2941
 5238TIP3    H137129   0.235   2.200  15.593 -0.6217 -0.7707 -0.8501
 5238TIP3    H237130   0.274   2.280  15.470 -1.4499  0.7547 -0.1217
 5239TIP3   OH237131   4.679   4.905   0.961  0.2704 -1.0500  0.3266
 5239TIP3    H137132   4.703   4.855   1.040  0.4028 -1.2903  0.1339
 5239TIP3    H237133   4.720   4.990   0.973 -0.3181 -0.8298  0.8681
 5240TIP3   OH237134   1.205   4.961   0.369 -0.2396  0.0675 -0.6261
 5240TIP3    H137135   1.177   4.905   0.441  0.5033 -0.4483 -0.7336
 5240TIP3    H237136   1.174   5.048   0.392  0.2236 -0.0442  0.4387
 5241TIP3   OH237137   6.733   0.267   4.994  0.1169  0.7725  0.1965
 5241TIP3    H137138   6.774   0.181   4.988  1.0867  1.0794  2.0935
 5241TIP3    H237139   6.758   0.310   4.912  2.3839  0.4006  0.6441
 5242TIP3   OH237140   5.311   3.908   1.130  0.5623 -0.5322 -0.6835
 5242TIP3    H137141   5.216   3.903   1.123  0.4390 -0.7831  0.9413
 5242TIP3    H237142   5.343   3.832   1.081 -0.0343  0.0237 -1.9367
 5243TIP3   OH237143   3.245   6.569   2.773 -0.1008 -0.1599 -0.6229
 5243TIP3    H137144   3.263   6.519   2.853  2.6091  0.9691 -0.4953
 5243TIP3    H237145   3.150   6.582   2.775 -0.2313 -1.1520  1.8002
 5244TIP3   OH237146   3.674   6.438   6.122 -0.1686  0.1491 -0.2716
 5244TIP3    H137147   3.736   6.477   6.060  1.6931 -0.2240  1.3161
 5244TIP3    H237148   3.729   6.387   6.182 -1.9397  0.3232  1.5520
 5245TIP3   OH237149   2.722   3.071   3.696  0.9598 -0.0289  0.5123
 5245TIP3    H137150   2.682   3.029   3.772  0.4728  0.4408  0.5176
 5245TIP3    H237151   2.650   3.115   3.652  1.4142  0.5442  0.3335
 5246TIP3   OH237152   5.035   5.123   6.035  0.0968  0.3069 -0.2573
 5246TIP3    H137153   5.058   5.206   6.077 -0.0458  0.4990 -0.5568
 5246TIP3    H237154   5.119   5.087   6.007  0.4187 -0.8086  1.9925
 5247TIP3   OH237155   2.753   2.787   6.381  0.5700 -0.0714  0.1605
 5247TIP3    H137156   2.711   2.872   6.365  0.0628 -0.1287  1.1539
 5247TIP3    H237157   2.819   2.806   6.447 -0.7030 -0.7600  1.6696
 5248TIP3   OH237158   1.850   4.570   3.746  0.4769  0.1808 -0.4208
 5248TIP3    H137159   1.891   4.592   3.663 -0.3453  1.7732 -0.4207
 5248TIP3    H237160   1.765   4.533   3.722  0.9059 -0.8818 -0.3354
 5249TIP3   OH237161   5.788   1.687  13.068 -0.2745 -0.0627 -0.4630
 5249TIP3    H137162   5.797   1.593  13.050 -2.4240 -0.0756 -1.6425
 5249TIP3    H237163   5.770   1.726  12.983  1.4047  1.5496 -0.1000
 5250TIP3   OH237164   1.342   3.204   0.989  0.0924  0.0781  0.0903
 5250TIP3    H137165   1.332   3.232   1.080  0.4662  0.5872 -0.0263
 5250TIP3    H237166   1.431   3.231   0.964 -0.3671  0.8486 -0.7459
 5251TIP3   OH237167   0.860   4.181  12.665 -0.3374 -0.5799 -0.5454
 5251TIP3    H137168   0.875   4.263  12.711 -1.4750 -1.0264  0.6538
 5251TIP3    H237169   0.947   4.141  12.660  0.3196  0.9328 -1.6458
 5252TIP3   OH237170   6.741   3.266   0.961  0.4428  0.4570  0.4183
 5252TIP3    H137171   6.775   3.245   0.874  0.1934  0.7636  0.2478
 5252TIP3    H237172   6.658   3.310   0.945  0.2747  0.2942  0.8192
 5253TIP3   OH237173   3.529   5.691   2.849 -0.2779 -0.3323  0.0795
 5253TIP3    H137174   3.582   5.686   2.770 -2.6945  0.7664 -1.6716
 5253TIP3    H237175   3.537   5.782   2.878  0.1908 -0.6044  0.8159
 5254TIP3   OH237176   2.323   3.231   3.864 -0.2473  0.0918  0.7078
 5254TIP3    H137177   2.405   3.268   3.832 -0.0167 -0.2382  0.9179
 5254TIP3    H237178   2.255   3.276   3.813  0.1357 -0.8412 -0.6469
 5255TIP3   OH237179   0.388   1.178   5.817 -0.2654  0.0170  0.6556
 5255TIP3    H137180   0.309   1.232   5.815  1.2070  2.2297  0.8970
 5255TIP3    H237181   0.388   1.138   5.904 -0.2877  1.2684  1.2299
 5256TIP3   OH237182   3.964   1.220   0.142  0.2660 -0.3074 -0.3566
 5256TIP3    H137183   3.964   1.158   0.215 -1.5345  0.2230  0.1075
 5256TIP3    H237184   4.010   1.297   0.175 -1.5691  0.3918  0.6404
 5257TIP3   OH237185   5.184   5.439  16.552  0.3162  0.0732  0.3382
 5257TIP3    H137186   5.099   5.476  16.527 -0.2370 -0.7958  0.8931
 5257TIP3    H237187   5.216   5.398  16.472 -0.1351 -0.2378  0.3123
 5258TIP3   OH237188   3.830   4.075  12.010  0.0809 -0.0329 -0.6238
 5258TIP3    H137189   3.889   4.072  11.935 -1.4514 -0.9798 -1.8313
 5258TIP3    H237190   3.833   3.986  12.047 -0.5299 -0.0585 -0.6380
 5259TIP3   OH237191   0.737   0.559   5.384  0.2198 -0.1314 -0.2697
 5259TIP3    H137192   0.807   0.495   5.396 -1.2060 -1.1489  3.5064
 5259TIP3    H237193   0.771   0.640   5.423  0.0999 -0.0285 -0.3761
 5260TIP3   OH237194   6.497   6.434   3.007 -0.7691  0.3233 -1.1681
 5260TIP3    H137195   6.583   6.392   3.001 -0.9770  0.0538 -2.3068
 5260TIP3    H237196   6.514   6.525   2.983 -0.4819  0.6983  0.4050
 5261TIP3   OH237197   1.555   0.840   0.056  0.3933 -0.2442 -0.5321
 5261TIP3    H137198   1.469   0.813   0.025 -0.0064  0.7521 -0.2858
 5261TIP3    H237199   1.580   0.911  -0.002  2.3857 -2.4944 -2.5665
 5262TIP3   OH237200   3.915   3.406   4.768 -0.0168  0.1629 -0.0977
 5262TIP3    H137201   3.927   3.313   4.747 -1.0429 -0.0646  0.2654
 5262TIP3    H237202   3.933   3.412   4.862  0.6017  0.4303 -0.2372
 5263TIP3   OH237203   2.995   5.602  12.170  0.5031  0.1663  0.5179
 5263TIP3    H137204   2.949   5.565  12.095  2.1261  0.1713 -0.5030
 5263TIP3    H237205   3.088   5.591  12.149  0.9808 -0.0036  2.6064
 5264TIP3   OH237206   0.228   5.041  12.317 -0.3314 -0.3325 -0.6857
 5264TIP3    H137207   0.322   5.022  12.322 -0.4699 -0.4937  1.5812
 5264TIP3    H237208   0.186   4.961  12.348 -1.2092 -0.0105 -1.0439
 5265TIP3   OH237209   5.182   4.810   4.994  0.1434 -0.7368  0.2187
 5265TIP3    H137210   5.248   4.774   5.053  0.9027 -1.8959 -1.2783
 5265TIP3    H237211   5.233   4.843   4.919 -0.6581  2.2374  0.9357
 5266TIP3   OH237212   4.802   3.405   3.054  0.5186 -0.5717  0.5755
 5266TIP3    H137213   4.842   3.463   2.989  0.8942 -0.2072  1.1290
 5266TIP3    H237214   4.786   3.461   3.130  0.0103 -0.9789  0.7759
 5267TIP3   OH237215   5.334   0.280   4.899 -0.4277  1.0351  0.1089
 5267TIP3    H137216   5.381   0.234   4.830 -3.0890  0.7734 -1.6290
 5267TIP3    H237217   5.393   0.350   4.927  1.8607 -0.6689 -0.3715
 5268TIP3   OH237218   6.657   1.382  11.463 -0.2949 -0.4236 -0.1188
 5268TIP3    H137219   6.668   1.359  11.555 -0.3568 -2.4145 -0.5964
 5268TIP3    H237220   6.746   1.395  11.430 -0.2722  0.2782  0.2021
 5269TIP3   OH237221   5.828   6.541  10.912  0.7881  0.1553  0.2727
 5269TIP3    H137222   5.794   6.547  10.823  0.9253  1.8928  0.3219
 5269TIP3    H237223   5.894   6.472  10.908  1.3005  0.7094 -1.1492
 5270TIP3   OH237224   2.084   4.404   1.912 -0.8870 -0.2602 -0.3435
 5270TIP3    H137225   2.013   4.460   1.882 -0.2942 -0.1213 -1.4999
 5270TIP3    H237226   2.153   4.415   1.847  0.2670 -0.2710  0.8489
 5271TIP3   OH237227   1.003   1.919  11.776  0.1733  0.0808 -0.6969
 5271TIP3    H137228   1.006   2.009  11.743  2.3137 -0.3468 -1.7492
 5271TIP3    H237229   0.910   1.897  11.776 -0.3124  1.9810 -1.2634
 5272TIP3   OH237230   0.704   2.934  12.857 -0.2648  0.1222  0.9904
 5272TIP3    H137231   0.707   3.021  12.816  0.8361  0.1240  1.0797
 5272TIP3    H237232   0.673   2.876  12.788  1.8035  0.0883  0.0901
 5273TIP3   OH237233   3.884   5.228  16.876  0.1868 -0.2783 -0.6952
 5273TIP3    H137234   3.908   5.273  16.795  1.4524 -0.9046 -0.6674
 5273TIP3    H237235   3.790   5.213  16.868 -0.1621  1.8186 -0.9849
 5274TIP3   OH237236   4.301   6.246   4.819  0.1371  0.1378 -0.5217
 5274TIP3    H137237   4.341   6.313   4.874 -1.7337  0.7377  0.1542
 5274TIP3    H237238   4.282   6.174   4.878  1.7107 -0.8028 -1.1568
 5275TIP3   OH237239   0.820   0.579   2.904  0.6160  0.0949  0.2983
 5275TIP3    H137240   0.748   0.576   2.842 -0.0350 -1.3622  1.0959
 5275TIP3    H237241   0.868   0.498   2.888  1.1280  0.2791  0.8973
 5276TIP3   OH237242   5.789   3.987  16.102 -1.1678  0.2468  0.0536
 5276TIP3    H137243   5.773   3.987  16.196 -0.0890  0.5439  0.2409
 5276TIP3    H237244   5.713   3.940  16.065 -0.0511 -2.7260  1.3325
 5277TIP3   OH237245   5.214   5.518  16.837  0.5736 -0.2438  0.1138
 5277TIP3    H137246   5.185   5.515  16.746 -1.9012 -2.0079  0.9217
 5277TIP3    H237247   5.289   5.459  16.840 -0.6204 -1.8234 -0.3781
 5278TIP3   OH237248   1.463   3.631   2.249 -0.2718 -0.4135 -0.8288
 5278TIP3    H137249   1.443   3.696   2.316  2.0228 -1.1734  0.6519
 5278TIP3    H237250   1.378   3.612   2.208 -1.2499  2.1908 -0.1138
 5279TIP3   OH237251   5.956   4.366  16.463  0.6773 -0.4057 -0.3656
 5279TIP3    H137252   5.969   4.313  16.384  2.1735  0.2265 -0.5653
 5279TIP3    H237253   6.013   4.442  16.450 -0.9825  0.9623  0.1824
 5280TIP3   OH237254   2.011   6.356  11.742  0.0657 -0.7078  0.1088
 5280TIP3    H137255   2.018   6.272  11.787 -0.6219 -0.8576 -0.0645
 5280TIP3    H237256   2.094   6.400  11.760  0.1667 -1.1590  0.7292
 5281TIP3   OH237257   6.554   2.378  11.580 -0.1770 -0.3703 -0.0377
 5281TIP3    H137258   6.523   2.369  11.490 -2.0754 -1.9695  0.7495
 5281TIP3    H237259   6.613   2.453  11.578 -2.4263  1.3951 -2.0348
 5282TIP3   OH237260   4.297   5.541  14.233  0.0694  0.1353  0.0950
 5282TIP3    H137261   4.278   5.525  14.325  0.3077 -1.0186 -0.0486
 5282TIP3    H237262   4.389   5.518  14.223 -0.6514 -2.4984 -1.0156
 5283TIP3   OH237263   4.960   1.754   2.653 -0.2611 -0.2706  0.1626
 5283TIP3    H137264   4.899   1.825   2.635 -0.6432 -0.6549 -0.0514
 5283TIP3    H237265   5.025   1.793   2.712 -0.5389  0.2200  0.1454
 5284TIP3   OH237266   6.173   0.184  16.521 -0.2558  0.1588  0.6537
 5284TIP3    H137267   6.175   0.269  16.564 -0.0592  0.0621  0.8330
 5284TIP3    H237268   6.223   0.197  16.440 -0.6188  0.3379  0.4533
 5285TIP3   OH237269   5.071   0.212   2.181 -0.1354 -0.3290  0.0252
 5285TIP3    H137270   5.061   0.297   2.140  0.7323 -1.4762 -2.6752
 5285TIP3    H237271   5.000   0.159   2.145  1.3579 -1.6958 -1.0020
 5286TIP3   OH237272   1.427   0.942   1.795  0.1721 -0.1714  0.0089
 5286TIP3    H137273   1.343   0.982   1.770  0.0655  0.0228  0.6823
 5286TIP3    H237274   1.404   0.852   1.820 -0.1076  0.4045  1.9207
 5287TIP3   OH237275   5.779   5.782   0.278  0.0691  0.1345 -0.6276
 5287TIP3    H137276   5.849   5.763   0.216 -1.8926  1.1151 -3.2582
 5287TIP3    H237277   5.700   5.785   0.224 -1.7688  0.6901  2.0001
 5288TIP3   OH237278   0.955   1.800  15.442  0.1508  0.4449  0.1643
 5288TIP3    H137279   0.924   1.748  15.516 -0.9044 -0.3412 -0.8046
 5288TIP3    H237280   0.876   1.819  15.391  0.9317  0.4733 -1.0618
 5289TIP3   OH237281   5.576   5.611   4.493  0.1322  0.1066  0.0237
 5289TIP3    H137282   5.606   5.694   4.531  0.1626 -0.4076  1.1401
 5289TIP3    H237283   5.562   5.631   4.401  0.0635  1.3789  0.2976
 5290TIP3   OH237284   3.505   4.005  16.239 -0.6536  0.4893 -0.0121
 5290TIP3    H137285   3.573   4.058  16.196 -0.2196  0.0807  0.1603
 5290TIP3    H237286   3.544   3.981  16.323 -1.9033  2.1758  1.0932
 5291TIP3   OH237287   5.985   0.730   6.223 -0.0738 -0.0922 -0.0641
 5291TIP3    H137288   5.915   0.749   6.161  1.1810  0.5988 -1.3073
 5291TIP3    H237289   6.024   0.649   6.192  0.8197  0.4662 -0.4264
 5292TIP3   OH237290   5.427   1.535   4.970 -0.1755 -0.2709 -0.1838
 5292TIP3    H137291   5.486   1.611   4.964 -0.0951 -0.1048  2.4017
 5292TIP3    H237292   5.346   1.565   4.930  0.7468  0.2509 -1.7140
 5293TIP3   OH237293   5.067   1.569   1.355  0.4907  0.0803  0.1695
 5293TIP3    H137294   5.082   1.548   1.447 -0.9957  0.3357  0.4776
 5293TIP3    H237295   5.155   1.583   1.319  1.1340 -0.8019  1.3509
 5294TIP3   OH237296   5.245   3.939   3.760 -1.0908 -0.5714  0.0783
 5294TIP3    H137297   5.245   3.854   3.805  1.4071 -0.6900 -0.0745
 5294TIP3    H237298   5.245   3.917   3.667  0.3711 -0.4289  0.0378
 5295TIP3   OH237299   4.796   0.423   0.280 -0.1896 -0.0278  0.7078
 5295TIP3    H137300   4.842   0.405   0.198 -1.2252 -0.6756  0.2671
 5295TIP3    H237301   4.836   0.504   0.312  0.1679  0.2765 -0.4705
 5296TIP3   OH237302   0.090   6.351  15.608 -0.0430  0.1585 -0.3042
 5296TIP3    H137303   0.111   6.444  15.617  0.0113  0.1241 -0.0796
 5296TIP3    H237304   0.121   6.328  15.521  0.0875  0.3131 -0.2992
 5297TIP3   OH237305   3.357   6.644   6.174  0.1599 -0.0388  0.1350
 5297TIP3    H137306   3.400   6.612   6.095 -1.6499 -1.5930 -0.2554
 5297TIP3    H237307   3.341   6.565   6.226 -0.7975  0.6965  0.9840
 5298TIP3   OH237308   1.091   5.688  14.829 -0.4125 -0.5575 -0.3020
 5298TIP3    H137309   1.047   5.761  14.787  0.0494 -0.3097 -0.3588
 5298TIP3    H237310   1.155   5.728  14.888  0.9565 -0.9133 -1.5138
 5299TIP3   OH237311   2.659   0.888  13.448  0.1951  0.8364  0.1343
 5299TIP3    H137312   2.613   0.804  13.449  0.2618  0.7737 -1.0176
 5299TIP3    H237313   2.644   0.925  13.535 -1.5364  0.5314 -0.0102
 5300TIP3   OH237314   6.635   1.797  16.709 -0.3637 -0.5401  0.1386
 5300TIP3    H137315   6.577   1.749  16.650 -1.2426  1.3802 -0.5979
 5300TIP3    H237316   6.616   1.890  16.692  2.6625  0.1420  0.1292
 5301TIP3   OH237317   5.286   0.685  16.295  0.0321 -0.1629 -1.0889
 5301TIP3    H137318   5.294   0.589  16.297  1.8207 -0.0133 -0.0258
 5301TIP3    H237319   5.376   0.716  16.307 -0.7283  1.6579 -0.0783
 5302TIP3   OH237320   6.643   1.472   5.694  0.7264 -1.0957  0.0348
 5302TIP3    H137321   6.572   1.485   5.757  2.3515  1.3991  1.4282
 5302TIP3    H237322   6.650   1.556   5.648  0.6338 -2.3703 -2.4043
 5303TIP3   OH237323   5.089   0.609  14.090 -0.3010 -0.7863  0.0172
 5303TIP3    H137324   5.097   0.687  14.035 -0.7522  0.1397  1.2293
 5303TIP3    H237325   5.119   0.537  14.035 -0.4608  0.1602 -1.3309
 5304TIP3   OH237326   3.473   0.411   2.664  0.2186 -0.6920 -0.0937
 5304TIP3    H137327   3.418   0.340   2.630  0.9843 -1.3065 -0.0825
 5304TIP3    H237328   3.415   0.487   2.667  0.0739 -0.6430 -2.6563
 5305TIP3   OH237329   0.328   1.624   0.203  0.6420  0.1913  0.5159
 5305TIP3    H137330   0.366   1.558   0.262 -1.9162 -2.4552 -0.6925
 5305TIP3    H237331   0.241   1.642   0.239 -0.3480 -0.2991 -1.5442
 5306TIP3   OH237332   2.969   4.672   1.578  0.1365  0.2107  0.2811
 5306TIP3    H137333   2.892   4.646   1.526  0.2909  0.6118 -0.1566
 5306TIP3    H237334   2.972   4.609   1.650  0.0073 -0.4506 -0.2871
 5307TIP3   OH237335   0.474   2.728   1.935  0.3830 -0.2032 -0.3148
 5307TIP3    H137336   0.471   2.730   1.839 -0.3336 -1.7081 -0.3470
 5307TIP3    H237337   0.565   2.707   1.956  0.5812  0.3104 -0.6617
 5308TIP3   OH237338   6.197   3.216   2.633 -0.0327 -0.7013 -0.4946
 5308TIP3    H137339   6.186   3.295   2.686 -0.6328 -0.2346 -1.2953
 5308TIP3    H237340   6.279   3.177   2.664  0.5152  0.4974 -0.4175
 5309TIP3   OH237341   5.642   2.697  12.375 -0.3725 -0.0488  0.4498
 5309TIP3    H137342   5.646   2.720  12.282  0.4883  2.6207  1.1232
 5309TIP3    H237343   5.590   2.766  12.415 -0.3149 -0.9037  2.0460
 5310TIP3   OH237344   4.667   1.154   4.766  0.4885  0.2168 -0.5424
 5310TIP3    H137345   4.595   1.102   4.803  1.3545 -0.6969 -0.1246
 5310TIP3    H237346   4.632   1.187   4.683 -0.8750  0.8778  0.2641
 5311TIP3   OH237347   1.189   3.997   4.036  0.1482  0.1255 -0.1545
 5311TIP3    H137348   1.174   3.953   4.120 -1.0474  0.5410 -0.1477
 5311TIP3    H237349   1.148   3.939   3.971  0.3745  0.1996 -0.3639
 5312TIP3   OH237350   2.097   1.669   5.123  0.6426 -0.3969  0.4444
 5312TIP3    H137351   2.046   1.619   5.186 -0.8572  0.8968  0.2764
 5312TIP3    H237352   2.083   1.760   5.148  0.8196  0.0773 -1.1571
 5313TIP3   OH237353   5.274   3.329  15.335  0.6924  0.8471  0.2407
 5313TIP3    H137354   5.205   3.396  15.340  1.6694  1.8107  1.4528
 5313TIP3    H237355   5.348   3.368  15.383  1.3598 -1.0267  0.7738
 5314TIP3   OH237356   6.703   2.615  11.598  0.0207 -0.5268 -0.0123
 5314TIP3    H137357   6.623   2.664  11.582 -0.0587 -0.8416 -0.6011
 5314TIP3    H237358   6.719   2.623  11.692  0.9934  2.1529 -0.3675
 5315TIP3   OH237359   1.327   5.542   1.487 -0.4649  0.2138  0.0491
 5315TIP3    H137360   1.384   5.618   1.483  0.6636 -0.6872 -1.3371
 5315TIP3    H237361   1.242   5.573   1.455 -0.9475  1.6778  2.5718
 5316TIP3   OH237362   1.863   6.632  15.572 -0.1285  0.4290  0.2293
 5316TIP3    H137363   1.914   6.551  15.579 -0.3547  0.2912  0.2505
 5316TIP3    H237364   1.930   6.701  15.572  0.1126  0.1999 -0.7504
 5317TIP3   OH237365   4.936   0.071   6.313 -0.3661 -0.3747  0.1782
 5317TIP3    H137366   4.941   0.165   6.296 -1.5583 -0.2815  0.3220
 5317TIP3    H237367   4.846   0.057   6.344 -0.0497 -1.4829  0.6104
 5318TIP3   OH237368   1.279   4.298   5.891  0.1816 -0.3602 -0.0146
 5318TIP3    H137369   1.334   4.237   5.842  2.1846  1.3029  0.0837
 5318TIP3    H237370   1.341   4.363   5.927 -1.7483  1.0614  0.8471
 5319TIP3   OH237371   2.728   5.748   3.800 -0.1227  0.1187  0.4479
 5319TIP3    H137372   2.753   5.803   3.875 -0.6241  0.9740 -0.0048
 5319TIP3    H237373   2.717   5.810   3.728  0.5310 -0.7223 -0.3802
 5320TIP3   OH237374   6.198   5.203  17.114  0.0613  0.2707  0.1140
 5320TIP3    H137375   6.122   5.209  17.171  0.2091 -1.2736  0.4902
 5320TIP3    H237376   6.162   5.193  17.026 -0.1667 -1.1113  0.3691
 5321TIP3   OH237377   0.431   0.128   0.526 -0.4950 -0.2441  0.1161
 5321TIP3    H137378   0.368   0.154   0.459  0.1163 -0.1186 -0.4053
 5321TIP3    H237379   0.422   0.033   0.532 -1.3876 -0.1310  0.6962
 5322TIP3   OH237380   1.420   0.653   4.649 -0.4697 -0.0367 -0.4956
 5322TIP3    H137381   1.420   0.720   4.717 -1.5279 -0.1542 -0.3638
 5322TIP3    H237382   1.470   0.581   4.687  1.0794  0.8603 -0.8332
 5323TIP3   OH237383   6.414   0.362  13.698  0.3999 -0.8954 -0.2401
 5323TIP3    H137384   6.330   0.315  13.704 -0.5812  0.7186 -1.0049
 5323TIP3    H237385   6.475   0.306  13.746 -2.0187 -0.0552  4.1676
 5324TIP3   OH237386   2.160   3.258   2.123  0.4537 -0.0410 -0.2327
 5324TIP3    H137387   2.099   3.320   2.082 -1.1727 -0.6673  1.1779
 5324TIP3    H237388   2.239   3.264   2.070  0.0509  2.6417 -0.6257
 5325TIP3   OH237389   3.917   6.030   1.912  0.8513 -0.5282 -0.8084
 5325TIP3    H137390   3.943   5.995   1.827  3.2943  2.6310 -1.4937
 5325TIP3    H237391   3.827   6.059   1.899  0.5259 -1.8902 -1.7048
 5326TIP3   OH237392   5.036   4.573   5.034  0.5579  0.2511  0.2188
 5326TIP3    H137393   5.034   4.639   4.965  0.6318  1.3925  1.3002
 5326TIP3    H237394   5.107   4.601   5.093 -0.5777  0.1967  1.6367
 5327TIP3   OH237395   2.087   5.766   3.313 -0.1011  0.5311  0.3490
 5327TIP3    H137396   2.041   5.823   3.252  0.4826 -0.7601 -1.3527
 5327TIP3    H237397   2.040   5.682   3.308  0.2903  0.2437  1.2601
 5328TIP3   OH237398   1.264   4.282  15.550 -0.5360 -0.0658 -0.3988
 5328TIP3    H137399   1.215   4.362  15.569 -0.3940  0.7387 -3.1369
 5328TIP3    H237400   1.335   4.282  15.614 -1.0892  1.5029  0.2536
 5329TIP3   OH237401   3.002   1.365   3.494 -0.2618  0.5799  0.2945
 5329TIP3    H137402   2.965   1.448   3.523  0.3382  0.4846  1.3558
 5329TIP3    H237403   3.094   1.383   3.479 -0.4377  0.4627 -0.9106
 5330TIP3   OH237404   4.642   3.767   1.895  0.7158 -0.2426  0.4117
 5330TIP3    H137405   4.603   3.844   1.854 -1.3909 -0.8113  1.2960
 5330TIP3    H237406   4.702   3.803   1.960  1.7206  0.6503 -0.9839
 5331TIP3   OH237407   6.111   3.645   3.834  0.0157 -0.7531  0.5430
 5331TIP3    H137408   6.098   3.737   3.809  2.5918 -0.8043 -1.1435
 5331TIP3    H237409   6.041   3.598   3.789 -0.6812  0.2572  0.5599
 5332TIP3   OH237410   2.819   6.295  17.097 -0.2652  0.5978 -0.4747
 5332TIP3    H137411   2.794   6.223  17.039  0.7792  0.4281 -0.7250
 5332TIP3    H237412   2.898   6.332  17.057 -0.5549  1.6128 -0.1147
 5333TIP3   OH237413   6.758   1.617  12.780  0.2154 -0.1205  0.2309
 5333TIP3    H137414   6.671   1.599  12.743 -0.2551  1.2846  0.6234
 5333TIP3    H237415   6.758   1.711  12.795  1.7203 -0.1616  0.4954
 5334TIP3   OH237416   6.600   4.763  12.684  0.1832 -0.4102 -0.5773
 5334TIP3    H137417   6.569   4.820  12.753 -0.3781  0.2105 -1.3293
 5334TIP3    H237418   6.600   4.818  12.606  1.5226 -0.8878 -0.9217
 5335TIP3   OH237419   0.467   2.305  11.802  0.2611 -0.2444 -0.0088
 5335TIP3    H137420   0.534   2.268  11.860 -0.9059 -0.3899  1.2653
 5335TIP3    H237421   0.428   2.377  11.852 -1.2424 -0.8274 -0.3069
 5336TIP3   OH237422   2.918   4.577  16.688 -0.3798  0.4656  0.1188
 5336TIP3    H137423   2.884   4.576  16.778 -0.2235  0.4542  0.1769
 5336TIP3    H237424   2.975   4.654  16.685  0.1443  0.0814  0.2250
 5337TIP3   OH237425   5.590   3.340  12.789  0.1088  0.4982 -0.2437
 5337TIP3    H137426   5.507   3.388  12.792  0.5855  1.2537  1.1697
 5337TIP3    H237427   5.651   3.394  12.839  1.4283 -0.1255 -1.1391
 5338TIP3   OH237428   2.509   2.057  16.607  0.3111  0.3070  0.6906
 5338TIP3    H137429   2.595   2.017  16.623 -0.1518 -0.3072  1.6694
 5338TIP3    H237430   2.476   2.077  16.694  0.0284  1.7827  0.2679
 5339TIP3   OH237431   1.237   4.505  14.779  0.2337  0.8653  0.1113
 5339TIP3    H137432   1.157   4.556  14.770 -0.2307 -0.2353 -2.2239
 5339TIP3    H237433   1.222   4.450  14.855 -0.8715  1.2886  0.2035
 5340TIP3   OH237434   2.533   1.828   4.659  0.3058  0.0450  0.4407
 5340TIP3    H137435   2.610   1.840   4.714 -0.2298  1.4072  0.9378
 5340TIP3    H237436   2.472   1.896   4.689 -0.8203 -0.5769 -0.3928
 5341TIP3   OH237437   0.308   3.361  14.826  0.0731 -0.4499 -0.1692
 5341TIP3    H137438   0.320   3.288  14.764  1.0618  1.2771 -2.0937
 5341TIP3    H237439   0.232   3.407  14.793  1.4654  1.3209 -1.0064
 5342TIP3   OH237440   4.101   0.556   0.201  0.8360 -0.4039 -0.2514
 5342TIP3    H137441   4.073   0.465   0.210  0.1965 -0.3080 -1.1717
 5342TIP3    H237442   4.054   0.603   0.270  0.5230 -0.6360 -0.3054
 5343TIP3   OH237443   1.493   6.295  16.419  0.2003  0.2741 -0.0547
 5343TIP3    H137444   1.576   6.246  16.419  0.7737  1.2239  1.2045
 5343TIP3    H237445   1.426   6.229  16.399  1.2363 -0.5283 -0.9457
 5344TIP3   OH237446   3.919   3.498  13.195  0.5498  0.0087 -0.0641
 5344TIP3    H137447   3.870   3.511  13.276  1.6001 -1.3555  0.8061
 5344TIP3    H237448   3.940   3.587  13.165 -0.2543  0.5284  0.9008
 5345TIP3   OH237449   3.441   0.409  11.602  0.2139 -0.4336 -0.0342
 5345TIP3    H137450   3.366   0.385  11.657 -0.3135  0.3714 -0.4097
 5345TIP3    H237451   3.453   0.502  11.617 -0.6685  0.0330 -2.1893
 5346TIP3   OH237452   5.689   2.491  14.783 -0.2589  0.9122 -0.3145
 5346TIP3    H137453   5.608   2.448  14.808  0.5788  0.3255  1.4947
 5346TIP3    H237454   5.741   2.422  14.741  0.4388  0.5219  1.1408
 5347TIP3   OH237455   6.629   1.777   5.691 -0.7006  0.1768 -0.6085
 5347TIP3    H137456   6.698   1.755   5.753  0.0189  1.0568 -1.0897
 5347TIP3    H237457   6.561   1.819   5.745 -0.0817  0.9367 -0.4163
 5348TIP3   OH237458   0.031   3.683  11.485 -0.2254  0.8715  0.7894
 5348TIP3    H137459   0.089   3.607  11.480 -0.5534  0.6914 -0.3776
 5348TIP3    H237460  -0.009   3.677  11.571 -0.3126 -0.3273  0.6702
 5349TIP3   OH237461   4.746   6.736   0.840  0.2200  0.4980  0.4633
 5349TIP3    H137462   4.753   6.729   0.935 -1.1717  3.3467  0.8324
 5349TIP3    H237463   4.725   6.828   0.824  2.3121  0.4853 -2.7374
 5350TIP3   OH237464   4.282   6.477   3.154  0.5654  0.0276 -0.1965
 5350TIP3    H137465   4.348   6.411   3.176 -1.1477 -1.4512  0.6456
 5350TIP3    H237466   4.331   6.547   3.112  2.8487 -0.5283  1.4414
 5351TIP3   OH237467   4.376   6.331  12.206 -0.2186  0.2657  0.7840
 5351TIP3    H137468   4.349   6.423  12.208 -0.7473  0.1464 -0.8295
 5351TIP3    H237469   4.322   6.291  12.139  1.5538 -0.7547 -0.0662
 5352TIP3   OH237470   3.829   4.741  17.194 -0.5020  0.4479  0.3933
 5352TIP3    H137471   3.836   4.831  17.162 -1.2875 -0.0499 -1.2148
 5352TIP3    H237472   3.740   4.714  17.171  0.3392 -1.3664 -0.7946
 5353TIP3   OH237473   3.933   0.935  16.268  0.1411  0.0392 -0.5404
 5353TIP3    H137474   3.861   0.994  16.249 -0.3028 -0.3667 -0.1360
 5353TIP3    H237475   4.005   0.966  16.213 -0.3093  0.5050 -0.8703
 5354TIP3   OH237476   1.072   3.174   0.207  0.5609  0.4065  0.7956
 5354TIP3    H137477   1.117   3.121   0.273  1.4148  1.8494  1.3962
 5354TIP3    H237478   1.002   3.117   0.174 -0.2599 -0.1436  3.3752
 5355TIP3   OH237479   3.236   0.827  15.176 -0.4362  0.3646 -0.0040
 5355TIP3    H137480   3.175   0.754  15.167 -0.0170 -0.6343  4.2634
 5355TIP3    H237481   3.320   0.786  15.193  0.4912  1.8411 -0.8485
 5356TIP3   OH237482   0.271   1.512  11.720  0.2757  0.3459 -0.4475
 5356TIP3    H137483   0.307   1.541  11.636  3.1002 -1.5548  0.0518
 5356TIP3    H237484   0.333   1.546  11.785 -1.7224  1.5364  0.8717
 5357TIP3   OH237485   2.256   6.774  12.980 -0.0459  0.7526  0.0480
 5357TIP3    H137486   2.166   6.808  12.983 -0.4286 -0.3493  1.5905
 5357TIP3    H237487   2.246   6.680  12.989  1.4301  0.8466  3.1599
 5358TIP3   OH237488   2.597   2.689  16.613 -0.1688 -0.4211  0.6527
 5358TIP3    H137489   2.523   2.748  16.601 -0.3718 -0.7428  0.3363
 5358TIP3    H237490   2.663   2.743  16.657 -0.0377  0.2869 -0.3928
 5359TIP3   OH237491   0.869   0.726   5.567 -0.2601 -0.6225  0.1957
 5359TIP3    H137492   0.791   0.714   5.621 -0.6668 -2.5299 -0.7959
 5359TIP3    H237493   0.844   0.793   5.503 -1.6967 -2.4451 -1.2164
 5360TIP3   OH237494   0.485   0.049   1.814  0.5550  0.0322 -0.3085
 5360TIP3    H137495   0.511  -0.028   1.764 -0.6924  0.7527 -2.1380
 5360TIP3    H237496   0.416   0.019   1.872 -2.2377  0.3772 -3.3161
 5361TIP3   OH237497   5.690   0.315   0.576  0.8573 -0.5427  0.4868
 5361TIP3    H137498   5.778   0.352   0.575  0.3574  0.6524  0.3709
 5361TIP3    H237499   5.674   0.287   0.486 -0.1025  2.2010 -0.2556
 5362TIP3   OH237500   5.999   2.854   0.285 -0.0525 -0.5070  0.5356
 5362TIP3    H137501   5.937   2.837   0.356 -0.6845  0.0913  0.1363
 5362TIP3    H237502   6.033   2.768   0.261 -0.2392 -0.7671  1.1954
 5363TIP3   OH237503   3.105   2.724   4.091  0.4179  0.0484  0.2465
 5363TIP3    H137504   3.120   2.686   4.178 -1.8173 -1.3019  0.1018
 5363TIP3    H237505   3.092   2.817   4.108 -0.7057 -0.3059  1.4783
 5364TIP3   OH237506   0.572   1.929  16.606 -0.1385  0.0572 -0.2012
 5364TIP3    H137507   0.627   1.860  16.569 -0.6675  0.4948 -1.8473
 5364TIP3    H237508   0.484   1.910  16.573 -0.7297  0.1384  1.2988
 5365TIP3   OH237509   1.244   6.106  16.050  0.1857  0.1854 -0.1971
 5365TIP3    H137510   1.336   6.089  16.072  0.3424  1.0156 -0.1917
 5365TIP3    H237511   1.195   6.049  16.109  0.7038 -0.5164 -0.4301
 5366TIP3   OH237512   3.196   5.400  12.554  0.2834 -0.0499 -0.4906
 5366TIP3    H137513   3.120   5.454  12.535 -0.8163 -2.8520 -4.6629
 5366TIP3    H237514   3.258   5.418  12.484  1.9441 -0.6005  0.7832
 5367TIP3   OH237515   0.174   0.601   4.031  0.0452 -0.0693  0.0296
 5367TIP3    H137516   0.263   0.595   3.995 -0.7024 -0.6802 -1.7795
 5367TIP3    H237517   0.142   0.511   4.031 -1.2856  0.3870 -1.2414
 5368TIP3   OH237518   0.654   6.143   5.438  0.1559  0.0818 -0.3804
 5368TIP3    H137519   0.571   6.186   5.454  1.3563  2.9065 -1.4773
 5368TIP3    H237520   0.683   6.114   5.524 -0.4829  1.8781  0.4644
 5369TIP3   OH237521   3.468   3.931  12.842 -0.0264 -0.3914  0.7353
 5369TIP3    H137522   3.418   3.861  12.800  3.0618 -1.6615 -0.9043
 5369TIP3    H237523   3.511   3.889  12.916  1.5595 -0.1641 -0.0477
 5370TIP3   OH237524   6.782   4.134  13.421  0.1013  1.0545  0.1201
 5370TIP3    H137525   6.698   4.146  13.377 -0.4885  0.0887  0.9594
 5370TIP3    H237526   6.840   4.197  13.379 -0.5549  0.4397 -1.7307
 5371TIP3   OH237527   5.401   4.592  15.153  0.4939 -0.3632  0.9580
 5371TIP3    H137528   5.430   4.673  15.194  0.7391 -1.0328  2.1314
 5371TIP3    H237529   5.327   4.617  15.098  3.0042  1.3316 -1.8217
 5372TIP3   OH237530   3.006   4.212   3.871 -0.2234 -0.1816  0.1842
 5372TIP3    H137531   2.973   4.142   3.815  0.7465 -1.2520  0.9337
 5372TIP3    H237532   2.943   4.283   3.860 -0.9847 -1.0103 -0.9112
 5373TIP3   OH237533   4.886   4.490   5.257  0.6690 -0.1341  0.0040
 5373TIP3    H137534   4.814   4.530   5.208  0.7351  0.5346  0.4314
 5373TIP3    H237535   4.963   4.505   5.203  0.5741 -0.3665 -0.1974
 5374TIP3   OH237536   4.709   1.097  14.161 -0.1924  0.0035 -0.1392
 5374TIP3    H137537   4.637   1.159  14.168 -0.0781  0.1751 -0.4894
 5374TIP3    H237538   4.768   1.120  14.233 -0.8504 -0.6186  0.6186
 5375TIP3   OH237539   3.465   1.642  14.435  0.6657  0.2270 -0.2831
 5375TIP3    H137540   3.443   1.734  14.422  1.5335  0.5484  0.5013
 5375TIP3    H237541   3.543   1.628  14.382  0.3240 -0.1642 -0.6969
 5376TIP3   OH237542   1.671   2.244   2.683 -0.4514  0.3146 -0.2538
 5376TIP3    H137543   1.678   2.298   2.761 -4.4090  1.4398 -0.5494
 5376TIP3    H237544   1.745   2.271   2.628  0.9431  1.2610  2.0477
 5377TIP3   OH237545   6.597   0.429   2.865 -0.3549 -0.2704 -0.0201
 5377TIP3    H137546   6.530   0.479   2.911  0.0508  0.4239 -0.1741
 5377TIP3    H237547   6.680   0.468   2.894 -0.1102  0.6226 -1.8437
 5378TIP3   OH237548   1.382   0.862  15.680  0.0430 -0.0210  0.2293
 5378TIP3    H137549   1.292   0.893  15.689 -1.0266 -2.0505 -2.5408
 5378TIP3    H237550   1.434   0.942  15.669 -1.6140  1.1229  0.5306
 5379TIP3   OH237551   5.661   3.474   1.589  0.1920 -0.4922 -0.5046
 5379TIP3    H137552   5.750   3.475   1.624 -0.4100 -1.2651  1.0760
 5379TIP3    H237553   5.640   3.566   1.575  0.0847 -0.0718  2.1344
 5380TIP3   OH237554   3.233   1.836   1.057  0.4515 -0.0131  0.2421
 5380TIP3    H137555   3.252   1.876   0.972 -2.0000 -2.3992 -1.5080
 5380TIP3    H237556   3.153   1.879   1.086  0.3592 -0.3931  0.5434
 5381TIP3   OH237557   0.535   1.327   2.265  0.1250 -0.7982 -0.0390
 5381TIP3    H137558   0.479   1.298   2.336 -0.6833 -2.1239 -1.1901
 5381TIP3    H237559   0.487   1.398   2.223  0.5505 -0.0942  0.6441
 5382TIP3   OH237560   1.617   3.850  12.551 -0.5553  0.5316  0.0168
 5382TIP3    H137561   1.631   3.920  12.487 -0.6316 -0.3159 -0.9393
 5382TIP3    H237562   1.704   3.812  12.564 -0.0390  2.4232  2.4630
 5383TIP3   OH237563   1.424   3.079   2.887 -0.3196 -0.1452 -0.1353
 5383TIP3    H137564   1.399   3.087   2.979  0.0418  0.0178 -0.0518
 5383TIP3    H237565   1.366   3.141   2.842 -0.4877 -0.2162 -0.0176
 5384TIP3   OH237566   3.593   6.136  16.086  0.5922  0.0268  0.1515
 5384TIP3    H137567   3.617   6.085  16.164  1.6362  0.3735  0.0665
 5384TIP3    H237568   3.499   6.153  16.097  0.0340 -2.5658 -0.2072
 5385TIP3   OH237569   4.286   6.594   0.626  0.0072  0.5559 -0.2109
 5385TIP3    H137570   4.234   6.541   0.566  1.0143 -0.8517  0.1455
 5385TIP3    H237571   4.221   6.645   0.675 -0.8895  0.6682 -1.5003
 5386TIP3   OH237572   5.639   1.791  12.844  0.0778  0.2779 -0.1126
 5386TIP3    H137573   5.594   1.744  12.774  1.0608 -0.5898 -0.1747
 5386TIP3    H237574   5.652   1.880  12.809 -1.6882  0.5854 -0.0367
 5387TIP3   OH237575   5.180   3.556  15.063 -0.0281  0.3054 -0.0065
 5387TIP3    H137576   5.175   3.646  15.032 -1.1061  0.4108  0.4313
 5387TIP3    H237577   5.204   3.564  15.156 -1.9390  0.2464  0.5197
 5388TIP3   OH237578   0.702   4.675  17.114 -0.5472  0.3121  0.2922
 5388TIP3    H137579   0.757   4.716  17.048 -1.1528  0.1848 -0.2912
 5388TIP3    H237580   0.694   4.741  17.183 -0.1341  0.5388  0.1252
 5389TIP3   OH237581   6.762   2.032   6.360  0.4471 -0.2973 -0.4277
 5389TIP3    H137582   6.741   1.945   6.327  2.2561 -0.4215 -1.3516
 5389TIP3    H237583   6.682   2.083   6.349  0.1442 -1.1433 -2.3457
 5390TIP3   OH237584   0.130   5.254   0.485  0.2619  0.9984 -0.0360
 5390TIP3    H137585   0.130   5.172   0.435  0.4409  0.7180  0.4206
 5390TIP3    H237586   0.078   5.314   0.432 -0.0184  0.5337 -0.2909
 5391TIP3   OH237587   2.821   4.710   6.861  0.1581  0.5596  0.3247
 5391TIP3    H137588   2.729   4.699   6.884  0.1891 -1.6521 -0.5637
 5391TIP3    H237589   2.845   4.629   6.816  2.8268  0.6294  1.5192
 5392TIP3   OH237590   6.700   4.295   4.006  0.4444 -0.0359  0.4300
 5392TIP3    H137591   6.786   4.317   4.041  0.4137 -0.7715  0.9601
 5392TIP3    H237592   6.698   4.200   4.004 -0.9429 -0.0512  1.8922
 5393TIP3   OH237593   0.039   5.313  15.277 -0.3352  0.3456 -0.6725
 5393TIP3    H137594   0.003   5.400  15.293 -0.8897 -0.2334  1.3433
 5393TIP3    H237595   0.091   5.323  15.197  0.5882  2.8023  0.1954
 5394TIP3   OH237596   2.366   1.069   1.750  0.1571 -0.1845  0.4984
 5394TIP3    H137597   2.316   1.098   1.674  0.2513 -0.9216  0.1534
 5394TIP3    H237598   2.300   1.029   1.807  0.1474  0.0237  0.6343
 5395TIP3   OH237599   3.056   2.756   3.626  0.6345  0.6637 -0.0032
 5395TIP3    H137600   3.107   2.837   3.625  1.5511  0.0906  0.3978
 5395TIP3    H237601   3.097   2.701   3.559 -0.0656  0.5727 -0.3618
 5396TIP3   OH237602   0.656   3.707   1.932 -0.2104  0.1789 -0.0773
 5396TIP3    H137603   0.749   3.688   1.946 -0.6302 -1.7045  0.2930
 5396TIP3    H237604   0.654   3.798   1.902  1.6319  0.7282  1.3693
 5397TIP3   OH237605   3.390   2.506  12.252 -0.0619  0.4027 -0.5467
 5397TIP3    H137606   3.382   2.436  12.317  0.6872  0.5206 -0.3300
 5397TIP3    H237607   3.299   2.533  12.236 -0.3067 -0.1540 -0.1300
 5398TIP3   OH237608   0.914   6.189   5.514 -0.1332 -0.1541 -0.4598
 5398TIP3    H137609   0.836   6.187   5.460  1.1278  0.3554 -2.3617
 5398TIP3    H237610   0.945   6.098   5.515 -0.6197 -0.3133  0.0989
 5399TIP3   OH237611   2.494   0.832  12.058  0.1304  0.1454 -0.2733
 5399TIP3    H137612   2.515   0.752  12.107  0.3519  0.8764  0.8581
 5399TIP3    H237613   2.414   0.810  12.009  0.0195 -0.6739  0.2624
 5400TIP3   OH237614   5.711   6.043  11.566 -0.3364  0.3982  0.4944
 5400TIP3    H137615   5.686   5.962  11.610  0.8836 -0.7187 -0.7945
 5400TIP3    H237616   5.792   6.069  11.609 -0.2672  0.4500  0.3338
 5401TIP3   OH237617   6.344   5.252  15.642  0.2475 -0.2000 -0.4738
 5401TIP3    H137618   6.348   5.247  15.738  2.7488  3.3389 -0.3150
 5401TIP3    H237619   6.382   5.169  15.613 -0.4264 -1.2698  1.5731
 5402TIP3   OH237620   6.401   2.383  15.276  0.1711 -0.0150  0.2088
 5402TIP3    H137621   6.381   2.465  15.230 -0.9213 -0.5298 -0.2446
 5402TIP3    H237622   6.441   2.411  15.358  0.3765  0.9602 -0.2176
 5403TIP3   OH237623   4.760   1.112   1.724 -0.5772 -0.0283  0.0378
 5403TIP3    H137624   4.813   1.049   1.676 -1.5631  0.1464 -1.3400
 5403TIP3    H237625   4.697   1.144   1.659 -1.3189  0.9492  1.2111
 5404TIP3   OH237626   3.392   3.702  15.861  0.0432 -0.2202 -0.2681
 5404TIP3    H137627   3.301   3.696  15.891 -0.0717  1.4350 -0.2006
 5404TIP3    H237628   3.443   3.711  15.942  0.2174 -0.6642 -0.3299
 5405TIP3   OH237629   1.741   4.602  14.884 -0.2254  0.3460 -0.4361
 5405TIP3    H137630   1.708   4.690  14.896 -1.2217  0.1090 -1.3776
 5405TIP3    H237631   1.670   4.545  14.913 -0.6313 -0.1631 -2.3454
 5406TIP3   OH237632   3.176   4.495  12.890 -0.2213 -0.0719  0.0341
 5406TIP3    H137633   3.160   4.416  12.942  1.4278 -0.7400 -0.4450
 5406TIP3    H237634   3.177   4.464  12.800 -0.3312  0.6328 -0.2080
 5407TIP3   OH237635   1.405   5.913   2.600  0.1773  0.3689 -0.3733
 5407TIP3    H137636   1.402   5.818   2.613  1.3938  0.2422 -0.9848
 5407TIP3    H237637   1.350   5.948   2.669  0.2164 -0.7524  0.2382
 5408TIP3   OH237638   1.474   2.580  15.486  0.1886 -0.1392 -0.5738
 5408TIP3    H137639   1.502   2.644  15.420  2.1735  0.1430  0.5044
 5408TIP3    H237640   1.537   2.509  15.478  1.5361  0.6702  2.1727
 5409TIP3   OH237641   4.712   5.295  10.735  0.2357 -0.6849 -0.2949
 5409TIP3    H137642   4.649   5.286  10.806  0.1752 -0.0893 -0.2676
 5409TIP3    H237643   4.671   5.357  10.674  1.6440  1.2753  0.6906
 5410TIP3   OH237644   2.975   1.014   2.447  0.2443 -0.0626 -0.4087
 5410TIP3    H137645   3.013   0.927   2.438 -2.7095 -1.3512 -1.1355
 5410TIP3    H237646   2.898   1.012   2.391 -1.1424  2.2842  1.3235
 5411TIP3   OH237647   0.429   4.108  12.214 -0.3149 -0.2219  0.8100
 5411TIP3    H137648   0.477   4.154  12.282 -0.8329  1.6089 -0.0384
 5411TIP3    H237649   0.339   4.139  12.223 -0.5993 -0.7905 -0.0179
 5412TIP3   OH237650   5.974   2.447   0.213 -0.5936 -0.1286 -0.4452
 5412TIP3    H137651   5.963   2.488   0.128 -0.7102 -1.7693 -1.2235
 5412TIP3    H237652   6.008   2.359   0.194  3.1849  0.8018  1.3400
 5413TIP3   OH237653   3.270   0.249   2.112  0.1796 -0.2202  0.1961
 5413TIP3    H137654   3.249   0.314   2.045  0.4554  0.0996  0.4158
 5413TIP3    H237655   3.196   0.253   2.172  0.6756  0.6340  0.7641
 5414TIP3   OH237656   3.732   3.513   3.741  0.2034  0.2745 -0.5018
 5414TIP3    H137657   3.740   3.468   3.825 -0.9699  0.5032 -0.2648
 5414TIP3    H237658   3.728   3.606   3.763 -0.2154  0.3295 -0.7942
 5415TIP3   OH237659   1.436   5.188  10.801  0.3717 -0.2962 -0.1088
 5415TIP3    H137660   1.375   5.207  10.873 -0.6143 -2.0260 -0.4720
 5415TIP3    H237661   1.522   5.213  10.836 -0.4306  1.4402  0.6909
 5416TIP3   OH237662   3.278   4.555   3.837  0.4470  0.3616 -0.0699
 5416TIP3    H137663   3.303   4.573   3.927  1.4374 -2.5660  0.3185
 5416TIP3    H237664   3.339   4.606   3.783  2.3851 -0.8692  0.9190
 5417TIP3   OH237665   4.386   4.240   1.076  0.3534 -0.0149  0.1706
 5417TIP3    H137666   4.383   4.330   1.043 -0.6951 -0.6479 -1.5454
 5417TIP3    H237667   4.349   4.188   1.005  0.8416 -1.7938  1.1974
 5418TIP3   OH237668   3.688   2.120  15.186  0.1540 -0.3617  0.6433
 5418TIP3    H137669   3.726   2.135  15.099  1.6003 -3.0170  0.7863
 5418TIP3    H237670   3.675   2.209  15.221  0.2438  0.7313 -1.9511
 5419TIP3   OH237671   0.746   3.305  15.837  0.1029 -0.1474  0.0778
 5419TIP3    H137672   0.778   3.268  15.918 -1.0836 -0.4553  0.4106
 5419TIP3    H237673   0.824   3.315  15.782  0.7681 -0.7966  0.9064
 5420TIP3   OH237674   0.640   0.370  11.043 -0.2231 -0.0227  0.2081
 5420TIP3    H137675   0.593   0.293  11.010  0.1339 -0.2022  0.1166
 5420TIP3    H237676   0.644   0.429  10.968 -0.9923  0.3248  0.4326
 5421TIP3   OH237677   3.774   5.739   0.427 -0.2206 -0.3277  0.3120
 5421TIP3    H137678   3.856   5.788   0.420 -0.1397 -0.2276  1.8858
 5421TIP3    H237679   3.778   5.697   0.512 -0.6612 -2.4306 -0.6743
 5422TIP3   OH237680   5.187   6.609   4.327  0.3435  0.8201  0.2058
 5422TIP3    H137681   5.107   6.658   4.309  0.9367  1.9252  0.5381
 5422TIP3    H237682   5.156   6.528   4.368 -0.5434  1.6916  1.2788
 5423TIP3   OH237683   3.488   3.462  16.316 -0.1991  0.3589  0.4073
 5423TIP3    H137684   3.424   3.532  16.323 -1.7418 -1.1824  2.4006
 5423TIP3    H237685   3.487   3.419  16.402  1.1061 -1.7536 -0.5692
 5424TIP3   OH237686   4.306   4.926  12.816  0.0976 -0.0864  0.1235
 5424TIP3    H137687   4.310   5.003  12.873 -2.2731 -0.2477  0.5689
 5424TIP3    H237688   4.260   4.957  12.738  0.5086 -0.6671 -0.3484
 5425TIP3   OH237689   1.514   1.145   2.442  0.2111  0.9054 -0.3134
 5425TIP3    H137690   1.428   1.115   2.472  0.0510  1.8967  0.2322
 5425TIP3    H237691   1.495   1.208   2.372  0.5612 -0.6921 -1.8776
 5426TIP3   OH237692   4.474   6.715  12.624 -0.3930 -0.0962 -0.5746
 5426TIP3    H137693   4.447   6.802  12.596  1.2724  0.6041 -0.0775
 5426TIP3    H237694   4.471   6.718  12.720  1.8456  0.1775 -0.4783
 5427TIP3   OH237695   4.195   5.470  12.861 -0.1398  0.1274 -0.1808
 5427TIP3    H137696   4.268   5.408  12.859  1.4091  1.9247 -1.7700
 5427TIP3    H237697   4.218   5.536  12.796 -2.8965  1.0928 -0.2487
 5428TIP3   OH237698   0.462   2.336   6.330 -0.3038 -0.3816 -0.0553
 5428TIP3    H137699   0.551   2.366   6.349 -0.4729 -0.5107  0.9334
 5428TIP3    H237700   0.407   2.412   6.346 -0.4120 -0.4001 -0.3381
 5429TIP3   OH237701   3.282   1.519   5.281  0.0577 -0.0630 -0.2048
 5429TIP3    H137702   3.332   1.601   5.274  2.2947 -1.3128  0.9393
 5429TIP3    H237703   3.218   1.536   5.350  1.3943  0.2854  0.9624
 5430TIP3   OH237704   6.667   1.259   0.242 -0.1548 -0.0783 -0.1829
 5430TIP3    H137705   6.662   1.170   0.277 -0.4855 -0.3777 -0.9991
 5430TIP3    H237706   6.616   1.256   0.161 -0.3400  0.9060 -0.1046
 5431TIP3   OH237707   3.517   6.658   3.994 -0.2168 -0.1023 -0.9849
 5431TIP3    H137708   3.515   6.653   4.089 -0.5568  0.1037 -0.9798
 5431TIP3    H237709   3.455   6.727   3.972  1.0037  0.9259 -1.2869
 5432TIP3   OH237710   1.985   6.536   5.449 -0.0638 -0.4358 -0.3143
 5432TIP3    H137711   2.024   6.535   5.537 -0.3271  0.9878 -0.1734
 5432TIP3    H237712   1.891   6.547   5.465 -0.3186 -1.8682 -0.7289
 5433TIP3   OH237713   1.361   1.104   0.391 -0.3137  0.1087  0.5146
 5433TIP3    H137714   1.448   1.143   0.381 -0.3862 -0.0245 -0.6875
 5433TIP3    H237715   1.335   1.081   0.302 -0.4702 -2.2494  1.1519
 5434TIP3   OH237716   3.741   3.180   0.476 -0.1426 -0.1375  0.4235
 5434TIP3    H137717   3.781   3.094   0.491  0.2848 -0.0016  0.0846
 5434TIP3    H237718   3.648   3.162   0.465  0.1110 -0.6931 -0.8550
 5435TIP3   OH237719   3.270   3.410   6.109 -0.0842  0.1977  0.1469
 5435TIP3    H137720   3.197   3.402   6.048 -0.0833 -0.1115  0.1837
 5435TIP3    H237721   3.272   3.502   6.134 -0.0524  0.3325 -0.3608
 5436TIP3   OH237722   1.886   0.693  13.294  0.1884 -0.3427  0.3584
 5436TIP3    H137723   1.866   0.601  13.310  0.5692 -0.0594  2.6512
 5436TIP3    H237724   1.821   0.721  13.231 -0.7169 -1.8762  0.5823
 5437TIP3   OH237725   1.464   3.869  13.759  0.1038  0.2221 -0.2329
 5437TIP3    H137726   1.435   3.957  13.783 -0.3235 -0.1195  0.4853
 5437TIP3    H237727   1.451   3.865  13.664  1.5547  1.4732 -0.5118
 5438TIP3   OH237728   2.766   1.030   3.698 -0.4004  0.0472 -0.6154
 5438TIP3    H137729   2.756   1.121   3.727  2.8459  0.6959 -1.3660
 5438TIP3    H237730   2.830   1.035   3.627  2.6138 -3.2689  1.7568
 5439TIP3   OH237731   6.064   0.262   1.891  0.4134 -0.4459 -0.6040
 5439TIP3    H137732   6.145   0.281   1.843  0.7438 -0.3717 -0.0262
 5439TIP3    H237733   6.083   0.181   1.938  0.4273 -0.0096  0.1441
 5440TIP3   OH237734   0.078   4.611   3.991 -0.0049  0.0235  0.4044
 5440TIP3    H137735   0.078   4.586   3.898  1.6843  0.8511  0.1660
 5440TIP3    H237736   0.065   4.529   4.038 -1.4040 -0.3332 -0.5698
 5441TIP3   OH237737   5.803   1.149   0.234 -0.4061 -0.4049 -0.5354
 5441TIP3    H137738   5.729   1.128   0.290 -0.4331  0.5938 -0.1885
 5441TIP3    H237739   5.784   1.105   0.151 -1.6711  0.3056 -0.6407
 5442TIP3   OH237740   4.944   6.052   1.509 -0.2731  0.0578  0.4010
 5442TIP3    H137741   5.019   6.095   1.467 -1.1061  1.5038  0.3423
 5442TIP3    H237742   4.957   6.069   1.602 -0.3665  0.0696  0.4118
 5443TIP3   OH237743   2.173   2.400  12.054 -0.3772 -1.1863 -0.2961
 5443TIP3    H137744   2.228   2.324  12.073  1.7317  0.0800 -1.0937
 5443TIP3    H237745   2.200   2.427  11.966  0.0713  1.4184  0.5832
 5444TIP3   OH237746   4.523   5.889   2.592  0.7947 -0.1779  0.1489
 5444TIP3    H137747   4.499   5.978   2.618  4.5429  1.2598 -0.9776
 5444TIP3    H237748   4.510   5.888   2.497  0.8198 -0.8521  0.1492
 5445TIP3   OH237749   5.743   0.969   1.733  0.1037 -0.3409 -0.3681
 5445TIP3    H137750   5.700   0.912   1.797  1.3895 -0.1919  0.6323
 5445TIP3    H237751   5.768   0.911   1.662 -0.1811 -0.7167 -0.1649
 5446TIP3   OH237752   2.085   0.227  12.065  0.0818  0.6113  0.3626
 5446TIP3    H137753   2.016   0.208  12.002  0.6277  0.2255 -0.1141
 5446TIP3    H237754   2.084   0.153  12.126  0.5755  0.2414 -0.0795
 5447TIP3   OH237755   6.503   0.774   1.811 -0.5643 -0.4012  0.1621
 5447TIP3    H137756   6.448   0.707   1.850 -1.6916  0.4843  0.1150
 5447TIP3    H237757   6.461   0.857   1.833  1.1771  0.3452  0.8040
 5448TIP3   OH237758   5.427   1.910   1.134  0.5247  0.2517  0.5158
 5448TIP3    H137759   5.498   1.889   1.195  0.8462 -1.7021 -0.4794
 5448TIP3    H237760   5.366   1.837   1.143 -0.7486  1.2991  0.4558
 5449TIP3   OH237761   3.966   4.051   3.827 -0.4939 -0.3524 -0.4095
 5449TIP3    H137762   3.909   4.127   3.837  0.8446  0.7501 -0.9306
 5449TIP3    H237763   3.926   3.983   3.881 -0.5794  1.3626  1.7259
 5450TIP3   OH237764   4.377   4.785   0.950 -0.0473 -0.1935 -0.4654
 5450TIP3    H137765   4.341   4.696   0.951 -1.9732  0.5520 -1.1880
 5450TIP3    H237766   4.470   4.773   0.933 -0.5114 -1.9966 -1.8634
 5451TIP3   OH237767   4.166   2.504  15.293  0.0227 -0.1573  0.4337
 5451TIP3    H137768   4.105   2.567  15.255 -0.4258 -0.4750  0.6308
 5451TIP3    H237769   4.250   2.550  15.292  0.1194 -0.3361 -1.3733
 5452TIP3   OH237770   6.495   5.086  17.109 -0.3094 -0.5543 -0.4225
 5452TIP3    H137771   6.426   5.152  17.117 -0.4709 -0.5063 -2.1215
 5452TIP3    H237772   6.450   5.009  17.075  0.2217 -0.9684 -0.1976
 5453TIP3   OH237773   3.072   4.307  14.620 -0.3717  0.2211  0.0796
 5453TIP3    H137774   3.091   4.219  14.654 -0.9042  0.0348 -0.1014
 5453TIP3    H237775   3.058   4.360  14.699  1.5857  0.5227  0.2297
 5454TIP3   OH237776   6.382   6.540  14.566  0.6174 -0.0099  0.0475
 5454TIP3    H137777   6.328   6.463  14.583  0.3040  0.3938  0.9155
 5454TIP3    H237778   6.345   6.578  14.486 -1.3253  1.0832  1.4230
 5455TIP3   OH237779   4.972   3.613  14.508  0.3996 -0.6188 -0.6390
 5455TIP3    H137780   5.051   3.656  14.541 -1.0557  0.2266  1.8646
 5455TIP3    H237781   4.980   3.522  14.539  0.2354 -0.4601 -0.1365
 5456TIP3   OH237782   5.232   1.389  12.295 -0.0584  0.6585  0.5425
 5456TIP3    H137783   5.144   1.385  12.331 -0.6974  0.0367 -1.0162
 5456TIP3    H237784   5.260   1.297  12.288  0.4996  0.8238  0.5460
 5457TIP3   OH237785   2.020   4.631  16.584  0.0725  0.2221  0.0632
 5457TIP3    H137786   1.937   4.677  16.596 -0.0300 -0.0580  0.4464
 5457TIP3    H237787   2.013   4.591  16.497  0.8662  2.3663 -1.0259
 5458TIP3   OH237788   3.595   5.052   6.272  0.2011  0.9098 -0.3509
 5458TIP3    H137789   3.566   5.134   6.231 -3.6803 -0.3253 -0.1996
 5458TIP3    H237790   3.543   5.045   6.352  2.0326 -0.7029  0.7534
 5459TIP3   OH237791   6.466   1.913  17.143  0.0983 -0.3845  0.0623
 5459TIP3    H137792   6.374   1.889  17.147 -0.2845  1.0183  0.0981
 5459TIP3    H237793   6.512   1.839  17.182 -1.0856 -0.6987  0.9001
 5460TIP3   OH237794   3.669   3.803   1.974  0.5070 -0.4803  0.6148
 5460TIP3    H137795   3.747   3.859   1.975  0.3108 -0.1688 -0.4798
 5460TIP3    H237796   3.626   3.821   2.057  1.6127 -0.6697  1.2395
 5461TIP3   OH237797   0.674   6.107   1.369 -0.2838 -0.2020  0.1572
 5461TIP3    H137798   0.712   6.144   1.449 -0.4399 -0.7225  0.4742
 5461TIP3    H237799   0.738   6.041   1.341 -0.2592 -0.0616 -0.1127
 5462TIP3   OH237800   3.335   3.341  12.772 -0.0900  0.3685 -0.0625
 5462TIP3    H137801   3.399   3.411  12.757  0.7418 -0.2580  0.5171
 5462TIP3    H237802   3.349   3.280  12.700 -0.4906  0.5504 -0.2997
 5463TIP3   OH237803   5.893   2.587   0.887 -0.4507 -0.9966  0.0623
 5463TIP3    H137804   5.963   2.543   0.936  1.0490  2.1551  0.8876
 5463TIP3    H237805   5.938   2.658   0.841 -3.2425  1.8436  1.5356
 5464TIP3   OH237806   0.595   5.089  13.188 -0.3795 -0.0477 -0.0171
 5464TIP3    H137807   0.609   5.020  13.252 -0.5939 -1.0738 -1.0624
 5464TIP3    H237808   0.500   5.095  13.179 -0.3754  0.7107  0.4190
 5465TIP3   OH237809   2.497   1.730  12.322 -0.0893  0.3735  0.0998
 5465TIP3    H137810   2.538   1.644  12.323  0.3130  0.5708  0.9991
 5465TIP3    H237811   2.513   1.763  12.233  3.0517  1.0675  0.8388
 5466TIP3   OH237812   0.749   5.465  15.499  0.3550 -0.5473  0.1190
 5466TIP3    H137813   0.710   5.521  15.431  1.0671 -0.7439 -0.4554
 5466TIP3    H237814   0.678   5.449  15.560  0.0277  0.6449  0.0631
 5467TIP3   OH237815   5.915   0.117   3.546 -0.1988  0.6240  0.1658
 5467TIP3    H137816   5.879   0.206   3.541 -0.3784  0.4477 -2.1860
 5467TIP3    H237817   5.988   0.117   3.483  1.1675 -0.2951  1.6973
 5468TIP3   OH237818   3.274   2.834   0.269  0.1143 -0.0836  0.4916
 5468TIP3    H137819   3.187   2.831   0.229 -0.9301  4.8583  2.1361
 5468TIP3    H237820   3.260   2.807   0.360  0.4951 -0.0987  0.5498
 5469TIP3   OH237821   3.492   0.177  15.578 -0.1731 -0.3998  0.5384
 5469TIP3    H137822   3.416   0.227  15.548 -0.2353 -1.3936 -0.9614
 5469TIP3    H237823   3.532   0.234  15.644 -1.7385  0.4920  0.7545
 5470TIP3   OH237824   1.142   6.400   2.397  0.4497 -0.1706 -0.1711
 5470TIP3    H137825   1.214   6.406   2.460 -0.7133 -0.4182  1.2092
 5470TIP3    H237826   1.112   6.490   2.387 -0.9459 -0.4273  1.5248
 5471TIP3   OH237827   2.904   2.269  15.532  0.3001 -0.0221  0.1108
 5471TIP3    H137828   2.821   2.314  15.549 -0.0525 -0.7740  0.3992
 5471TIP3    H237829   2.921   2.284  15.439 -0.8796 -1.0401 -0.2972
 5472TIP3   OH237830   2.820   6.685   5.602 -0.2975  0.2099  0.5479
 5472TIP3    H137831   2.859   6.733   5.529 -1.2017  1.6014  0.9702
 5472TIP3    H237832   2.790   6.603   5.563 -1.7349  1.3955 -0.8941
 5473TIP3   OH237833   4.079   0.033  13.959 -0.3440 -0.3670  0.3554
 5473TIP3    H137834   4.152   0.092  13.941 -0.7592 -0.2395 -0.9101
 5473TIP3    H237835   4.114  -0.029  14.024  2.0416 -2.4894 -2.7771
 5474TIP3   OH237836   6.183   4.936   3.089 -0.2121 -0.1688 -0.0372
 5474TIP3    H137837   6.097   4.966   3.059  0.6120  2.0591 -0.2328
 5474TIP3    H237838   6.177   4.938   3.184 -0.3708  0.0046 -0.0498
 5475TIP3   OH237839   1.389   6.442   5.112  0.9828 -0.3155 -0.4024
 5475TIP3    H137840   1.484   6.438   5.099  1.0620 -1.0991  0.3793
 5475TIP3    H237841   1.379   6.471   5.203  0.4692 -0.7173 -0.3324
 5476TIP3   OH237842   1.293   4.907   5.968 -0.0237  0.3328  0.4852
 5476TIP3    H137843   1.377   4.866   5.949 -0.2726 -0.1065  0.3105
 5476TIP3    H237844   1.282   4.972   5.898 -1.0097 -1.3918 -1.0361
 5477TIP3   OH237845   1.801   1.905  12.552 -0.4247  0.2355  0.4350
 5477TIP3    H137846   1.828   1.856  12.630 -0.5690 -0.6096 -0.0507
 5477TIP3    H237847   1.764   1.986  12.588  1.6318  0.8910  1.1573
 5478TIP3   OH237848   4.346   2.885   5.915 -0.1069  0.2898 -0.3766
 5478TIP3    H137849   4.407   2.888   5.842 -0.3952 -0.8934 -0.6709
 5478TIP3    H237850   4.395   2.922   5.989  0.8562 -0.3553 -0.6827
 5479TIP3   OH237851   4.282   3.795   1.485  0.5891  0.1596 -0.1033
 5479TIP3    H137852   4.219   3.836   1.426  0.0582 -0.3334  0.1216
 5479TIP3    H237853   4.286   3.704   1.455  1.5945  0.3107 -0.4593
 5480TIP3   OH237854   2.646   4.528   1.389 -0.5997  0.2797  0.3487
 5480TIP3    H137855   2.660   4.576   1.471 -0.2874  1.3226 -0.3076
 5480TIP3    H237856   2.707   4.568   1.327 -2.2124  0.7994 -0.9259
 5481TIP3   OH237857   0.628   1.109   1.721  0.0143 -0.1824 -0.1908
 5481TIP3    H137858   0.587   1.022   1.713 -0.4194  0.0782 -0.8612
 5481TIP3    H237859   0.554   1.169   1.726  0.3155  0.1388  0.4309
 5482TIP3   OH237860   0.077   5.328   5.933  0.6049 -0.3233 -0.4006
 5482TIP3    H137861   0.151   5.380   5.901 -0.5591  1.7702  0.2158
 5482TIP3    H237862   0.054   5.272   5.859  1.3732  0.6465 -1.4005
 5483TIP3   OH237863   4.009   1.518   3.468 -0.6257 -0.0575 -0.4712
 5483TIP3    H137864   4.036   1.567   3.546 -1.7389  0.1107 -0.1818
 5483TIP3    H237865   4.062   1.555   3.397  0.1088  0.0603  0.1313
 5484TIP3   OH237866   6.254   0.974   0.901 -0.3725  0.1557  0.5310
 5484TIP3    H137867   6.194   0.921   0.953 -0.5391 -1.3457 -1.1301
 5484TIP3    H237868   6.307   0.910   0.853  1.2214  1.4811  0.4756
 5485TIP3   OH237869   3.090   4.072   4.500  0.4590 -0.5301 -0.0831
 5485TIP3    H137870   3.059   4.151   4.546 -1.3038 -2.8458  2.9273
 5485TIP3    H237871   3.062   4.085   4.410 -1.8248  1.3282  0.8106
 5486TIP3   OH237872   2.953   1.395   3.977  0.4836  0.1142  0.1595
 5486TIP3    H137873   3.018   1.326   3.989  0.4741  0.0478 -0.1943
 5486TIP3    H237874   3.005   1.476   3.982  0.5158  0.0805  0.4173
 5487TIP3   OH237875   1.740   2.574  15.891  0.4144 -0.3947  0.4848
 5487TIP3    H137876   1.685   2.545  15.818 -0.2866 -1.2237  1.3357
 5487TIP3    H237877   1.820   2.521  15.884 -0.3675 -1.7263  1.3247
 5488TIP3   OH237878   1.063   5.353  13.535 -1.1143  0.5462 -0.3009
 5488TIP3    H137879   1.071   5.333  13.442  0.3482  0.0422 -0.0838
 5488TIP3    H237880   1.060   5.449  13.539  1.0003  0.6659 -0.7466
 5489TIP3   OH237881   4.303   2.570   4.562 -0.0768 -0.0549 -0.0417
 5489TIP3    H137882   4.360   2.571   4.486  0.6193 -0.5925  0.4592
 5489TIP3    H237883   4.337   2.639   4.619  1.1129 -1.4373  0.9801
 5490TIP3   OH237884   4.047   5.913   2.563  0.1365 -0.1704 -0.6523
 5490TIP3    H137885   4.102   5.850   2.609 -0.6338  0.5060  1.2217
 5490TIP3    H237886   3.961   5.870   2.556 -1.1356  1.5883  2.9073
 5491TIP3   OH237887   0.436   4.134  15.084  0.0357 -0.1012 -0.2647
 5491TIP3    H137888   0.529   4.157  15.082 -0.5373  2.5819  0.9093
 5491TIP3    H237889   0.427   4.079  15.162  0.3472  1.2436  0.7473
 5492TIP3   OH237890   1.009   0.959  15.453 -0.0015 -0.2814 -0.0065
 5492TIP3    H137891   1.047   0.980  15.368  0.2785 -0.6953  0.0143
 5492TIP3    H237892   0.928   0.912  15.432 -1.1470  1.6613 -0.0623
 5493TIP3   OH237893   6.749   1.908  12.056 -0.0839 -0.2643  0.0899
 5493TIP3    H137894   6.821   1.847  12.071 -1.2560 -1.8001 -0.3873
 5493TIP3    H237895   6.670   1.859  12.078 -1.0322  1.2252  0.1074
 5494TIP3   OH237896   0.329   2.735   4.004  0.8468 -0.0504 -0.1939
 5494TIP3    H137897   0.399   2.753   3.942  1.8016  2.8397  1.6417
 5494TIP3    H237898   0.372   2.695   4.079  0.3795  0.7294  0.4982
 5495TIP3   OH237899   5.303   3.968   4.357  0.2430  0.6683  0.0183
 5495TIP3    H137900   5.278   4.016   4.436  0.1241 -0.5324  0.7191
 5495TIP3    H237901   5.394   3.942   4.373 -0.1637 -0.6313  0.3012
 5496TIP3   OH237902   1.838   0.575   1.277  0.4486  0.5749 -0.0217
 5496TIP3    H137903   1.819   0.567   1.371 -1.3539  3.4402 -0.0512
 5496TIP3    H237904   1.815   0.666   1.257 -1.5922 -0.6906 -3.7739
 5497TIP3   OH237905   4.161   2.299  10.515 -0.0504  0.1268 -0.4365
 5497TIP3    H137906   4.138   2.297  10.608  1.2688  0.1585 -0.1066
 5497TIP3    H237907   4.225   2.229  10.505 -1.0667 -0.6548 -1.5711
 5498TIP3   OH237908   0.209   4.773  11.570 -0.4187  0.4792  0.3173
 5498TIP3    H137909   0.217   4.791  11.477 -1.8773 -1.4794 -0.2188
 5498TIP3    H237910   0.186   4.857  11.609 -3.5213  0.6023 -1.6196
 5499TIP3   OH237911   4.088   0.400   2.893  0.0535  0.5889 -0.8059
 5499TIP3    H137912   4.091   0.485   2.848 -1.6498  0.8485 -0.4322
 5499TIP3    H237913   3.996   0.385   2.912  0.5628 -0.3281  1.0947
 5500TIP3   OH237914   5.902   1.888  11.502 -0.1462  0.1567  0.3170
 5500TIP3    H137915   5.847   1.875  11.425  1.1593  1.0662 -0.7782
 5500TIP3    H237916   5.951   1.806  11.511  0.8143  0.6166 -0.7180
 5501TIP3   OH237917   3.927   4.085   3.381 -0.1147 -0.7776 -0.1254
 5501TIP3    H137918   4.012   4.085   3.426  0.0907  0.5804 -0.5097
 5501TIP3    H237919   3.928   4.163   3.326 -2.1453 -0.0053  0.8629
 5502TIP3   OH237920   6.311   5.159  12.770  0.2372 -0.9935 -0.1965
 5502TIP3    H137921   6.229   5.111  12.772 -0.6286  0.3845  4.4256
 5502TIP3    H237922   6.375   5.097  12.806 -0.0446 -0.1362  1.8439
 5503TIP3   OH237923   1.604   3.041  16.302  0.3115  0.1396 -0.1619
 5503TIP3    H137924   1.687   3.064  16.344  0.0206  0.4724  0.2367
 5503TIP3    H237925   1.558   3.125  16.294 -1.3522 -0.4437  2.5477
 5504TIP3   OH237926   1.349   6.180  14.476  0.7534  0.5798 -0.4412
 5504TIP3    H137927   1.345   6.235  14.398  1.3682  0.3450 -0.6404
 5504TIP3    H237928   1.427   6.127  14.464  0.7962  0.4722  0.2907
 5505TIP3   OH237929   1.722   3.091  13.386  0.2047  0.2828 -0.2137
 5505TIP3    H137930   1.717   3.152  13.313 -0.4271  0.1087 -0.3252
 5505TIP3    H237931   1.808   3.106  13.425  1.1815 -0.7073 -1.9257
 5506TIP3   OH237932   5.589   5.871   0.929 -0.8183 -0.0706  0.0529
 5506TIP3    H137933   5.661   5.820   0.893  0.7010  2.6100 -0.8911
 5506TIP3    H237934   5.532   5.888   0.854 -0.6805  0.5897  0.0899
 5507TIP3   OH237935   5.045   6.567   4.965 -0.1999 -0.2540  0.0365
 5507TIP3    H137936   4.957   6.539   4.992  0.2458 -1.5471  0.1737
 5507TIP3    H237937   5.090   6.588   5.046  0.0200 -0.8240  0.0693
 5508TIP3   OH237938   0.682   1.177   5.034  0.9022 -0.1377  0.4780
 5508TIP3    H137939   0.643   1.180   4.946 -1.2434  0.0538  1.4168
 5508TIP3    H237940   0.650   1.095   5.072 -0.8015  1.2843  2.2280
 5509TIP3   OH237941   3.016   6.071  11.932  0.0991  0.3293  0.1139
 5509TIP3    H137942   3.107   6.100  11.930 -0.0321  0.7198 -0.2411
 5509TIP3    H237943   3.022   5.976  11.934  0.5261  0.3679  0.9455
 5510TIP3   OH237944   3.325   5.644  13.898  0.0262 -0.5075  0.0844
 5510TIP3    H137945   3.394   5.709  13.908  0.5020 -0.8105 -1.1285
 5510TIP3    H237946   3.290   5.660  13.810 -1.6888 -0.1235  0.8123
 5511TIP3   OH237947   2.460   0.769   4.266 -0.0724  0.2739 -0.0808
 5511TIP3    H137948   2.422   0.747   4.351 -0.2141 -1.7031 -0.6323
 5511TIP3    H237949   2.543   0.721   4.265 -1.6268 -2.5276 -2.4193
 5512TIP3   OH237950   3.764   4.743  14.858  0.3199  0.1960  0.0314
 5512TIP3    H137951   3.808   4.735  14.943  0.2241 -1.7207 -0.0680
 5512TIP3    H237952   3.829   4.783  14.800  1.9110 -2.4101 -0.0626
 5513TIP3   OH237953   5.065   4.059   3.531 -0.7582 -0.1322 -0.1070
 5513TIP3    H137954   5.122   3.984   3.515 -1.0557 -0.1543 -1.0465
 5513TIP3    H237955   5.098   4.097   3.613 -1.2282 -1.8587  0.8891
 5514TIP3   OH237956   1.808   0.289   5.729  0.1869  0.2450  0.4192
 5514TIP3    H137957   1.832   0.363   5.785 -1.3531  0.7305  0.4498
 5514TIP3    H237958   1.810   0.214   5.789  1.5801  0.2617  0.4239
 5515TIP3   OH237959   6.779   1.676  11.452 -0.6144  0.1365  0.1571
 5515TIP3    H137960   6.784   1.580  11.448  1.0839  0.1771  0.9801
 5515TIP3    H237961   6.836   1.706  11.382  1.5313  0.5395  2.0075
 5516TIP3   OH237962   3.710   3.920  14.958 -0.5939  0.5138 -0.2427
 5516TIP3    H137963   3.785   3.942  14.903 -0.7550 -0.1972 -0.7442
 5516TIP3    H237964   3.634   3.951  14.908 -0.7343 -0.0555 -0.3835
 5517TIP3   OH237965   2.968   1.327  13.901 -0.0230 -0.4335 -0.0372
 5517TIP3    H137966   3.029   1.289  13.964  1.0239  0.2755 -0.6183
 5517TIP3    H237967   2.900   1.260  13.891 -0.5318 -0.3019  2.2940
 5518TIP3   OH237968   1.945   1.308   2.932 -0.4901 -0.5018 -0.1383
 5518TIP3    H137969   1.970   1.386   2.883  1.1605 -1.3192 -0.6076
 5518TIP3    H237970   1.986   1.319   3.018  0.9293 -1.5213 -0.6802
 5519TIP3   OH237971   1.314   1.365  12.835 -0.3641 -0.3048 -0.0142
 5519TIP3    H137972   1.284   1.283  12.794  1.3987  0.6565 -3.4516
 5519TIP3    H237973   1.404   1.376  12.802  0.3460  1.7184  2.4498
 5520TIP3   OH237974   4.449   2.452   2.907  0.3866  0.0873 -0.0463
 5520TIP3    H137975   4.410   2.510   2.972 -1.7496 -1.4646  0.1193
 5520TIP3    H237976   4.449   2.503   2.826  0.1689  0.9134  0.4641
 5521TIP3   OH237977   4.205   2.451  14.827 -0.5825 -0.1383  0.4839
 5521TIP3    H137978   4.235   2.363  14.806 -1.3319 -0.5090  0.9439
 5521TIP3    H237979   4.109   2.444  14.831 -0.6147  0.5418  1.1769
 5522TIP3   OH237980   6.178   0.949   3.442 -0.1244  0.3674  0.3513
 5522TIP3    H137981   6.208   0.874   3.494 -1.5972  0.0956  0.8152
 5522TIP3    H237982   6.259   0.994   3.417  0.7658 -1.1700  0.3635
 5523TIP3   OH237983   2.242   6.261  13.193 -0.0361  0.0075  0.5631
 5523TIP3    H137984   2.151   6.254  13.165  0.1729 -0.3338 -0.0401
 5523TIP3    H237985   2.263   6.176  13.231  1.0038 -1.0654 -2.2663
 5524TIP3   OH237986   2.915   1.163  12.982  0.0519 -0.5119  0.0442
 5524TIP3    H137987   2.990   1.201  13.029 -0.9871  1.3958  0.2325
 5524TIP3    H237988   2.840   1.216  13.010 -1.2398 -1.8800 -0.7634
 5525TIP3   OH237989   2.038   5.636   6.602 -0.5130  0.4070  0.2613
 5525TIP3    H137990   2.047   5.698   6.674 -0.2313  0.2036  0.4053
 5525TIP3    H237991   2.091   5.561   6.629  0.8052  0.9186 -0.8051
 5526TIP3   OH237992   6.175   3.477  12.695  0.2563  0.0586 -0.0886
 5526TIP3    H137993   6.251   3.488  12.753  1.9323 -1.3174 -1.9287
 5526TIP3    H237994   6.171   3.383  12.679 -2.3999  0.0286  0.6610
 5527TIP3   OH237995   6.201   2.384   3.620 -0.4572 -0.5437 -0.4190
 5527TIP3    H137996   6.249   2.452   3.667  1.1504  0.4073 -3.3426
 5527TIP3    H237997   6.116   2.423   3.600 -1.1668 -0.9696  1.6470
 5528TIP3   OH237998   6.647   2.462   2.410  0.1278 -0.5743  0.1024
 5528TIP3    H137999   6.586   2.425   2.474  0.8075  0.2519  1.2336
 5528TIP3    H238000   6.734   2.444   2.447  0.6288 -2.3468 -1.8105
 5529TIP3   OH238001   4.629   4.844   4.960 -0.7553  0.1233 -0.0839
 5529TIP3    H138002   4.574   4.867   4.885 -1.6037 -0.0363  0.4782
 5529TIP3    H238003   4.597   4.899   5.031 -0.1359  0.0763  0.2347
 5530TIP3   OH238004   1.342   1.971  15.985  0.0714 -0.2195 -0.0216
 5530TIP3    H138005   1.323   2.037  16.052 -0.0998 -0.3574  0.0678
 5530TIP3    H238006   1.349   2.020  15.903 -0.2465 -0.1180  0.0141
 5531TIP3   OH238007   5.123   2.171  14.844  0.2089 -0.0788 -0.0612
 5531TIP3    H138008   5.049   2.129  14.800  0.4592 -1.3789  0.7049
 5531TIP3    H238009   5.200   2.126  14.809  0.5652  0.5420 -0.0769
 5532TIP3   OH238010   0.854   5.397   2.103 -0.4803 -0.0284 -0.9385
 5532TIP3    H138011   0.787   5.418   2.168  1.1560  0.1644  0.7420
 5532TIP3    H238012   0.871   5.303   2.116  1.4918  0.4909  0.5660
 5533TIP3   OH238013   5.782   6.465  16.953  0.4522  0.2914  1.0361
 5533TIP3    H138014   5.820   6.496  17.034  0.7595  1.7794  0.3444
 5533TIP3    H238015   5.846   6.488  16.886 -0.8635  1.2761  0.0828
 5534TIP3   OH238016   4.407   5.835  13.521  0.3182 -0.8507  0.2011
 5534TIP3    H138017   4.376   5.874  13.440  2.4071 -3.0294 -1.7441
 5534TIP3    H238018   4.329   5.802  13.564 -0.8679  0.7452 -0.6993
 5535TIP3   OH238019   6.657   1.164  12.196 -0.0494  0.0615 -0.1696
 5535TIP3    H138020   6.594   1.120  12.252 -0.6148  0.9102 -0.1157
 5535TIP3    H238021   6.666   1.107  12.120 -1.4990  0.3018 -0.5455
 5536TIP3   OH238022   1.059   5.628  13.483  0.0603  0.2668 -0.1375
 5536TIP3    H138023   0.966   5.644  13.499  0.1781  2.6018 -1.5002
 5536TIP3    H238024   1.074   5.658  13.394  1.8904 -1.1920 -0.3568
 5537TIP3   OH238025   4.737   3.982  15.343 -0.4423  0.5605  0.0001
 5537TIP3    H138026   4.681   4.025  15.278  0.9245  0.3331 -1.3792
 5537TIP3    H238027   4.745   4.046  15.414 -4.8806 -0.5725  1.6794
 5538TIP3   OH238028   2.752   3.746  11.798  0.1913 -0.2717  0.8811
 5538TIP3    H138029   2.691   3.807  11.839  0.5352  1.5560 -1.2022
 5538TIP3    H238030   2.697   3.691  11.742  0.1743 -0.1334  0.7608
 5539TIP3   OH238031   5.832   4.850  15.763  0.1184 -0.6751 -0.0618
 5539TIP3    H138032   5.855   4.810  15.847 -0.7021 -1.9121 -0.4146
 5539TIP3    H238033   5.749   4.809  15.739  0.5915 -0.7048 -1.7091
 5540TIP3   OH238034   0.684   0.881   1.527 -0.4284 -0.2450 -0.9604
 5540TIP3    H138035   0.651   0.965   1.497 -0.8251 -0.0342  0.0538
 5540TIP3    H238036   0.778   0.884   1.510 -0.4847  0.2822 -1.1775
 5541TIP3   OH238037   4.671   3.308  16.089 -0.0354  0.1659 -0.0141
 5541TIP3    H138038   4.733   3.261  16.145  1.6243  0.1661 -1.8109
 5541TIP3    H238039   4.659   3.252  16.013 -1.9459  0.3697  0.1077
 5542TIP3   OH238040   4.951   5.805   3.818 -0.5897 -0.2967  0.5201
 5542TIP3    H138041   4.877   5.854   3.854  0.3645  1.3456  0.2995
 5542TIP3    H238042   5.025   5.827   3.875 -0.1018 -1.3364  0.2984
 5543TIP3   OH238043   0.952   1.148  14.743 -0.2847  0.4731 -0.3554
 5543TIP3    H138044   1.025   1.087  14.733 -0.9962 -0.5426  0.5622
 5543TIP3    H238045   0.947   1.194  14.659 -0.1487 -1.1932 -1.2778
 5544TIP3   OH238046   2.471   4.399  17.041  0.3643  0.1045  0.2106
 5544TIP3    H138047   2.565   4.407  17.026  0.4747  0.3104  0.9962
 5544TIP3    H238048   2.438   4.489  17.037  0.3664  0.1420  0.9990
 5545TIP3   OH238049   4.611   2.009   5.602 -0.0476 -0.3598 -0.0194
 5545TIP3    H138050   4.703   1.999   5.626 -0.0550 -1.5452 -0.4211
 5545TIP3    H238051   4.571   1.925   5.625 -0.9849  0.0737 -0.0402
 5546TIP3   OH238052   3.936   3.799   1.748  0.6911 -0.1264 -0.8538
 5546TIP3    H138053   3.892   3.861   1.806  1.1954  1.6094 -2.2513
 5546TIP3    H238054   3.929   3.839   1.661  1.1584 -1.9793 -1.7700
 5547TIP3   OH238055   3.776   6.471   2.299 -0.4249 -0.8663  0.4093
 5547TIP3    H138056   3.773   6.549   2.244  0.3158 -1.7160 -0.8545
 5547TIP3    H238057   3.865   6.436   2.286 -0.4704 -1.4558  1.6078
 5548TIP3   OH238058   1.522   1.273   4.088  0.2920 -0.5925 -0.4645
 5548TIP3    H138059   1.477   1.357   4.083 -0.0284 -0.6966  0.5223
 5548TIP3    H238060   1.467   1.213   4.037 -0.0164 -0.4346 -0.3171
 5549TIP3   OH238061   1.169   4.805  15.274  0.4219  0.1032 -0.1423
 5549TIP3    H138062   1.252   4.820  15.228  1.2151 -1.2704  0.7800
 5549TIP3    H238063   1.119   4.749  15.216  0.1051  0.9809 -0.7269
 5550TIP3   OH238064   1.366   6.455   2.616  0.6450 -0.5623 -0.2462
 5550TIP3    H138065   1.301   6.519   2.644 -0.7862 -1.0595 -2.3301
 5550TIP3    H238066   1.382   6.401   2.694 -0.9913 -0.0799  0.4398
 5551TIP3   OH238067   2.465   5.548  15.666 -0.2222  0.3994  0.0181
 5551TIP3    H138068   2.535   5.492  15.700 -0.0459 -0.6849 -2.0958
 5551TIP3    H238069   2.431   5.502  15.590 -1.9091  1.8839 -0.1743
 5552TIP3   OH238070   5.563   5.061  13.729 -0.0586 -0.1122 -0.2242
 5552TIP3    H138071   5.512   5.083  13.651 -0.0430  2.2176  0.3856
 5552TIP3    H238072   5.632   5.128  13.732  1.3330 -1.5538  0.5245
 5553TIP3   OH238073   4.588   3.233  14.924 -0.4233 -0.9034  0.5566
 5553TIP3    H138074   4.518   3.170  14.904 -0.0144 -0.8410 -1.0681
 5553TIP3    H238075   4.544   3.301  14.976 -1.6761 -0.6344 -0.8353
 5554TIP3   OH238076   3.620   0.229   0.115  0.1296  0.5448  0.1731
 5554TIP3    H138077   3.615   0.294   0.186 -1.3018  1.2152 -0.5145
 5554TIP3    H238078   3.707   0.241   0.078  0.3734  1.1616  0.9080
 5555TIP3   OH238079   5.647   0.889   2.019  0.0496  0.0089 -0.2745
 5555TIP3    H138080   5.612   0.913   2.104 -0.6806  0.0369 -0.5770
 5555TIP3    H238081   5.742   0.891   2.030 -0.0277 -1.8521  1.0711
 5556TIP3   OH238082   4.725   2.596   4.513  0.1632  0.5354  0.0799
 5556TIP3    H138083   4.740   2.507   4.546 -1.1860 -0.5798 -2.2074
 5556TIP3    H238084   4.644   2.589   4.463  0.2483  2.9964 -0.4388
 5557TIP3   OH238085   5.184   1.224   3.815  0.2422  0.5635  0.4029
 5557TIP3    H138086   5.104   1.275   3.805  0.5091  0.8010 -0.6303
 5557TIP3    H238087   5.159   1.150   3.869 -0.1232  1.8491  2.0214
 5558TIP3   OH238088   6.708   0.205  15.856  0.0616  0.4107  0.6637
 5558TIP3    H138089   6.790   0.243  15.825  0.1096  0.6790  1.1212
 5558TIP3    H238090   6.698   0.238  15.946 -1.3369  1.6326  0.0755
 5559TIP3   OH238091   0.883   1.450  13.515  0.2037  0.5024 -0.0290
 5559TIP3    H138092   0.918   1.392  13.582 -0.7246 -0.9878 -0.8078
 5559TIP3    H238093   0.854   1.391  13.445  0.8322  1.9986 -1.5913
 5560TIP3   OH238094   4.324   5.585   3.630 -0.0920 -0.2805  0.4378
 5560TIP3    H138095   4.411   5.608   3.597 -0.1582 -0.1453  0.3574
 5560TIP3    H238096   4.290   5.666   3.669 -0.8475  0.1016 -0.9911
 5561TIP3   OH238097   2.857   5.292   2.282 -0.1143  0.0014 -0.4431
 5561TIP3    H138098   2.786   5.253   2.231  0.8856  0.8480 -2.5535
 5561TIP3    H238099   2.924   5.314   2.217  2.9335 -2.5681  1.6970
 5562TIP3   OH238100   6.338   4.726   4.457 -0.1558 -0.2633  0.3856
 5562TIP3    H138101   6.281   4.654   4.483  1.2572 -1.5071  0.0726
 5562TIP3    H238102   6.377   4.698   4.374 -1.0611  1.6918 -0.7622
 5563TIP3   OH238103   5.066   3.268  12.873 -0.0221  0.1518 -0.4144
 5563TIP3    H138104   4.982   3.313  12.873 -2.5245 -4.2329  1.4855
 5563TIP3    H238105   5.093   3.266  12.965  0.8793 -0.7442 -0.6850
 5564TIP3   OH238106   4.984   6.598   1.838 -0.0962 -0.5279 -0.4364
 5564TIP3    H138107   5.010   6.671   1.781 -0.9951  0.6625  0.6508
 5564TIP3    H238108   4.925   6.546   1.784 -1.2935  0.8383 -0.4849
 5565TIP3   OH238109   6.559   3.449   2.980  0.0639  0.5652 -0.4057
 5565TIP3    H138110   6.559   3.487   2.893 -1.6059 -1.5121 -1.3481
 5565TIP3    H238111   6.501   3.504   3.032 -2.6817 -0.8788 -1.8703
 5566TIP3   OH238112   2.314   3.933   4.036  0.2495  0.5934  0.1875
 5566TIP3    H138113   2.400   3.939   4.079  0.4556  1.4408 -0.3262
 5566TIP3    H238114   2.302   3.840   4.019  0.5742  0.3440  1.2551
 5567TIP3   OH238115   3.166   5.582   2.232  0.6546  0.2884 -0.5178
 5567TIP3    H138116   3.196   5.654   2.288  0.4749  1.1016 -1.4534
 5567TIP3    H238117   3.082   5.556   2.269  1.8403 -1.0796  1.2878
 5568TIP3   OH238118   4.070   3.849   3.651 -0.0372 -0.1779  0.2165
 5568TIP3    H138119   4.049   3.941   3.666  1.8675  0.3266 -0.0541
 5568TIP3    H238120   4.125   3.824   3.726 -0.5147 -1.0787  0.2728
 5569TIP3   OH238121   3.794   6.734  15.525 -0.7023  0.5072  0.2808
 5569TIP3    H138122   3.805   6.645  15.491 -0.9331  0.9778 -1.0530
 5569TIP3    H238123   3.872   6.749  15.579  0.3213  0.2122 -1.1010
 5570TIP3   OH238124   2.761   6.764  14.483  0.2520  0.0087  0.2199
 5570TIP3    H138125   2.840   6.760  14.430 -0.3397  2.3677 -0.9218
 5570TIP3    H238126   2.703   6.823  14.435 -1.7680 -0.8291  1.5875
 5571TIP3   OH238127   2.820   5.801  12.556  0.0880 -0.3337 -0.0175
 5571TIP3    H138128   2.741   5.754  12.582 -0.7344  2.1891  2.3586
 5571TIP3    H238129   2.788   5.871  12.499  0.7742 -0.0512 -0.0603
 5572TIP3   OH238130   5.661   2.040   0.570  0.4329 -0.2034 -0.0969
 5572TIP3    H138131   5.661   2.110   0.505 -0.8770 -0.0183  0.0886
 5572TIP3    H238132   5.608   2.074   0.642  0.7539 -0.9328  0.4925
 5573TIP3   OH238133   5.563   5.327   5.561  0.2772 -0.0691  0.8302
 5573TIP3    H138134   5.576   5.388   5.633  1.4524  0.4762  0.1770
 5573TIP3    H238135   5.631   5.350   5.497  0.5172 -1.8243  0.4177
 5574TIP3   OH238136   5.558   3.693   2.609 -0.4218 -0.2660  0.1543
 5574TIP3    H138137   5.613   3.619   2.636 -1.2164 -0.8180  0.2585
 5574TIP3    H238138   5.566   3.755   2.682  0.0465 -0.3494  0.1792
 5575TIP3   OH238139   1.505   5.280   1.738 -0.3632  0.7107 -1.3501
 5575TIP3    H138140   1.412   5.277   1.760  0.0318  0.6511  0.4384
 5575TIP3    H238141   1.544   5.216   1.797  0.8480  0.9187 -1.9232
 5576TIP3   OH238142   3.958   2.652   5.792 -0.0189  0.0173  0.0861
 5576TIP3    H138143   3.934   2.744   5.807  1.6623  0.5312 -0.3224
 5576TIP3    H238144   4.019   2.631   5.861  0.9757 -0.2514 -0.8640
 5577TIP3   OH238145   1.532   5.825   2.215  0.4123 -0.1247  0.0373
 5577TIP3    H138146   1.455   5.875   2.242 -0.2217 -1.0397 -0.0542
 5577TIP3    H238147   1.512   5.793   2.128  1.2748  0.3871 -0.3562
 5578TIP3   OH238148   3.949   3.201  12.509  0.0358  0.0132  0.5727
 5578TIP3    H138149   4.030   3.251  12.496 -0.0598  0.1206  0.3927
 5578TIP3    H238150   3.968   3.115  12.472  0.7889 -0.6436  2.4035
 5579TIP3   OH238151   0.130   4.944   5.226 -0.5052 -0.2111  0.4732
 5579TIP3    H138152   0.090   4.997   5.157 -1.2419 -0.6878  0.5235
 5579TIP3    H238153   0.065   4.945   5.297 -0.1015 -0.3844  0.8471
 5580TIP3   OH238154   6.080   4.495  14.191 -0.5701 -0.0462  0.5220
 5580TIP3    H138155   6.097   4.576  14.239  1.0656 -0.2253  0.2724
 5580TIP3    H238156   6.035   4.523  14.111  0.6415  0.7037  0.0868
 5581TIP3   OH238157   2.221   6.022   4.264  0.5431  0.0900 -0.1709
 5581TIP3    H138158   2.185   6.041   4.178  1.1856  3.0244  0.1629
 5581TIP3    H238159   2.313   6.001   4.247  0.8300  1.3123 -0.1402
 5582TIP3   OH238160   5.595   3.910  12.344 -0.2851  0.2982  0.6858
 5582TIP3    H138161   5.641   3.985  12.306 -0.2319  0.0655  0.2814
 5582TIP3    H238162   5.524   3.948  12.396 -0.8923  0.6019 -0.3518
 5583TIP3   OH238163   4.143   2.056  14.043 -0.1346 -0.2276  0.1837
 5583TIP3    H138164   4.168   1.972  14.080 -0.8796 -0.1274  0.9312
 5583TIP3    H238165   4.093   2.099  14.113  0.1420  0.7810 -0.2286
 5584TIP3   OH238166   0.123   4.028  14.406 -0.4860 -0.4537 -0.7530
 5584TIP3    H138167   0.091   4.079  14.481  1.5111 -0.8900  0.4611
 5584TIP3    H238168   0.132   3.939  14.440  0.4428 -0.6553 -1.5090
 5585TIP3   OH238169   3.486   6.759   3.562 -0.4335  0.4897  0.1069
 5585TIP3    H138170   3.556   6.763   3.497  1.3638 -0.0331  1.9806
 5585TIP3    H238171   3.437   6.841   3.549  0.3709  0.7542 -1.3625
 5586TIP3   OH238172   3.810   0.315   4.722  0.1077  0.3576 -0.5470
 5586TIP3    H138173   3.835   0.232   4.680  1.0569  1.0941 -1.4700
 5586TIP3    H238174   3.723   0.297   4.759  0.7541 -1.3673  0.1932
 5587TIP3   OH238175   3.823   4.485  15.037 -0.0485 -0.0017 -0.4681
 5587TIP3    H138176   3.838   4.519  15.125 -0.6611  0.5771 -0.5814
 5587TIP3    H238177   3.901   4.434  15.017  0.5606  0.7518 -0.0165
 5588TIP3   OH238178   0.137   0.759  17.014  0.3415  0.3393 -0.2551
 5588TIP3    H138179   0.063   0.759  16.953  0.3109  0.2076 -0.2190
 5588TIP3    H238180   0.205   0.810  16.970  0.0507  0.8779 -0.0729
 5589TIP3   OH238181   0.927   4.432   3.181  0.5147 -0.3626 -0.0828
 5589TIP3    H138182   0.981   4.354   3.197  1.2469 -0.0204 -0.8404
 5589TIP3    H238183   0.927   4.442   3.086 -0.6112 -0.1470 -0.0711
 5590TIP3   OH238184   3.370   4.523  11.626  0.1403 -0.0553 -0.0819
 5590TIP3    H138185   3.334   4.455  11.570  0.2531  1.1454 -1.6616
 5590TIP3    H238186   3.324   4.513  11.709 -1.0669 -0.9685 -0.8473
 5591TIP3   OH238187   5.373   1.827   5.964 -0.0864 -0.7685  0.0875
 5591TIP3    H138188   5.351   1.920   5.960 -4.5298 -1.6800  0.9133
 5591TIP3    H238189   5.414   1.809   5.879 -0.4117  1.6654 -0.6309
 5592TIP3   OH238190   1.627   2.289  13.481 -0.2089 -0.2721 -0.0561
 5592TIP3    H138191   1.707   2.258  13.440 -0.6497 -1.3170 -0.1259
 5592TIP3    H238192   1.638   2.268  13.574 -0.7235 -1.0890 -0.1804
 5593TIP3   OH238193   5.186   1.455  17.118  0.1431  0.2190 -0.0216
 5593TIP3    H138194   5.121   1.437  17.050  0.9099  1.2401 -1.0519
 5593TIP3    H238195   5.147   1.525  17.170 -1.6035 -2.3213  2.2600
 5594TIP3   OH238196   2.209   4.423   3.555  0.2522  0.1702  0.0664
 5594TIP3    H138197   2.161   4.418   3.638  1.6307 -0.2152  0.8462
 5594TIP3    H238198   2.154   4.374   3.493  0.4683 -1.7410  1.3409
 5595TIP3   OH238199   5.614   0.358   4.826  0.2415  0.0410  0.0264
 5595TIP3    H138200   5.571   0.275   4.804  0.0828  0.0874  0.1611
 5595TIP3    H238201   5.698   0.354   4.780 -0.5710  0.6349 -1.5379
 5596TIP3   OH238202   2.768   0.939  16.340 -0.3538 -0.1675 -0.0364
 5596TIP3    H138203   2.850   0.984  16.360 -1.5654  1.6227  0.9996
 5596TIP3    H238204   2.769   0.928  16.245  1.5336 -1.0996  0.0604
 5597TIP3   OH238205   3.558   4.129   2.368 -0.0515  0.4863  0.6700
 5597TIP3    H138206   3.589   4.160   2.283 -0.2935 -0.8203  0.0869
 5597TIP3    H238207   3.508   4.202   2.404 -0.9495  0.6433 -0.8440
 5598TIP3   OH238208   2.217   1.940  15.717  0.0464  0.5989  0.2001
 5598TIP3    H138209   2.263   1.859  15.695  0.2365  1.3829 -2.4311
 5598TIP3    H238210   2.279   2.009  15.696 -0.5501  1.4869  1.3149
 5599TIP3   OH238211   6.250   1.755  11.192  0.4671 -0.5039  0.1619
 5599TIP3    H138212   6.302   1.823  11.148  0.0871  0.0544  0.5775
 5599TIP3    H238213   6.166   1.755  11.146  0.9641 -1.7130 -0.8014
 5600TIP3   OH238214   6.355   0.013   5.868  0.4573  0.3326  0.4883
 5600TIP3    H138215   6.331   0.105   5.854 -1.0288  0.0159  0.8144
 5600TIP3    H238216   6.341  -0.002   5.962  1.2946 -0.0633  0.5573
 5601TIP3   OH238217   4.479   1.109   3.221  0.1270  0.1897  0.0743
 5601TIP3    H138218   4.449   1.020   3.203  0.4043  0.3197 -1.0202
 5601TIP3    H238219   4.441   1.129   3.307 -2.4169  0.1291 -0.9890
 5602TIP3   OH238220   2.502   0.073  17.095  0.4692  0.0323  0.6361
 5602TIP3    H138221   2.570   0.006  17.089  1.3378  1.0954 -3.0654
 5602TIP3    H238222   2.420   0.025  17.098  1.0442 -1.2907 -2.4939
 5603TIP3   OH238223   4.853   1.225  12.983 -0.3343 -0.2114 -0.2517
 5603TIP3    H138224   4.934   1.220  12.933  0.1259 -1.3396  0.5911
 5603TIP3    H238225   4.830   1.318  12.982  1.7552  0.3416  0.7418
 5604TIP3   OH238226   1.477   5.561   1.777  0.3254  0.5719  0.5398
 5604TIP3    H138227   1.497   5.467   1.779  1.0417  0.6907 -0.8486
 5604TIP3    H238228   1.417   5.571   1.703  1.0890  1.3613  0.0115
 5605TIP3   OH238229   3.377   2.927  15.358  0.1417  0.2770  0.4743
 5605TIP3    H138230   3.310   2.956  15.420  0.0922  2.3052 -0.5082
 5605TIP3    H238231   3.360   2.977  15.278  1.3585 -0.9493 -0.5844
 5606TIP3   OH238232   3.521   4.111  16.566  0.0529 -0.4584  0.7533
 5606TIP3    H138233   3.591   4.053  16.537 -1.8307 -2.0271 -0.7712
 5606TIP3    H238234   3.513   4.176  16.496  0.0356 -0.2428  0.9539
 5607TIP3   OH238235   1.356   0.371  11.718 -0.0677 -0.0256 -0.1234
 5607TIP3    H138236   1.333   0.464  11.709  0.4708  0.0773 -0.4677
 5607TIP3    H238237   1.276   0.330  11.750 -0.0008  0.7229  1.0104
 5608TIP3   OH238238   4.788   3.044  17.136 -0.0077 -0.0045 -0.4339
 5608TIP3    H138239   4.803   3.062  17.043  0.5748 -1.8734 -0.7052
 5608TIP3    H238240   4.810   2.952  17.147 -1.2684 -0.1249  1.3075
 5609TIP3   OH238241   2.608   0.687  13.677  0.0556  0.8031  0.4734
 5609TIP3    H138242   2.619   0.601  13.717 -2.8062  0.0733 -0.1342
 5609TIP3    H238243   2.619   0.749  13.748 -1.4089 -0.2885  1.6918
 5610TIP3   OH238244   5.809   6.745  13.026  0.0157 -0.3032 -0.6618
 5610TIP3    H138245   5.901   6.743  13.051 -0.1199  0.7927 -0.0542
 5610TIP3    H238246   5.809   6.719  12.934  0.8310 -1.2544 -0.4011
 5611TIP3   OH238247   4.026   6.596  16.734 -0.3874  0.0050  0.5562
 5611TIP3    H138248   3.988   6.674  16.774 -0.7759 -0.4441  1.0684
 5611TIP3    H238249   4.120   6.615  16.729 -0.4633  0.4512  0.7921
 5612TIP3   OH238250   6.161   4.269  15.448  0.1216  0.1621  0.3463
 5612TIP3    H138251   6.185   4.362  15.439  0.1579 -0.0456 -2.2467
 5612TIP3    H238252   6.139   4.242  15.359 -3.6388 -1.3646  1.6526
 5613TIP3   OH238253   0.345   0.919   2.602  0.3160 -0.2746  0.2420
 5613TIP3    H138254   0.392   0.895   2.522 -0.0693  0.0289 -0.0786
 5613TIP3    H238255   0.253   0.899   2.583  0.3087 -0.8539  0.8586
 5614TIP3   OH238256   3.145   2.450  13.824 -0.1223  0.0104 -0.0467
 5614TIP3    H138257   3.140   2.356  13.803  1.4714 -0.5308  1.8125
 5614TIP3    H238258   3.054   2.478  13.829 -0.6708 -1.8730  1.1925
 5615TIP3   OH238259   5.032   6.291   4.201 -0.3831 -0.1208  0.2597
 5615TIP3    H138260   5.000   6.378   4.178  1.1287 -0.0762 -1.8408
 5615TIP3    H238261   5.121   6.306   4.234 -0.5442 -0.7627  0.9992
 5616TIP3   OH238262   4.159   4.314  12.659  0.2655  0.1914  0.4348
 5616TIP3    H138263   4.074   4.355  12.670 -0.3812 -0.9433 -0.2204
 5616TIP3    H238264   4.210   4.376  12.607 -1.2240 -0.5025 -1.9457
 5617TIP3   OH238265   5.759   6.578   5.547 -0.0567 -0.4807  0.6228
 5617TIP3    H138266   5.805   6.494   5.546 -0.2049 -0.5955  2.4267
 5617TIP3    H238267   5.781   6.617   5.631 -0.9266  0.7743  0.2855
 5618TIP3   OH238268   0.126   2.701  16.939  0.3136  0.0627 -0.0278
 5618TIP3    H138269   0.088   2.724  17.023 -0.5343 -1.6652  0.0921
 5618TIP3    H238270   0.215   2.735  16.942  0.2331  0.1614  1.5024
 5619TIP3   OH238271   0.919   3.312   3.716  0.2189  0.2563 -0.2317
 5619TIP3    H138272   0.832   3.274   3.719 -0.1276  1.1788  1.6574
 5619TIP3    H238273   0.904   3.405   3.698  0.8445  0.3203 -0.4393
 5620TIP3   OH238274   4.655   1.938  14.340 -0.1915 -0.2346  0.0020
 5620TIP3    H138275   4.581   1.993  14.368 -1.1315 -1.2192 -0.5094
 5620TIP3    H238276   4.709   1.996  14.286 -1.1435  0.2251 -0.4730
 5621TIP3   OH238277   3.715   6.268   1.696  0.2034 -0.0698 -0.1494
 5621TIP3    H138278   3.779   6.278   1.625 -1.2884 -0.4270 -1.5680
 5621TIP3    H238279   3.704   6.173   1.705 -0.1442 -0.0068  0.0840
 5622TIP3   OH238280   1.176   4.392  12.991 -0.8307 -0.2875 -0.0021
 5622TIP3    H138281   1.128   4.321  13.031  0.2251 -0.1488  1.5432
 5622TIP3    H238282   1.237   4.349  12.930 -0.8069 -0.6396  0.2725
 5623TIP3   OH238283   1.823   4.996  15.443 -0.2624  0.2787  0.3924
 5623TIP3    H138284   1.742   5.028  15.483  1.1750  2.0024  1.9835
 5623TIP3    H238285   1.839   4.912  15.485 -0.3867  0.6718  1.2253
 5624TIP3   OH238286   0.866   2.390   1.449 -0.5711 -0.1381 -0.4860
 5624TIP3    H138287   0.896   2.479   1.429  2.6084 -0.8658  0.8681
 5624TIP3    H238288   0.913   2.366   1.529 -0.6163 -3.4254 -1.3975
 5625TIP3   OH238289   4.518   0.587   0.697  0.0651 -0.6782 -0.2796
 5625TIP3    H138290   4.541   0.603   0.788  0.6911 -0.7580 -0.4199
 5625TIP3    H238291   4.599   0.552   0.658 -0.4959 -1.6409 -0.6065
 5626TIP3   OH238292   2.124   5.217   4.956  0.4962  0.8230 -0.1583
 5626TIP3    H138293   2.189   5.202   5.025  1.3883 -1.4139 -1.4662
 5626TIP3    H238294   2.150   5.159   4.885 -1.9846  1.1197 -1.3533
 5627TIP3   OH238295   1.829   5.415  14.267  0.2452  0.8226  0.1859
 5627TIP3    H138296   1.784   5.477  14.209 -1.2666 -0.9740 -0.6363
 5627TIP3    H238297   1.760   5.384  14.326  0.7267 -0.7674 -0.0536
 5628TIP3   OH238298   1.036   6.511  12.148  0.4954 -0.2978 -0.2635
 5628TIP3    H138299   0.993   6.505  12.233 -1.6408  3.6162 -0.9767
 5628TIP3    H238300   1.112   6.567  12.164 -0.1101  0.7421 -0.9734
 5629TIP3   OH238301   5.325   1.187   5.790  0.4748  0.0894  0.0904
 5629TIP3    H138302   5.249   1.197   5.732  0.3868  1.3535  0.3935
 5629TIP3    H238303   5.304   1.241   5.866  1.4571  0.0396  0.4043
 5630TIP3   OH238304   2.447   5.325   2.863  0.2653  0.6215 -0.1358
 5630TIP3    H138305   2.368   5.305   2.912  1.2367 -0.3269  1.1029
 5630TIP3    H238306   2.463   5.418   2.878 -0.9851  0.9741 -0.9619
 5631TIP3   OH238307   5.510   2.838   2.563 -0.6778 -0.2956  0.1689
 5631TIP3    H138308   5.454   2.869   2.492  0.5814  0.0517 -0.6979
 5631TIP3    H238309   5.543   2.918   2.604  1.9702 -0.4297 -1.5866
 5632TIP3   OH238310   5.577   5.738   0.094  0.2934 -0.5928  0.2462
 5632TIP3    H138311   5.507   5.804   0.091  0.8864 -0.0129 -1.5420
 5632TIP3    H238312   5.531   5.654   0.096 -0.4960 -0.3040 -3.2456
 5633TIP3   OH238313   6.102   0.872  10.743  0.1181  0.4339  0.5311
 5633TIP3    H138314   6.129   0.943  10.801  0.2277  1.1986 -0.4397
 5633TIP3    H238315   6.013   0.895  10.717 -0.0833 -0.1239  0.7277
 5634TIP3   OH238316   4.674   0.326   4.982 -0.2023 -0.2090  0.3894
 5634TIP3    H138317   4.645   0.375   4.905 -0.2965  0.6629  0.9748
 5634TIP3    H238318   4.699   0.240   4.947  1.6490  0.8188 -0.9213
 5635TIP3   OH238319   1.294   1.742  17.138  0.0771  0.3124 -0.2756
 5635TIP3    H138320   1.387   1.750  17.118 -0.3036  1.7899 -1.5871
 5635TIP3    H238321   1.282   1.790  17.219  0.4467  0.1385 -0.1203
 5636TIP3   OH238322   2.003   0.202  16.921  0.1397  0.3136 -0.3289
 5636TIP3    H138323   2.036   0.139  16.857  2.9376  0.4952  0.8397
 5636TIP3    H238324   1.922   0.236  16.883 -0.2537 -2.3629 -1.9819
 5637TIP3   OH238325   3.127   2.274   2.839 -0.1925  0.0582 -0.0778
 5637TIP3    H138326   3.075   2.220   2.780 -0.9442  0.9931 -0.2911
 5637TIP3    H238327   3.165   2.342   2.783  0.1864  0.1588  0.2941
 5638TIP3   OH238328   2.654   5.193   3.678 -0.1203 -0.1087 -0.4813
 5638TIP3    H138329   2.688   5.283   3.686  0.3848 -0.2398 -1.0674
 5638TIP3    H238330   2.608   5.192   3.594 -1.1971 -0.0597  0.1039
 5639TIP3   OH238331   5.727   2.740   5.423 -0.6664 -0.4002 -0.2663
 5639TIP3    H138332   5.727   2.729   5.328 -0.4116 -1.9908 -0.0876
 5639TIP3    H238333   5.654   2.687   5.454 -2.5542  2.3786  0.1954
 5640TIP3   OH238334   5.478   0.677   1.679 -1.0346 -0.5503  0.3714
 5640TIP3    H138335   5.513   0.602   1.631 -2.7733 -0.1788 -1.5297
 5640TIP3    H238336   5.466   0.645   1.768  4.6327 -0.5325  1.3105
 5641TIP3   OH238337   3.861   5.902  16.165  0.0546 -0.4713  0.5558
 5641TIP3    H138338   3.785   5.945  16.204 -0.3689  0.2003 -0.9743
 5641TIP3    H238339   3.934   5.962  16.182 -0.3696  0.4393 -0.8037
 5642TIP3   OH238340   4.380   1.215   1.346 -0.2536  1.0560  0.5521
 5642TIP3    H138341   4.328   1.294   1.362 -0.1475  1.1206  0.5725
 5642TIP3    H238342   4.412   1.225   1.256  1.2077  1.8531  1.1502
 5643TIP3   OH238343   4.630   6.394  13.392  0.2099  0.4999 -0.1319
 5643TIP3    H138344   4.603   6.326  13.330 -0.0680  1.6875 -1.3256
 5643TIP3    H238345   4.557   6.399  13.454  1.2570 -1.9518  1.4157
 5644TIP3   OH238346   6.527   1.412  12.470  0.3772  0.8653 -0.2083
 5644TIP3    H138347   6.612   1.449  12.443  1.2130  0.4422  1.7230
 5644TIP3    H238348   6.462   1.468  12.428  1.6188  1.7830 -0.9525
 5645TIP3   OH238349   5.514   0.416  14.555  0.2443  0.2994  0.5564
 5645TIP3    H138350   5.529   0.333  14.599 -0.0427  0.2242  0.5148
 5645TIP3    H238351   5.492   0.477  14.626 -0.1826  0.1867  0.5227
 5646TIP3   OH238352   4.357   5.017  12.243  0.2775 -0.7409 -0.1176
 5646TIP3    H138353   4.353   5.104  12.202 -2.1135  0.3847  2.3462
 5646TIP3    H238354   4.307   4.961  12.184 -2.1781  0.6112  0.6146
 5647TIP3   OH238355   4.486   6.340   2.207  0.5285 -0.0100  0.4726
 5647TIP3    H138356   4.481   6.251   2.174  0.4505  0.1702 -0.0104
 5647TIP3    H238357   4.575   6.368   2.188  0.9078 -0.3889  1.6842
 5648TIP3   OH238358   4.052   4.158   2.921  0.2441 -0.1982  0.5762
 5648TIP3    H138359   4.131   4.159   2.868 -0.4785 -1.1610 -0.5415
 5648TIP3    H238360   4.043   4.248   2.952  3.1769 -0.6136  2.8674
 5649TIP3   OH238361   3.164   6.168   0.446 -0.3831  0.6202 -0.1937
 5649TIP3    H138362   3.183   6.194   0.536  0.1937  3.4210 -1.0621
 5649TIP3    H238363   3.219   6.092   0.431  2.3199  2.3219  0.6769
 5650TIP3   OH238364   0.280   2.119   0.930  0.3557  0.2817 -0.1742
 5650TIP3    H138365   0.283   2.033   0.973  0.0185 -0.0396 -0.7786
 5650TIP3    H238366   0.349   2.115   0.864  0.9211  0.7987  0.3857
 5651TIP3   OH238367   4.073   4.554  14.231 -0.6947 -0.1484 -0.0729
 5651TIP3    H138368   4.000   4.537  14.290  0.6216 -0.4394  1.5271
 5651TIP3    H238369   4.133   4.481  14.245  1.6289  1.9610  1.4756
 5652TIP3   OH238370   2.030   2.678   0.051 -0.0784 -0.2997 -0.8450
 5652TIP3    H138371   1.979   2.620   0.107  1.6561 -1.2804 -0.2596
 5652TIP3    H238372   2.042   2.757   0.103  2.4206 -1.5976  0.6527
 5653TIP3   OH238373   3.459   1.872  13.799 -0.5676  0.0244  0.1268
 5653TIP3    H138374   3.521   1.934  13.837  0.4280 -0.9404  0.0860
 5653TIP3    H238375   3.510   1.792  13.784 -1.4791 -0.3355 -1.1816
 5654TIP3   OH238376   3.080   5.412  13.453  0.5903 -0.0249  0.6514
 5654TIP3    H138377   3.128   5.460  13.386 -0.3018  0.2213  0.1849
 5654TIP3    H238378   3.093   5.320  13.430 -0.5250  0.0814 -0.4287
 5655TIP3   OH238379   5.533   2.906   6.489  0.0494 -0.0266  0.4048
 5655TIP3    H138380   5.502   2.946   6.570 -0.4819 -0.4004  0.3805
 5655TIP3    H238381   5.508   2.814   6.495 -0.5148  0.0665 -0.4436
 5656TIP3   OH238382   4.532   4.263  15.641  0.0756 -0.7148 -1.0360
 5656TIP3    H138383   4.624   4.256  15.616  0.5478  0.2489  0.3397
 5656TIP3    H238384   4.516   4.185  15.694  0.3842 -0.3995 -0.4684
 5657TIP3   OH238385   5.629   1.795  15.312 -0.0871 -0.3927  0.3022
 5657TIP3    H138386   5.622   1.779  15.406 -1.4498 -0.5869  0.1868
 5657TIP3    H238387   5.702   1.742  15.283 -2.1632 -3.5377  0.5596
 5658TIP3   OH238388   1.061   1.908   0.961 -0.7089  0.1464 -0.5605
 5658TIP3    H138389   1.029   1.869   0.879 -0.9095  1.2348 -0.9990
 5658TIP3    H238390   1.091   1.995   0.936  0.8209 -0.1483  0.2053
 5659TIP3   OH238391   0.587   1.290  10.418  0.4369  0.8994  0.0344
 5659TIP3    H138392   0.679   1.265  10.430  0.3213  0.7766  0.6385
 5659TIP3    H238393   0.570   1.270  10.326  1.4276  2.2659 -0.4747
 5660TIP3   OH238394   0.313   2.956   5.217  0.0849 -0.0305  0.1805
 5660TIP3    H138395   0.241   2.901   5.186 -2.4305 -0.1721  5.6805
 5660TIP3    H238396   0.305   3.037   5.167 -2.5377 -0.8748 -0.8421
 5661TIP3   OH238397   4.171   5.019   1.429 -0.1727 -0.3885  0.0456
 5661TIP3    H138398   4.212   4.939   1.399  0.1447  0.0257 -0.6427
 5661TIP3    H238399   4.232   5.056   1.493  1.2419  0.9550 -2.0065
 5662TIP3   OH238400   3.791   1.107  14.920  0.1807  0.3317  0.4788
 5662TIP3    H138401   3.760   1.017  14.934 -0.0107  0.1324 -1.1395
 5662TIP3    H238402   3.736   1.141  14.849  1.6135  1.0144 -0.3374
 5663TIP3   OH238403   1.282   1.449   0.555 -0.3860 -0.1163 -0.3320
 5663TIP3    H138404   1.256   1.541   0.555 -2.3002 -0.6427 -1.3139
 5663TIP3    H238405   1.328   1.437   0.639 -2.9592  0.9493  1.2952
 5664TIP3   OH238406   4.284   5.437   1.430 -0.1368  0.3180 -0.1756
 5664TIP3    H138407   4.248   5.370   1.371  1.0993  0.4271 -1.0585
 5664TIP3    H238408   4.220   5.441   1.501 -0.0330 -2.1238  0.1280
 5665TIP3   OH238409   1.205   6.543  14.120 -0.2998  0.3985  0.2374
 5665TIP3    H138410   1.150   6.615  14.089  1.1365  0.5391 -2.1057
 5665TIP3    H238411   1.280   6.586  14.159 -0.3785  0.1824  0.6248
 5666TIP3   OH238412   3.477   0.032   1.382  0.0294 -0.3723  0.2023
 5666TIP3    H138413   3.466  -0.048   1.330  1.0597 -0.4055  0.0242
 5666TIP3    H238414   3.539   0.007   1.451  0.3337  0.2579  0.1622
 5667TIP3   OH238415   1.829   6.391   1.709  0.0515 -0.2219  0.4120
 5667TIP3    H138416   1.752   6.349   1.670 -1.0668  1.0696  1.1873
 5667TIP3    H238417   1.894   6.321   1.714 -2.1670 -2.2365  2.7860
 5668TIP3   OH238418   4.540   4.315   3.641 -0.1545 -0.0524 -0.3944
 5668TIP3    H138419   4.475   4.385   3.633 -1.0286 -0.7633  0.4519
 5668TIP3    H238420   4.589   4.337   3.720 -1.6919 -1.4190  0.9698
 5669TIP3   OH238421   3.947   2.960  15.487  0.1135  0.4103 -0.2877
 5669TIP3    H138422   4.042   2.957  15.486  0.1343  1.2552 -1.2625
 5669TIP3    H238423   3.923   3.011  15.410 -1.1832 -1.3866 -1.1119
 5670TIP3   OH238424   3.958   1.520  11.352 -0.2587 -0.0089 -0.5555
 5670TIP3    H138425   4.049   1.502  11.328 -0.2349 -0.1759 -0.3432
 5670TIP3    H238426   3.914   1.534  11.269 -0.2585 -0.9710 -0.7242
 5671TIP3   OH238427   6.662   5.652  13.968 -0.3661  0.1436 -0.0206
 5671TIP3    H138428   6.611   5.725  13.932  0.0408  0.4522  0.0245
 5671TIP3    H238429   6.596   5.587  13.993 -0.6851  0.1863 -0.7506
 5672TIP3   OH238430   1.133   0.881   1.868  0.1492  0.0164  0.2116
 5672TIP3    H138431   1.061   0.933   1.832 -0.1626 -1.8949 -2.0322
 5672TIP3    H238432   1.108   0.790   1.851  2.8297 -0.7032 -0.0675
 5673TIP3   OH238433   3.392   5.696  14.527 -0.0171 -0.0108 -0.0809
 5673TIP3    H138434   3.427   5.653  14.449  0.6783 -0.0223  0.2439
 5673TIP3    H238435   3.428   5.648  14.601 -0.3678  0.2453  0.2633
 5674TIP3   OH238436   3.120   0.392   1.886  0.1275 -0.2349  0.1493
 5674TIP3    H138437   3.195   0.445   1.861 -0.9037  2.0166  1.6703
 5674TIP3    H238438   3.088   0.354   1.804 -0.4830  3.3684 -1.3564
 5675TIP3   OH238439   1.096   0.192  16.673 -0.0354 -0.6931  1.0167
 5675TIP3    H138440   1.031   0.203  16.605  1.4903 -0.8867 -0.5142
 5675TIP3    H238441   1.169   0.248  16.645  0.7629 -1.0762  2.2925
 5676TIP3   OH238442   0.995   0.207  12.716  0.1352 -0.3242 -0.3521
 5676TIP3    H138443   0.923   0.168  12.765 -0.5791 -0.1253 -1.2333
 5676TIP3    H238444   1.016   0.143  12.648  0.3215 -0.0716 -0.5351
 5677TIP3   OH238445   4.731   0.480   0.543  0.4350  0.0169  0.5408
 5677TIP3    H138446   4.766   0.422   0.476 -1.4105 -0.7000  0.1615
 5677TIP3    H238447   4.712   0.561   0.496 -0.7473 -0.4453  0.1933
 5678TIP3   OH238448   0.194   1.523  14.022  0.9483 -0.3230 -0.2806
 5678TIP3    H138449   0.118   1.570  14.056 -0.8429 -2.2279 -1.5339
 5678TIP3    H238450   0.209   1.560  13.935 -0.0661 -1.5669 -1.0071
 5679TIP3   OH238451   5.801   3.640   1.361  0.2297 -0.1835  0.2965
 5679TIP3    H138452   5.826   3.714   1.306  0.4781  0.4140  1.1997
 5679TIP3    H238453   5.759   3.578   1.301 -0.3996  0.8879 -0.3922
 5680TIP3   OH238454   0.172   3.290   1.394 -0.0110 -0.7509  0.1741
 5680TIP3    H138455   0.209   3.318   1.478 -0.5652 -0.6877  0.4061
 5680TIP3    H238456   0.214   3.206   1.375 -0.3300 -1.0646  0.8259
 5681TIP3   OH238457   0.512   6.474   5.477  0.4917 -0.2152  0.2793
 5681TIP3    H138458   0.487   6.387   5.507  1.5528 -0.4659  0.4807
 5681TIP3    H238459   0.518   6.526   5.557 -1.0526  0.3019  0.0773
 5682TIP3   OH238460   0.125   5.678   2.491  0.6718  0.1063  0.2292
 5682TIP3    H138461   0.149   5.697   2.401  0.1397 -0.1711  0.0288
 5682TIP3    H238462   0.062   5.606   2.485 -0.7988  1.3309  0.6962
 5683TIP3   OH238463   2.400   6.414  11.828 -0.5806  0.2006 -0.0084
 5683TIP3    H138464   2.452   6.422  11.908 -1.9534  0.5545  0.8747
 5683TIP3    H238465   2.346   6.493  11.826 -0.1806  0.4557 -1.5844
 5684TIP3   OH238466   0.833   2.960   3.701 -0.2177 -1.0876  0.3939
 5684TIP3    H138467   0.897   3.028   3.679  0.0408 -1.0694  1.1711
 5684TIP3    H238468   0.883   2.895   3.751 -0.5480 -1.6622 -0.0213
 5685TIP3   OH238469   3.849   5.925  16.875 -0.1248  0.0932  0.5620
 5685TIP3    H138470   3.810   5.842  16.904 -1.0131 -0.0553 -1.0119
 5685TIP3    H238471   3.902   5.901  16.799 -0.0084  0.9053  0.3907
 5686TIP3   OH238472   2.982   1.502   3.008  0.7086 -0.2157 -0.0019
 5686TIP3    H138473   2.994   1.448   2.930  1.1517 -0.5906  0.3264
 5686TIP3    H238474   3.017   1.449   3.080  0.1707  0.0698  0.4704
 5687TIP3   OH238475   3.078   6.650  13.978  0.6530 -0.2190  0.3562
 5687TIP3    H138476   2.990   6.614  13.986  0.5459 -0.6666 -2.4209
 5687TIP3    H238477   3.132   6.594  14.034 -0.5237 -1.0610  0.6723
 5688TIP3   OH238478   0.616   6.750   4.947  0.2469  0.2280  0.7469
 5688TIP3    H138479   0.632   6.729   5.039  1.9205  0.8113  0.5976
 5688TIP3    H238480   0.700   6.736   4.904 -0.0444  1.7342 -0.3679
 5689TIP3   OH238481   6.618   1.571   5.308 -0.0215 -0.5675 -0.3586
 5689TIP3    H138482   6.564   1.505   5.264  0.6094 -0.2062 -1.6945
 5689TIP3    H238483   6.705   1.530   5.315 -0.3121 -0.9553  1.3447
 5690TIP3   OH238484   2.823   2.709  15.498 -0.1665  0.5369 -0.2292
 5690TIP3    H138485   2.753   2.656  15.461  0.4276  0.8709 -1.9087
 5690TIP3    H238486   2.879   2.730  15.423  1.0410  1.3187  0.8634
 5691TIP3   OH238487   1.245   1.517   5.448 -0.1381  0.3550 -0.2636
 5691TIP3    H138488   1.258   1.485   5.360  0.4592  0.4108 -0.1991
 5691TIP3    H238489   1.175   1.463   5.484  0.7121 -0.7184 -0.2235
 5692TIP3   OH238490   0.924   0.145  13.079 -0.3183  0.4458 -0.1358
 5692TIP3    H138491   0.973   0.222  13.052 -0.6670  0.7198  0.0149
 5692TIP3    H238492   0.886   0.168  13.163 -0.8265  0.2890 -0.3166
 5693TIP3   OH238493   2.039   3.298  13.180 -0.3097 -0.2412 -0.1259
 5693TIP3    H138494   1.965   3.239  13.165 -2.9350  2.7040  0.7808
 5693TIP3    H238495   2.053   3.340  13.095 -1.2053  0.8901  0.2819
 5694TIP3   OH238496   6.597   4.677  16.158  0.0674 -0.4037  0.3243
 5694TIP3    H138497   6.678   4.629  16.145  0.2239  0.6357 -2.9683
 5694TIP3    H238498   6.622   4.769  16.150 -1.3883 -0.0651 -0.5317
 5695TIP3   OH238499   0.730   6.158  11.567 -0.3228  0.3727 -0.0679
 5695TIP3    H138500   0.642   6.142  11.601 -1.2561  1.4036 -1.9496
 5695TIP3    H238501   0.752   6.246  11.596 -0.0711  0.2574  0.0869
 5696TIP3   OH238502   0.808   3.437  11.419 -0.8246  0.1658  0.2175
 5696TIP3    H138503   0.826   3.371  11.352 -0.7475 -0.3651  0.7578
 5696TIP3    H238504   0.844   3.518  11.383  1.0741 -0.5317  0.4994
 5697TIP3   OH238505   1.532   2.238   3.264 -0.5121 -0.0621 -0.3074
 5697TIP3    H138506   1.473   2.178   3.308 -0.0109 -0.3629 -0.0486
 5697TIP3    H238507   1.620   2.208   3.287 -0.2374 -0.5288 -1.9224
 5698TIP3   OH238508   1.668   1.629   1.695 -0.1931  0.1776  0.8363
 5698TIP3    H138509   1.739   1.577   1.657 -1.2845  0.1864 -1.3155
 5698TIP3    H238510   1.708   1.713   1.717  0.7798 -0.3208  0.9951
 5699TIP3   OH238511   1.839   5.263   1.286 -0.4032  0.4064  0.6867
 5699TIP3    H138512   1.852   5.356   1.265  0.3126 -0.1871 -1.7581
 5699TIP3    H238513   1.817   5.223   1.202 -1.3884 -1.5330  1.8429
 5700TIP3   OH238514   3.377   2.120  15.938 -0.6012 -0.4470  0.1742
 5700TIP3    H138515   3.314   2.145  16.006 -1.0158 -0.9353 -0.0268
 5700TIP3    H238516   3.435   2.195  15.930  0.1281 -0.7968  1.8542
 5701TIP3   OH238517   4.556   1.477   6.232 -0.1183 -0.2487 -0.3772
 5701TIP3    H138518   4.475   1.426   6.227 -0.0239 -0.7918  2.4242
 5701TIP3    H238519   4.528   1.568   6.228 -0.8676 -0.4365  0.4097
 5702TIP3   OH238520   4.066   6.331  16.780  0.6122  0.6408 -0.3057
 5702TIP3    H138521   4.038   6.419  16.805 -2.2770 -0.5991  0.9315
 5702TIP3    H238522   4.070   6.283  16.862  0.3002 -0.8981 -1.1858
 5703TIP3   OH238523   0.000   4.995   0.368  0.6341 -0.0963  0.3105
 5703TIP3    H138524  -0.042   4.910   0.385 -1.7924  1.1893  0.9484
 5703TIP3    H238525  -0.028   5.018   0.279  1.6725 -0.1607 -0.0429
 5704TIP3   OH238526   5.064   6.595  12.348 -0.0844 -0.0711  0.3629
 5704TIP3    H138527   5.070   6.515  12.400  0.2202 -1.3225 -1.5781
 5704TIP3    H238528   5.136   6.650  12.380  1.6542 -1.8328 -0.4139
 5705TIP3   OH238529   4.841   4.229   0.786  0.0005  0.7564  0.0338
 5705TIP3    H138530   4.811   4.268   0.868 -1.6459  0.6824 -0.5196
 5705TIP3    H238531   4.888   4.299   0.742 -1.5219  1.6564 -0.2039
 5706TIP3   OH238532   5.316   0.054  12.216 -0.3202  0.4420 -0.6988
 5706TIP3    H138533   5.388   0.115  12.205 -0.1713  0.1940 -1.1106
 5706TIP3    H238534   5.240   0.099  12.181 -0.6986  1.3629  1.2549
 5707TIP3   OH238535   2.086   4.518   0.349  0.2470  0.0926 -0.5457
 5707TIP3    H138536   2.170   4.557   0.326 -0.5209  1.2250 -1.4782
 5707TIP3    H238537   2.022   4.564   0.295 -1.0682 -0.2684  0.6635
 5708TIP3   OH238538   2.894   4.704   2.208 -0.7920  0.2601  1.0923
 5708TIP3    H138539   2.895   4.638   2.278 -0.8344 -0.3524  0.5223
 5708TIP3    H238540   2.927   4.658   2.132 -1.2951  0.7628  0.5646
 5709TIP3   OH238541   2.848   4.809  16.158  0.4154  0.1369 -0.0711
 5709TIP3    H138542   2.937   4.842  16.166  0.7716 -0.0940 -2.6962
 5709TIP3    H238543   2.807   4.866  16.093 -1.8496  1.1694  2.1649
 5710TIP3   OH238544   2.643   1.630  14.769 -0.0059 -0.3631 -0.1544
 5710TIP3    H138545   2.560   1.654  14.729 -0.8172 -1.3207  0.9063
 5710TIP3    H238546   2.691   1.712  14.775 -1.1251  0.3110 -0.2318
 5711TIP3   OH238547   1.430   1.228  16.193  0.6848 -0.6299  0.0127
 5711TIP3    H138548   1.439   1.324  16.190  3.2172 -0.8845 -2.5014
 5711TIP3    H238549   1.510   1.198  16.237 -0.1460 -1.5946  0.8833
 5712TIP3   OH238550   1.939   3.038  13.129 -0.3217 -0.4399  0.4696
 5712TIP3    H138551   1.896   2.959  13.163  0.3214 -1.7640 -1.6799
 5712TIP3    H238552   2.026   3.038  13.169 -0.4982 -0.5482  0.8540
 5713TIP3   OH238553   0.103   2.794  17.192  0.7221  0.1273  0.1250
 5713TIP3    H138554   0.012   2.765  17.198  0.5557  0.0870 -2.2638
 5713TIP3    H238555   0.098   2.889  17.183  1.0510  0.4137  2.6689
 5714TIP3   OH238556   6.166   0.869   1.728 -0.2251  0.3037 -0.3374
 5714TIP3    H138557   6.118   0.789   1.709 -0.7284  0.4654  0.2350
 5714TIP3    H238558   6.227   0.879   1.654 -0.8159 -0.0938 -0.8810
 5715TIP3   OH238559   5.143   6.113   0.748  0.1836  0.9322 -0.0697
 5715TIP3    H138560   5.092   6.111   0.829 -0.1435  2.7509 -0.2034
 5715TIP3    H238561   5.105   6.044   0.694 -2.4075  2.4625 -0.3091
 5716TIP3   OH238562   2.322   1.827  11.078  0.2000 -0.1889 -0.2541
 5716TIP3    H138563   2.275   1.746  11.057  0.5095 -0.0991 -1.3235
 5716TIP3    H238564   2.292   1.890  11.013  1.5667 -0.0472 -0.7709
 5717TIP3   OH238565   1.962   2.238   5.696  0.5816  0.0289 -0.1450
 5717TIP3    H138566   2.053   2.267   5.696 -0.1630  2.5092  0.6213
 5717TIP3    H238567   1.946   2.209   5.606  1.6456  1.2072 -0.7396
 5718TIP3   OH238568   2.095   1.844   3.758  0.0536  0.4939  0.1647
 5718TIP3    H138569   2.092   1.789   3.836  0.6860  1.1497  0.6588
 5718TIP3    H238570   2.157   1.913   3.780 -0.2873  1.0725 -0.6677
 5719TIP3   OH238571   4.226   3.213   2.108  0.6032 -0.5733 -0.1076
 5719TIP3    H138572   4.176   3.134   2.086 -1.4732  0.1841  1.7231
 5719TIP3    H238573   4.198   3.278   2.044  1.5008 -1.0080 -0.9439
 5720TIP3   OH238574   2.164   5.569   4.556  0.4012  0.3334  0.5683
 5720TIP3    H138575   2.082   5.600   4.594  0.3982 -0.0166  0.8456
 5720TIP3    H238576   2.137   5.510   4.485  0.3873  1.9930 -0.8495
 5721TIP3   OH238577   1.073   4.168   4.865  0.3173 -0.1212 -0.2549
 5721TIP3    H138578   0.980   4.160   4.845  0.1239  1.7751 -0.2793
 5721TIP3    H238579   1.076   4.228   4.940  1.3089 -3.2834  2.3715
 5722TIP3   OH238580   4.238   6.503   2.070  0.6902  0.8608  0.1490
 5722TIP3    H138581   4.143   6.499   2.079  0.5485 -0.1996 -1.5102
 5722TIP3    H238582   4.271   6.445   2.138  0.1324  1.1389  0.6542
 5723TIP3   OH238583   4.657   2.694   2.057 -0.8277  0.5421 -0.0297
 5723TIP3    H138584   4.607   2.775   2.042  0.5104  1.3631 -0.0868
 5723TIP3    H238585   4.640   2.673   2.149  0.0445  1.7514  0.4247
 5724TIP3   OH238586   1.101   3.761  15.186 -0.0460  0.0153 -0.3133
 5724TIP3    H138587   1.011   3.729  15.181 -0.1249 -0.5543  3.2681
 5724TIP3    H238588   1.093   3.857  15.185 -1.0729  0.0587  3.2584
 5725TIP3   OH238589   1.734   5.406  15.794 -0.2235 -0.1677  0.1546
 5725TIP3    H138590   1.802   5.380  15.856  1.5666  0.3932 -1.5118
 5725TIP3    H238591   1.762   5.492  15.763 -1.5853 -0.0332 -0.7135
 5726TIP3   OH238592   6.758   3.060  13.291 -0.5360 -0.0211  0.2856
 5726TIP3    H138593   6.814   3.018  13.226  0.6899  2.0084 -0.0036
 5726TIP3    H238594   6.812   3.066  13.370 -1.4085 -0.8285  0.9690
 5727TIP3   OH238595   4.531   0.164  12.277 -0.3167  0.1225 -0.1783
 5727TIP3    H138596   4.577   0.113  12.344  0.2782  1.2253  0.2673
 5727TIP3    H238597   4.570   0.251  12.282 -1.3713  0.6488 -0.8829
 5728TIP3   OH238598   0.871   5.308   1.155 -0.1210  0.0815 -0.4051
 5728TIP3    H138599   0.801   5.245   1.133 -0.2894 -0.2048  0.9101
 5728TIP3    H238600   0.925   5.312   1.076 -0.0177 -1.8506 -0.4558
 5729TIP3   OH238601   6.125   0.436  11.633 -0.3114  0.0668  0.5229
 5729TIP3    H138602   6.108   0.346  11.603 -1.1867 -0.0131  1.2217
 5729TIP3    H238603   6.053   0.455  11.693 -1.7069  2.2193 -1.7032
 5730TIP3   OH238604   1.690   5.924   3.455 -0.3772 -0.2547 -0.1493
 5730TIP3    H138605   1.634   5.946   3.380  0.0206  1.4766  0.0278
 5730TIP3    H238606   1.671   5.832   3.473  0.4206 -1.0724 -3.1494
 5731TIP3   OH238607   1.863   3.685  14.703 -0.1706 -0.3662  0.4071
 5731TIP3    H138608   1.885   3.611  14.759 -0.8226 -0.8379  0.0427
 5731TIP3    H238609   1.914   3.672  14.623 -0.7264 -0.7407  0.1071
 5732TIP3   OH238610   3.567   6.219  11.462  0.3398 -0.1210 -0.4421
 5732TIP3    H138611   3.535   6.173  11.540  0.3699  1.7420  0.7070
 5732TIP3    H238612   3.532   6.170  11.388 -0.7966 -1.1439  0.7608
 5733TIP3   OH238613   3.626   5.279  12.574  0.0861  0.0338 -0.3442
 5733TIP3    H138614   3.607   5.352  12.633 -1.5477 -0.7758  0.1444
 5733TIP3    H238615   3.701   5.309  12.522 -0.8554  2.2441 -0.4820
 5734TIP3   OH238616   0.803   5.590   1.270  0.3075  1.0050  0.0004
 5734TIP3    H138617   0.839   5.566   1.185  1.8276  0.5824  0.7311
 5734TIP3    H238618   0.834   5.522   1.329 -0.4212  1.4919  0.9610
 5735TIP3   OH238619   1.852   2.131  14.493  0.2146 -0.2577  0.0903
 5735TIP3    H138620   1.936   2.085  14.491  0.2441 -0.2013 -2.8778
 5735TIP3    H238621   1.795   2.076  14.547  2.0453 -0.4642  1.8429
 5736TIP3   OH238622   5.035   3.994  13.012 -0.3753 -0.4319  0.0453
 5736TIP3    H138623   4.989   4.041  12.942 -0.3446 -1.1092 -0.4315
 5736TIP3    H238624   5.034   3.902  12.984 -0.3709 -0.7064  0.9353
 5737TIP3   OH238625   6.778   5.467  14.528 -0.0511 -0.3401  0.2052
 5737TIP3    H138626   6.711   5.535  14.537 -1.4999 -1.5260 -1.0487
 5737TIP3    H238627   6.731   5.394  14.487  1.7881 -1.5871  0.2682
 5738TIP3   OH238628   4.868   2.949   4.054 -0.6023  0.0802  0.3467
 5738TIP3    H138629   4.938   2.889   4.081 -0.3497 -0.4530 -1.4246
 5738TIP3    H238630   4.839   2.915   3.970  0.1891  2.9833 -1.1705
 5739TIP3   OH238631   2.958   4.679   0.956  0.9126  0.4396 -0.6322
 5739TIP3    H138632   2.872   4.670   0.916  0.5673  1.0843 -0.0382
 5739TIP3    H238633   3.017   4.630   0.898 -0.2600 -2.2064  0.3369
 5740TIP3   OH238634   0.782   4.756   0.531  0.1997 -0.3755 -0.1570
 5740TIP3    H138635   0.755   4.737   0.621 -0.0291 -0.2859 -0.2065
 5740TIP3    H238636   0.705   4.738   0.478  0.5594 -1.1600 -0.4240
 5741TIP3   OH238637   0.183   2.299  12.306  0.0996 -0.4622  0.0641
 5741TIP3    H138638   0.189   2.373  12.366  3.2599 -2.8548  2.8497
 5741TIP3    H238639   0.268   2.295  12.263 -0.4775 -1.6902 -1.0153
 5742TIP3   OH238640   3.908   1.518  12.235  0.6807  0.1287  0.8541
 5742TIP3    H138641   3.888   1.605  12.201 -1.2372  0.0618  1.7714
 5742TIP3    H238642   3.892   1.459  12.160 -1.1747  0.2424  1.1297
 5743TIP3   OH238643   5.908   5.270  16.178 -0.3010  0.0981  0.0137
 5743TIP3    H138644   5.911   5.362  16.150  1.1653  0.5101  1.4107
 5743TIP3    H238645   5.955   5.222  16.110 -0.1861  0.5337 -0.2126
 5744TIP3   OH238646   4.927   2.296  11.707 -0.4374 -0.2643  0.1232
 5744TIP3    H138647   4.838   2.266  11.686 -1.5919  2.5387  0.8453
 5744TIP3    H238648   4.979   2.270  11.631 -1.8237 -2.0769 -0.2484
 5745TIP3   OH238649   5.964   0.464  16.624 -0.4783  0.3202  0.2827
 5745TIP3    H138650   5.999   0.497  16.541 -2.9562  2.1624 -0.0640
 5745TIP3    H238651   5.891   0.408  16.599  2.4040 -4.0134  0.9785
 5746TIP3   OH238652   4.781   2.520  12.077 -0.1574 -0.4949 -0.3630
 5746TIP3    H138653   4.754   2.551  11.991  0.2036 -2.1248 -1.0865
 5746TIP3    H238654   4.762   2.426  12.075  1.1720 -0.7965  0.8171
 5747TIP3   OH238655   3.270   1.926   5.088  0.3852  0.5016  1.0198
 5747TIP3    H138656   3.212   1.989   5.131 -1.2108 -0.8673  0.9164
 5747TIP3    H238657   3.306   1.873   5.160 -0.8175 -0.5613  0.8620
 5748TIP3   OH238658   5.003   0.597  10.172 -0.0189  0.6715  0.2196
 5748TIP3    H138659   5.064   0.524  10.159  1.3027  1.9743 -0.9611
 5748TIP3    H238660   4.917   0.555  10.176  0.8118 -1.0523  0.5634
 5749TIP3   OH238661   4.216   4.708   2.313  0.4571 -0.0880  0.1810
 5749TIP3    H138662   4.166   4.770   2.260  2.3052  1.9443  0.7549
 5749TIP3    H238663   4.161   4.691   2.389 -0.4380  0.1340 -0.4011
 5750TIP3   OH238664   3.018   2.748  12.619  0.3173  0.0851  0.2945
 5750TIP3    H138665   3.095   2.726  12.671  0.0861  0.8960  1.0091
 5750TIP3    H238666   2.951   2.769  12.684 -0.0327  0.9237 -0.3215
 5751TIP3   OH238667   4.441   2.486  12.979  0.9285 -0.3327  0.0445
 5751TIP3    H138668   4.455   2.575  12.947  0.3220  0.2018  1.2089
 5751TIP3    H238669   4.492   2.430  12.920  0.1245  0.6342 -1.5992
 5752TIP3   OH238670   1.186   4.586   0.104  0.7477  0.1159  0.4094
 5752TIP3    H138671   1.125   4.550   0.040  1.4879 -1.1215  0.3706
 5752TIP3    H238672   1.150   4.672   0.126 -1.3608 -0.8510  0.8930
 5753TIP3   OH238673   6.050   6.170   2.667  0.6850 -0.0289 -0.1152
 5753TIP3    H138674   6.039   6.258   2.702  0.0534 -0.2367  0.2034
 5753TIP3    H238675   5.994   6.167   2.589 -0.6430 -0.7037  0.8490
 5754TIP3   OH238676   6.228   5.996  11.655  0.0092  0.2906 -0.1601
 5754TIP3    H138677   6.205   5.956  11.571 -0.4255  0.7913 -0.2801
 5754TIP3    H238678   6.305   6.049  11.635 -1.6245  2.4760 -0.8202
 5755TIP3   OH238679   1.840   1.848  13.834 -0.3765 -0.8316  0.1202
 5755TIP3    H138680   1.790   1.886  13.907  0.6717  0.4623  0.1714
 5755TIP3    H238681   1.924   1.823  13.873 -0.2705 -1.2826 -0.3828
 5756TIP3   OH238682   6.693   6.537   0.347  0.2304  0.1660 -0.7494
 5756TIP3    H138683   6.723   6.625   0.369 -0.6270  0.4061 -0.5214
 5756TIP3    H238684   6.655   6.504   0.428 -0.4372  0.0003 -1.1252
 5757TIP3   OH238685   5.948   0.517  12.694  0.4878  0.5072 -0.4531
 5757TIP3    H138686   5.904   0.586  12.743 -0.0352  0.6832 -1.1751
 5757TIP3    H238687   5.938   0.439  12.749 -1.0104  0.4687 -0.7802
 5758TIP3   OH238688   4.469   3.899   0.832 -0.1739 -0.1306  0.7578
 5758TIP3    H138689   4.556   3.878   0.797  0.4045  2.6313  0.4202
 5758TIP3    H238690   4.467   3.857   0.918  1.2757 -0.7113  0.5253
 5759TIP3   OH238691   5.015   6.154  16.233  0.5948  0.1307  0.5287
 5759TIP3    H138692   4.997   6.074  16.184 -0.7978  0.0903  1.0737
 5759TIP3    H238693   5.054   6.123  16.315  1.0568  0.0820  0.2949
 5760TIP3   OH238694   0.118   2.024   1.466 -0.0160 -0.6690 -0.2647
 5760TIP3    H138695   0.153   1.967   1.397  0.1523 -0.4292 -0.3748
 5760TIP3    H238696   0.190   2.033   1.529  0.1748 -0.0401 -0.5745
 5761TIP3   OH238697   4.373   0.939   1.173 -0.2602 -0.2733  0.1901
 5761TIP3    H138698   4.281   0.955   1.191 -0.2900 -0.5801  0.3059
 5761TIP3    H238699   4.373   0.895   1.088 -0.1610  0.5639 -0.2499
 5762TIP3   OH238700   4.855   0.340  10.447  0.3507 -0.0548  0.1102
 5762TIP3    H138701   4.774   0.390  10.433 -0.4992 -0.8573  2.1107
 5762TIP3    H238702   4.828   0.264  10.497  2.4134 -0.1886  1.0440
 5763TIP3   OH238703   5.890   3.306  15.982  0.6543 -0.1087  0.0644
 5763TIP3    H138704   5.978   3.328  15.951  0.2486 -0.2208 -1.2307
 5763TIP3    H238705   5.833   3.370  15.939 -0.0025 -0.6780  0.0787
 5764TIP3   OH238706   0.032   2.785   2.727  0.2887 -0.2093  0.6117
 5764TIP3    H138707  -0.032   2.714   2.723  1.8926 -1.6153 -0.8435
 5764TIP3    H238708   0.003   2.839   2.801 -2.4358 -0.9233  0.1109
 5765TIP3   OH238709   3.550   1.389   3.991  1.1424  1.1233 -0.3014
 5765TIP3    H138710   3.625   1.340   4.024  0.0205  0.9176  2.0436
 5765TIP3    H238711   3.568   1.480   4.013 -0.6673  0.7250  3.1186
 5766TIP3   OH238712   4.716   5.544  11.259 -0.1212  0.3724  0.2005
 5766TIP3    H138713   4.781   5.549  11.329  1.3376 -0.8901 -1.0361
 5766TIP3    H238714   4.704   5.450  11.244  0.0333  0.6352 -1.6582
 5767TIP3   OH238715   5.279   2.145  16.053 -0.3017  0.2832 -0.1246
 5767TIP3    H138716   5.344   2.197  16.101 -1.3332 -1.1991  2.9952
 5767TIP3    H238717   5.211   2.207  16.029  0.0475  0.9938  0.7048
 5768TIP3   OH238718   5.051   0.056   1.179  0.1790 -0.2760 -0.6008
 5768TIP3    H138719   5.069   0.107   1.258 -2.2223  1.9589 -1.4402
 5768TIP3    H238720   5.138   0.030   1.147  1.3875  1.9283  0.7483
 5769TIP3   OH238721   3.559   5.691   0.779  0.7162  0.5116 -0.3701
 5769TIP3    H138722   3.493   5.651   0.723  0.6239  2.0422 -1.3738
 5769TIP3    H238723   3.524   5.682   0.868 -0.7469  1.1200 -0.8708
 5770TIP3   OH238724   1.627   0.160  17.081  0.2468  0.0047  0.3273
 5770TIP3    H138725   1.691   0.227  17.058 -2.0501  1.8524 -0.8998
 5770TIP3    H238726   1.617   0.168  17.176  0.2130  1.2010  0.2317
 5771TIP3   OH238727   2.601   6.603   3.038 -0.3392  0.1088  1.3006
 5771TIP3    H138728   2.534   6.559   3.091 -2.3627  1.8865  0.2998
 5771TIP3    H238729   2.581   6.696   3.048  0.3876  0.5353 -1.1007
 5772TIP3   OH238730   5.497   5.369  13.609 -0.1340 -0.7065 -0.4356
 5772TIP3    H138731   5.450   5.290  13.635 -0.4573  0.2980  2.1750
 5772TIP3    H238732   5.581   5.363  13.654  0.7722 -0.6623 -2.0746
 5773TIP3   OH238733   0.157   6.707  14.787  0.9337 -0.1729  0.3987
 5773TIP3    H138734   0.224   6.697  14.856  1.9861  0.3537 -0.5358
 5773TIP3    H238735   0.075   6.685  14.831  1.6444 -0.2769  1.7175
 5774TIP3   OH238736   4.549   3.826  16.383  0.0116  0.5165 -0.0981
 5774TIP3    H138737   4.454   3.818  16.375  0.2204 -2.3574 -0.2668
 5774TIP3    H238738   4.563   3.898  16.445 -2.2419  1.2935 -0.4656
 5775TIP3   OH238739   2.214   3.732   3.547  0.0816  0.0746 -0.6308
 5775TIP3    H138740   2.119   3.722   3.547 -0.0260  1.0020  0.3907
 5775TIP3    H238741   2.230   3.812   3.598  1.4546 -0.6193  0.0614
 5776TIP3   OH238742   4.482   0.025  12.921 -0.1236  0.2254  0.2697
 5776TIP3    H138743   4.510   0.116  12.925  1.5312 -0.2677  0.2543
 5776TIP3    H238744   4.446   0.007  13.008  0.8286  0.4942  0.7241
 5777TIP3   OH238745   3.447   5.933  12.119 -0.0183  0.0289  0.1548
 5777TIP3    H138746   3.417   5.884  12.195  0.0747 -0.4216 -0.0961
 5777TIP3    H238747   3.535   5.899  12.102  0.3090  0.7559  0.3819
 5778TIP3   OH238748   0.227   3.941  15.737  0.2228 -0.1554 -0.4932
 5778TIP3    H138749   0.191   4.009  15.681 -0.7751  0.0639  0.3977
 5778TIP3    H238750   0.178   3.862  15.714  2.3028 -0.9157 -2.4907
 5779TIP3   OH238751   1.285   2.099  11.905 -0.5784  0.4363  0.0967
 5779TIP3    H138752   1.339   2.169  11.941 -1.6664  0.8586  0.9317
 5779TIP3    H238753   1.198   2.137  11.898 -1.1279 -0.7605  0.3372
 5780TIP3   OH238754   0.137   3.774  14.471 -0.4457 -0.7972 -0.0457
 5780TIP3    H138755   0.099   3.693  14.505 -1.5742  0.2523  1.2341
 5780TIP3    H238756   0.170   3.750  14.384 -0.8184 -2.6085  0.2920
 5781TIP3   OH238757   0.481   4.346  12.387 -0.3624  0.4458 -0.0412
 5781TIP3    H138758   0.469   4.413  12.320  0.7574  1.1675  0.4501
 5781TIP3    H238759   0.409   4.358  12.448  0.0768  1.5036  0.2751
 5782TIP3   OH238760   2.281   2.327   2.126 -0.8204 -0.0287 -0.0746
 5782TIP3    H138761   2.198   2.296   2.161 -1.0775  0.0746 -0.5915
 5782TIP3    H238762   2.286   2.289   2.038 -1.9505  2.8002 -1.4082
 5783TIP3   OH238763   1.140   5.116  15.521  0.2658 -0.7792  0.3861
 5783TIP3    H138764   1.103   5.128  15.608  0.3548  3.3954 -0.0488
 5783TIP3    H238765   1.229   5.150  15.527 -0.1212  0.6883 -1.5915
 5784TIP3   OH238766   6.214   2.425  13.899  0.6197 -0.8691 -0.6379
 5784TIP3    H138767   6.132   2.391  13.863  0.2508  0.4816 -1.1178
 5784TIP3    H238768   6.251   2.479  13.828 -0.2110  1.9705  1.0045
 5785TIP3   OH238769   4.036   2.446   5.595 -0.3522  0.0633 -0.2048
 5785TIP3    H138770   4.058   2.451   5.688 -0.5049  1.3080 -0.2219
 5785TIP3    H238771   4.118   2.461   5.550 -0.2946 -0.4549 -0.2765
 5786TIP3   OH238772   1.211   3.271  16.246 -0.1346 -0.3843 -0.0452
 5786TIP3    H138773   1.261   3.249  16.325 -0.9206  0.0964  0.5883
 5786TIP3    H238774   1.259   3.343  16.207  0.3821 -0.7685 -0.1303
 5787TIP3   OH238775   2.542   3.361  12.472 -0.1415 -0.6361  0.4251
 5787TIP3    H138776   2.589   3.385  12.393  0.5717 -0.7538  0.8137
 5787TIP3    H238777   2.454   3.336  12.441 -0.1111  0.0597 -0.2370
 5788TIP3   OH238778   6.572   6.595  10.512  0.4107  0.1700  0.5729
 5788TIP3    H138779   6.615   6.605  10.596 -0.1026  0.6094  0.7909
 5788TIP3    H238780   6.625   6.531  10.465  0.3384 -0.5613  1.4729
 5789TIP3   OH238781   4.247   5.267   4.665  0.1895 -0.3200  0.1673
 5789TIP3    H138782   4.303   5.236   4.736 -0.6396 -1.6002  0.2927
 5789TIP3    H238783   4.193   5.335   4.706 -0.8059 -1.5666  0.9923
 5790TIP3   OH238784   6.287   4.697  11.387  0.2956  0.4573 -0.0170
 5790TIP3    H138785   6.303   4.602  11.391 -1.1334  0.1386 -1.4332
 5790TIP3    H238786   6.234   4.715  11.464  1.4561  0.3010  0.8352
 5791TIP3   OH238787   0.999   5.627   2.204 -0.1856  0.3795  0.8369
 5791TIP3    H138788   0.975   5.594   2.291  0.5903  0.6836  1.1707
 5791TIP3    H238789   0.963   5.562   2.143 -1.7080  0.7551  1.3243
 5792TIP3   OH238790   4.738   5.866  12.544 -0.1458 -0.3341 -0.1176
 5792TIP3    H138791   4.783   5.846  12.626 -2.7649  0.3622  1.5309
 5792TIP3    H238792   4.776   5.950  12.517 -0.1667  0.0524  1.0355
 5793TIP3   OH238793   3.216   2.324  13.493  0.3875  0.2512 -0.0287
 5793TIP3    H138794   3.197   2.418  13.489  0.7859  0.2956 -0.9605
 5793TIP3    H238795   3.266   2.313  13.574 -1.2806  0.5434  1.0715
 5794TIP3   OH238796   0.132   0.478  16.699  0.0590 -0.0522 -0.1382
 5794TIP3    H138797   0.211   0.518  16.736 -0.2123 -1.4469  2.0499
 5794TIP3    H238798   0.165   0.412  16.638  0.5905 -0.0679  0.1619
 5795TIP3   OH238799   5.452   1.356   3.937 -0.1978 -0.2593  0.2907
 5795TIP3    H138800   5.361   1.384   3.949 -0.5595 -0.1397 -2.5201
 5795TIP3    H238801   5.495   1.430   3.895  1.3216 -0.2003  1.8681
 5796TIP3   OH238802   4.941   5.897   4.532 -0.8651  0.1493  0.1162
 5796TIP3    H138803   4.996   5.945   4.594 -0.7216  0.5686 -0.3387
 5796TIP3    H238804   4.904   5.964   4.475 -2.0805 -0.0922  0.5881
 5797TIP3   OH238805   2.111   3.346   4.440 -0.1176 -0.0503  0.5550
 5797TIP3    H138806   2.183   3.355   4.502  1.6991 -1.8597 -1.2244
 5797TIP3    H238807   2.083   3.254   4.449 -0.9446  0.1293 -0.1049
 5798TIP3   OH238808   2.955   0.740   2.444  0.5895  0.5156  0.1432
 5798TIP3    H138809   2.884   0.676   2.449  0.6995  0.3012 -0.9170
 5798TIP3    H238810   3.031   0.690   2.416  0.3544  1.3263 -2.0346
 5799TIP3   OH238811   2.732   2.600  13.425 -0.4007 -0.2123 -0.3697
 5799TIP3    H138812   2.748   2.664  13.356 -1.0033 -0.3341 -0.6257
 5799TIP3    H238813   2.701   2.522  13.379 -1.5410 -0.0439  0.0900
 5800TIP3   OH238814   4.667   5.281   0.262 -0.2191 -0.5549 -0.1897
 5800TIP3    H138815   4.659   5.271   0.357 -1.9707 -2.2570 -0.4845
 5800TIP3    H238816   4.737   5.345   0.250 -1.1984  1.0364  2.2868
 5801TIP3   OH238817   3.947   2.772  16.542  0.0716 -0.0331  0.2048
 5801TIP3    H138818   3.860   2.748  16.575 -0.0501 -0.1366 -0.1835
 5801TIP3    H238819   3.984   2.827  16.611 -0.8713  1.1986 -0.2445
 5802TIP3   OH238820   3.905   1.292   5.605  0.0905  0.6660  0.5003
 5802TIP3    H138821   3.875   1.364   5.661  1.1434  0.1194  1.7989
 5802TIP3    H238822   3.988   1.264   5.646 -0.7878 -1.9044  0.5572
 5803TIP3   OH238823   1.343   5.966   1.258 -0.5186  0.2169  0.0925
 5803TIP3    H138824   1.366   6.058   1.262  0.0102  0.1679 -1.5248
 5803TIP3    H238825   1.256   5.964   1.218 -0.3845 -0.0072 -0.1908
 5804TIP3   OH238826   2.440   4.421  15.720 -0.3216  0.4398  0.1566
 5804TIP3    H138827   2.366   4.368  15.750  1.6780 -1.1723  2.3850
 5804TIP3    H238828   2.495   4.361  15.671 -0.1677  1.4913 -0.9801
 5805TIP3   OH238829   3.561   2.054  13.035  0.1007 -0.3805 -0.0453
 5805TIP3    H138830   3.635   2.021  12.985 -0.6337 -0.1413 -1.2920
 5805TIP3    H238831   3.542   2.140  12.998  0.9937  0.8216  2.1507
 5806TIP3   OH238832   4.292   3.769   2.708  0.5111 -0.2838  0.3459
 5806TIP3    H138833   4.218   3.801   2.656  1.6813  0.5903 -0.8118
 5806TIP3    H238834   4.269   3.792   2.798  0.4496  2.1962 -0.2500
 5807TIP3   OH238835   3.426   2.301   1.060  0.3391  0.2147  0.3291
 5807TIP3    H138836   3.374   2.246   1.119 -1.5327 -0.8841 -2.2248
 5807TIP3    H238837   3.420   2.389   1.097 -1.5755 -0.2862  1.2617
 5808TIP3   OH238838   5.106   5.056  16.388  0.3746  0.2096 -0.4559
 5808TIP3    H138839   5.114   5.024  16.298 -2.4417 -0.2777 -0.5952
 5808TIP3    H238840   5.021   5.023  16.417  1.1099  0.6386  2.2897
 5809TIP3   OH238841   2.257   3.894   1.186 -0.1610  0.1935 -0.0390
 5809TIP3    H138842   2.168   3.929   1.189 -0.6232 -1.0367  0.5167
 5809TIP3    H238843   2.246   3.802   1.164  0.9883  0.0704 -0.1242
 5810TIP3   OH238844   2.963   0.198   1.133 -0.4757  0.2574  0.6466
 5810TIP3    H138845   2.912   0.272   1.100  0.0466  0.5180  0.4182
 5810TIP3    H238846   2.966   0.136   1.061  0.5176  0.7516  0.2483
 5811TIP3   OH238847   2.303   3.353  16.874  0.1700  0.2625 -0.9421
 5811TIP3    H138848   2.223   3.373  16.923 -0.2071 -0.9575 -1.0400
 5811TIP3    H238849   2.373   3.395  16.924 -0.3076 -0.2776  0.1945
 5812TIP3   OH238850   0.732   3.573   0.725  0.1921 -0.0363 -0.3498
 5812TIP3    H138851   0.682   3.573   0.806  0.5840 -0.2707 -0.1082
 5812TIP3    H238852   0.708   3.492   0.681 -0.0524  0.1108 -0.4916
 5813TIP3   OH238853   4.168   3.410   1.619  0.3449 -0.5115 -0.2912
 5813TIP3    H138854   4.253   3.453   1.613 -0.0223  0.0582 -1.5634
 5813TIP3    H238855   4.162   3.380   1.710  1.8616 -0.4859 -0.1769
 5814TIP3   OH238856   6.784   4.528  11.836  0.4040  0.2308 -0.7907
 5814TIP3    H138857   6.774   4.612  11.791  3.9845  1.0090 -0.3043
 5814TIP3    H238858   6.877   4.506  11.825 -0.2887 -3.2106 -0.0982
 5815TIP3   OH238859   3.369   5.395  16.025  0.4186 -0.2695  0.3776
 5815TIP3    H138860   3.378   5.409  16.120  0.2792  0.0114  0.3494
 5815TIP3    H238861   3.321   5.312  16.018 -3.5507  1.8459  0.6429
 5816TIP3   OH238862   0.137   4.868  15.073  0.1340 -0.3769 -0.0445
 5816TIP3    H138863   0.230   4.881  15.052 -0.1135 -0.5119 -1.2021
 5816TIP3    H238864   0.100   4.956  15.075  0.7848 -0.1143  2.7969
 5817TIP3   OH238865   6.723   2.499   5.644 -0.3589  0.0552 -0.2527
 5817TIP3    H138866   6.659   2.479   5.575  0.0726 -0.8334 -0.4101
 5817TIP3    H238867   6.769   2.416   5.658  0.4356  0.5655  0.1933
 5818TIP3   OH238868   0.103   3.475   2.248 -0.2506  0.1169  0.0070
 5818TIP3    H138869   0.133   3.385   2.256  1.4276  0.7090  0.8522
 5818TIP3    H238870   0.125   3.500   2.158 -2.4122 -0.8811 -0.8081
 5819TIP3   OH238871   4.458   4.954   0.134  0.1545 -0.2258 -0.1858
 5819TIP3    H138872   4.427   4.868   0.161 -0.6645  0.3126  0.5972
 5819TIP3    H238873   4.495   4.992   0.214  0.0857  0.3333 -0.4219
 5820TIP3   OH238874   1.715   1.223  13.499 -0.2609  0.4218 -0.2149
 5820TIP3    H138875   1.790   1.232  13.441 -0.5788  0.2289 -0.6641
 5820TIP3    H238876   1.751   1.228  13.587  0.3043  0.1300 -0.4290
 5821TIP3   OH238877   1.600   3.455   2.633 -0.7780 -0.2492  0.0909
 5821TIP3    H138878   1.654   3.376   2.637 -0.2314  0.0656 -0.7190
 5821TIP3    H238879   1.617   3.490   2.545 -1.7952  0.2165  0.0774
 5822TIP3   OH238880   3.816   4.668  12.682  0.5102 -0.1633 -0.0496
 5822TIP3    H138881   3.722   4.671  12.703  0.5706  0.2973  0.1696
 5822TIP3    H238882   3.819   4.661  12.587  0.2269 -2.1642  0.0808
 5823TIP3   OH238883   1.826   0.236  11.882 -0.2704 -0.0672 -0.0420
 5823TIP3    H138884   1.872   0.243  11.798 -1.9612 -3.5013 -1.3505
 5823TIP3    H238885   1.750   0.294  11.872  0.5211  0.9488 -0.1857
 5824TIP3   OH238886   3.467   6.523   1.033  0.1985  0.1875 -0.4582
 5824TIP3    H138887   3.547   6.537   1.083  0.5657 -0.6125 -0.8245
 5824TIP3    H238888   3.400   6.572   1.082  0.3555 -1.3716  1.3900
 5825TIP3   OH238889   4.501   4.896   6.093 -0.1531  0.2696  0.5792
 5825TIP3    H138890   4.473   4.906   6.184 -0.2041 -0.7621  0.6887
 5825TIP3    H238891   4.444   4.955   6.044 -0.0424  0.9224  1.2293
 5826TIP3   OH238892   0.591   3.916   3.112  0.0458 -0.1157  0.0208
 5826TIP3    H138893   0.675   3.897   3.069 -0.0310 -0.1268 -0.1238
 5826TIP3    H238894   0.577   3.840   3.169  0.3346  0.0786  0.3545
 5827TIP3   OH238895   5.101   1.442  16.240 -0.1275 -0.3276  0.2201
 5827TIP3    H138896   5.014   1.480  16.242  0.1331  0.3968 -1.4393
 5827TIP3    H238897   5.085   1.348  16.227 -0.6296  0.1763 -3.2321
 5828TIP3   OH238898   3.045   4.973   0.673  0.5072  0.2516  0.3752
 5828TIP3    H138899   3.073   4.883   0.691 -0.7243 -0.3727 -0.7256
 5828TIP3    H238900   3.127   5.023   0.667  1.2021 -0.8185  0.8646
 5829TIP3   OH238901   3.792   1.940  11.348  0.2965 -0.3223 -0.2460
 5829TIP3    H138902   3.875   1.899  11.372  1.4391  1.5836 -0.8201
 5829TIP3    H238903   3.753   1.967  11.431  0.3616 -0.9725  0.0011
 5830TIP3   OH238904   1.546   2.668   2.776 -0.6418  0.0512  0.1068
 5830TIP3    H138905   1.604   2.624   2.714 -2.0678 -1.4436 -0.1967
 5830TIP3    H238906   1.599   2.739   2.812  1.7574 -1.9138  0.6262
 5831TIP3   OH238907   5.964   5.240   6.651  0.1541  0.1779  0.4739
 5831TIP3    H138908   5.963   5.224   6.557 -0.3468  0.6443  0.3943
 5831TIP3    H238909   5.976   5.153   6.690  2.3139  0.2174 -0.0597
 5832TIP3   OH238910   5.672   0.829  13.646  0.0344 -0.0701  0.8273
 5832TIP3    H138911   5.710   0.743  13.628 -2.1595 -0.9611  0.1839
 5832TIP3    H238912   5.687   0.879  13.567  2.2400  0.5162  1.5842
 5833TIP3   OH238913   0.456   1.998  15.495 -0.5966 -0.2573  0.9745
 5833TIP3    H138914   0.379   2.027  15.543 -1.4993 -0.4994 -0.3204
 5833TIP3    H238915   0.528   2.048  15.533 -1.2422 -0.6723  2.8006
 5834TIP3   OH238916   4.079   1.322   1.101 -0.2259 -0.5145  0.4756
 5834TIP3    H138917   4.060   1.229   1.114 -0.6064 -0.3380  1.1761
 5834TIP3    H238918   4.168   1.323   1.067 -0.0664 -1.1070  0.8621
 5835TIP3   OH238919   5.271   4.874  14.978  0.1510 -0.0157 -0.2109
 5835TIP3    H138920   5.236   4.922  14.903  0.5377  0.2931 -0.2025
 5835TIP3    H238921   5.214   4.798  14.988 -1.8542  1.5870  1.1436
 5836TIP3   OH238922   1.248   0.642   1.390 -0.4649 -0.1182  0.4028
 5836TIP3    H138923   1.322   0.632   1.450  0.3741  0.4688 -0.5121
 5836TIP3    H238924   1.240   0.737   1.378 -0.0021 -0.2652 -1.1598
 5837TIP3   OH238925   4.762   1.588   5.226  0.1585  0.1478 -0.3413
 5837TIP3    H138926   4.819   1.659   5.255  0.6964  0.1941 -1.5061
 5837TIP3    H238927   4.818   1.534   5.170 -0.6734 -0.3308 -0.7154
 5838TIP3   OH238928   1.394   1.512  14.211  0.0803  0.2002 -0.4847
 5838TIP3    H138929   1.434   1.474  14.289 -0.5458  1.2330  0.3435
 5838TIP3    H238930   1.304   1.478  14.210 -0.5450  1.7702  0.3621
 5839TIP3   OH238931   0.897   1.189   2.853 -0.2365  0.1660  0.5616
 5839TIP3    H138932   0.893   1.271   2.901  0.5788  1.6245 -1.7798
 5839TIP3    H238933   0.927   1.214   2.765 -0.5282 -2.5546 -0.3554
 5840TIP3   OH238934   0.113   5.097  16.335  0.1802  0.8523  0.3912
 5840TIP3    H138935   0.197   5.129  16.301  0.5095 -0.4159 -0.0271
 5840TIP3    H238936   0.119   5.108  16.430  0.0703  2.5064  0.2210
 5841TIP3   OH238937   4.967   2.570  15.405 -0.5297 -0.0736  0.3119
 5841TIP3    H138938   5.011   2.653  15.387 -0.3923 -0.0627  0.7058
 5841TIP3    H238939   4.979   2.556  15.499 -1.5924  0.0553  0.4708
 5842TIP3   OH238940   4.048   2.087   1.330  0.1273 -0.0974  0.1503
 5842TIP3    H138941   4.011   2.093   1.242  0.8282  0.0379 -0.1370
 5842TIP3    H238942   3.990   2.026   1.377 -0.2851 -0.1125 -0.3755
 5843TIP3   OH238943   1.360   5.930   3.867 -0.1701 -0.3639 -0.6257
 5843TIP3    H138944   1.362   5.961   3.776 -0.1105  0.4875 -0.3328
 5843TIP3    H238945   1.408   5.996   3.916  3.0594 -2.6481 -0.5244
 5844TIP3   OH238946   6.285   3.082   5.758  0.3684  0.6053  0.3201
 5844TIP3    H138947   6.369   3.116   5.788  0.8958 -1.4735  1.3246
 5844TIP3    H238948   6.307   3.017   5.692 -0.4227 -0.0874  0.7208
 5845TIP3   OH238949   6.007   4.938   5.467  0.0478  0.2672 -0.2678
 5845TIP3    H138950   6.088   4.987   5.479  0.5559 -0.7850  0.7194
 5845TIP3    H238951   5.940   4.992   5.508  0.7803 -0.3266  1.8110
 5846TIP3   OH238952   0.808   2.792  12.511 -0.0619  0.3641  0.5153
 5846TIP3    H138953   0.775   2.810  12.423 -0.8914  0.9970  0.9464
 5846TIP3    H238954   0.730   2.780  12.564  0.4035 -4.4690  0.3170
 5847TIP3   OH238955   5.388   5.600   6.395 -0.0752  0.2395  0.0641
 5847TIP3    H138956   5.360   5.516   6.431 -0.6937  0.5244  0.2470
 5847TIP3    H238957   5.386   5.588   6.300  0.0221 -0.0088  0.0944
 5848TIP3   OH238958   0.123   2.264   4.510 -0.4095  0.0038 -0.0131
 5848TIP3    H138959   0.202   2.254   4.457 -1.5839  0.9973 -2.0168
 5848TIP3    H238960   0.068   2.189   4.487  0.7408 -1.8482  2.9311
 5849TIP3   OH238961   3.978   2.686   2.639  0.2033  0.6340 -0.5640
 5849TIP3    H138962   4.016   2.748   2.577 -0.4030  1.1313 -0.4401
 5849TIP3    H238963   3.928   2.625   2.585  0.6311  0.3734 -0.6673
 5850TIP3   OH238964   1.499   4.483   4.102  0.0888  0.0749 -0.7820
 5850TIP3    H138965   1.498   4.453   4.193  1.6415  1.3610 -0.3231
 5850TIP3    H238966   1.588   4.463   4.071 -0.1708  0.3954 -1.7521
 5851TIP3   OH238967   4.785   3.250  16.338 -0.1409  0.1014  0.3161
 5851TIP3    H138968   4.712   3.216  16.389 -0.0354 -0.5603  0.0402
 5851TIP3    H238969   4.833   3.306  16.399 -0.4827 -0.0191  0.6988
 5852TIP3   OH238970   1.692   3.715  15.129 -0.0038 -0.6789  0.0399
 5852TIP3    H138971   1.621   3.689  15.071  0.1422  0.3446 -0.6147
 5852TIP3    H238972   1.725   3.796  15.092  1.0951 -0.8086  0.7004
 5853TIP3   OH238973   1.223   3.754  12.317  0.0451 -0.4193 -0.2007
 5853TIP3    H138974   1.234   3.678  12.260 -0.2728  1.3407 -2.7428
 5853TIP3    H238975   1.153   3.730  12.377  1.9728 -3.2000  1.0053
 5854TIP3   OH238976   3.716   2.992   1.960 -0.1303  0.0695 -0.5026
 5854TIP3    H138977   3.762   3.074   1.939  0.9569  0.1285  1.9942
 5854TIP3    H238978   3.772   2.924   1.922  0.2121  0.3409 -0.4966
 5855TIP3   OH238979   2.379   3.120  13.225  0.0979 -0.0114  0.0876
 5855TIP3    H138980   2.323   3.192  13.255 -0.5533  0.7369 -2.7591
 5855TIP3    H238981   2.317   3.049  13.205  0.7207 -1.3619  2.7359
 5856TIP3   OH238982   6.688   2.380   4.607  0.2792  0.1659 -0.4751
 5856TIP3    H138983   6.633   2.341   4.675  0.1154  2.5941  0.8585
 5856TIP3    H238984   6.754   2.313   4.587 -1.1971 -1.5382  0.2386
 5857TIP3   OH238985   0.404   3.327   2.841  0.2505 -0.4289 -0.4130
 5857TIP3    H138986   0.499   3.335   2.831  0.4346 -0.6700  0.9725
 5857TIP3    H238987   0.393   3.254   2.901 -0.6993  1.0838  1.3102
 5858TIP3   OH238988   5.824   0.903   4.889  0.2752  0.5570 -0.2889
 5858TIP3    H138989   5.893   0.844   4.921 -0.7789 -0.6286 -0.1859
 5858TIP3    H238990   5.757   0.901   4.956 -0.6405  0.3397 -1.1943
 5859TIP3   OH238991   5.177   1.080   6.030  0.2541 -0.7235 -0.0470
 5859TIP3    H138992   5.183   1.033   5.947 -1.4810 -2.5472  0.8266
 5859TIP3    H238993   5.087   1.115   6.031  0.3750 -0.4329  0.9010
 5860TIP3   OH238994   4.872   1.542  15.230 -0.2968 -0.0090 -0.1750
 5860TIP3    H138995   4.938   1.591  15.180 -0.2066  0.9823  0.9021
 5860TIP3    H238996   4.800   1.604  15.242 -0.8086 -0.6179 -0.0657
 5861TIP3   OH238997   2.378   3.617  13.750  1.0426 -0.2403  0.5316
 5861TIP3    H138998   2.332   3.686  13.702  0.0567 -0.5353  1.0367
 5861TIP3    H238999   2.344   3.535  13.712  2.1788 -0.4424 -0.0431
 5862TIP3   OH239000   2.438   5.055   3.069 -0.1970 -0.2717 -0.0487
 5862TIP3    H139001   2.497   5.130   3.077 -0.5948 -0.1660  2.4330
 5862TIP3    H239002   2.488   4.981   3.106 -0.8776 -0.5928  0.2465
 5863TIP3   OH239003   5.889   6.463   4.393 -0.6135 -0.0114  0.3513
 5863TIP3    H139004   5.865   6.536   4.450 -2.1845  0.5969 -1.0435
 5863TIP3    H239005   5.941   6.503   4.323  2.2188 -0.9088  1.8380
 5864TIP3   OH239006   2.999   0.806  14.818  0.0999 -0.3034  0.3279
 5864TIP3    H139007   3.013   0.880  14.759 -0.1194 -1.3616 -1.0773
 5864TIP3    H239008   2.904   0.800  14.826  0.1144 -0.4651  0.3808
 5865TIP3   OH239009   2.406   3.672  14.381  0.2222 -0.0900  0.2014
 5865TIP3    H139010   2.446   3.608  14.324  1.3926  0.6627  0.1674
 5865TIP3    H239011   2.479   3.715  14.425 -0.5361  1.1711  0.2660
 5866TIP3   OH239012   5.851   5.094   1.566  0.6829  0.1485  0.4192
 5866TIP3    H139013   5.885   5.005   1.554  0.4678  0.2691 -1.2051
 5866TIP3    H239014   5.771   5.096   1.513 -0.4410  0.6723  2.1157
 5867TIP3   OH239015   0.392   0.207  16.802  0.2948 -0.1291  0.3306
 5867TIP3    H139016   0.387   0.276  16.868 -1.0629 -0.5829  0.7080
 5867TIP3    H239017   0.377   0.126  16.851 -2.1447 -0.3529 -0.7517
 5868TIP3   OH239018   6.338   2.675   3.383 -0.0067 -0.0502 -0.0077
 5868TIP3    H139019   6.345   2.748   3.321  0.7563  0.4827  0.6907
 5868TIP3    H239020   6.408   2.615   3.357  1.3036  0.8921  1.2549
 5869TIP3   OH239021   0.526   2.455  17.192 -0.0358 -0.3273  0.1276
 5869TIP3    H139022   0.436   2.472  17.163  0.1130 -0.8718 -0.6540
 5869TIP3    H239023   0.549   2.371  17.152  1.0557  0.1315 -0.2300
 5870TIP3   OH239024   4.729   6.228   0.107 -0.3347  0.6869 -0.0671
 5870TIP3    H139025   4.737   6.215   0.013  1.8372 -2.4651  0.4934
 5870TIP3    H239026   4.773   6.312   0.123  1.4225  0.0706 -1.5506
 5871TIP3   OH239027   2.822   3.558   5.504  0.2326 -0.4293 -0.1055
 5871TIP3    H139028   2.837   3.642   5.547  0.0306 -0.7240  0.5512
 5871TIP3    H239029   2.882   3.497   5.548  1.6889 -0.2652 -1.7897
 5872TIP3   OH239030   0.452   1.887  11.042  0.6293 -0.7345 -0.0841
 5872TIP3    H139031   0.445   1.982  11.034  1.4180 -0.6543  0.1389
 5872TIP3    H239032   0.449   1.855  10.951  1.4484 -0.4152 -0.2292
 5873TIP3   OH239033   3.393   4.827  14.361 -0.2658 -0.0076  0.0659
 5873TIP3    H139034   3.461   4.863  14.419  0.5337  2.0513 -2.0309
 5873TIP3    H239035   3.435   4.754  14.317  0.3843  0.7783 -0.6511
 5874TIP3   OH239036   2.673   1.357   0.910  0.3050  0.2009 -1.0194
 5874TIP3    H139037   2.740   1.368   0.842  2.3730  2.0346  1.2532
 5874TIP3    H239038   2.658   1.445   0.944 -0.3740 -0.7352  1.2019
 5875TIP3   OH239039   5.166   2.630   5.873  0.3443  0.2139  0.3344
 5875TIP3    H139040   5.199   2.716   5.848  0.7594 -0.0179  0.0759
 5875TIP3    H239041   5.096   2.648   5.936  1.0388  0.7037  0.9792
 5876TIP3   OH239042   4.328   5.049   5.943  0.3441 -0.1466 -0.7396
 5876TIP3    H139043   4.317   5.059   5.849 -1.1900 -1.9931 -0.8075
 5876TIP3    H239044   4.238   5.036   5.976  0.9426 -0.3802  0.8503
 5877TIP3   OH239045   5.022   3.182   0.312  0.5418 -0.1254  0.1382
 5877TIP3    H139046   4.980   3.110   0.265  0.1640  0.6620 -0.7584
 5877TIP3    H239047   4.955   3.251   0.314  0.9551  0.2627  0.8299
 5878TIP3   OH239048   4.426   1.186  16.104 -0.0873  0.3989  0.0253
 5878TIP3    H139049   4.499   1.132  16.135  0.3314  0.8028 -0.2374
 5878TIP3    H239050   4.448   1.205  16.013 -0.6358  0.3391 -0.1214
 5879TIP3   OH239051   4.392   0.795  14.603  0.0946  0.7023  0.0953
 5879TIP3    H139052   4.427   0.708  14.618  0.4606  0.6330 -1.0716
 5879TIP3    H239053   4.388   0.836  14.689 -0.3153 -0.5542  0.6822
 5880TIP3   OH239054   3.981   1.868  12.667 -0.3331  0.1625 -0.0568
 5880TIP3    H139055   4.046   1.858  12.598  1.0036 -3.2423  1.5693
 5880TIP3    H239056   3.912   1.807  12.644 -0.7709  0.3944  0.6312
 5881TIP3   OH239057   2.332   1.432   1.600 -0.3527  0.2798  0.3262
 5881TIP3    H139058   2.364   1.413   1.688 -0.2010 -2.0134 -0.2051
 5881TIP3    H239059   2.390   1.383   1.542 -0.7461  1.3827 -1.0403
 5882TIP3   OH239060   5.392   1.745   3.984  0.0222 -0.0563  0.2119
 5882TIP3    H139061   5.421   1.723   4.073  0.2972 -0.9359 -0.0871
 5882TIP3    H239062   5.318   1.804   3.997  0.7329  0.6908  1.0104
 5883TIP3   OH239063   2.375   1.552  11.333  0.3316 -0.3070  0.5407
 5883TIP3    H139064   2.296   1.499  11.323 -0.0772  0.7958 -2.6136
 5883TIP3    H239065   2.408   1.563  11.244  2.5301  1.5554  1.5321
 5884TIP3   OH239066   2.036   6.608   2.674  0.4717  0.0125  0.2727
 5884TIP3    H139067   2.079   6.548   2.735 -2.0619 -1.5039  0.5894
 5884TIP3    H239068   2.013   6.684   2.727 -1.9314 -1.3991  1.3077
 5885TIP3   OH239069   2.958   2.490  14.988  0.0639 -0.1680 -0.1154
 5885TIP3    H139070   2.959   2.580  14.954  0.7967  0.4729  1.5249
 5885TIP3    H239071   3.049   2.462  14.982  0.2841  0.0895  1.5697
 5886TIP3   OH239072   3.060   3.391   0.925 -0.0408  0.2545  0.6733
 5886TIP3    H139073   2.987   3.359   0.874  0.2514  0.4528  0.1266
 5886TIP3    H239074   3.029   3.390   1.016 -0.7498  0.4441  0.4301
 5887TIP3   OH239075   4.681   5.410   5.561  0.2705 -0.3790 -0.8353
 5887TIP3    H139076   4.728   5.469   5.619  0.6215 -2.3429  0.9509
 5887TIP3    H239077   4.620   5.363   5.618  1.2574 -3.0002 -1.8407
 5888TIP3   OH239078   0.574   1.288  15.642 -0.3170 -0.5538 -0.2436
 5888TIP3    H139079   0.498   1.231  15.656 -1.9368  1.3433 -1.0838
 5888TIP3    H239080   0.576   1.303  15.547 -0.4525  1.4959  0.0662
 5889TIP3   OH239081   5.342   2.605  15.335 -0.1527 -0.8590  0.3911
 5889TIP3    H139082   5.395   2.577  15.410  1.9470  0.3088 -0.5740
 5889TIP3    H239083   5.378   2.556  15.261  0.4433  0.8521 -0.4891
 5890TIP3   OH239084   5.607   4.859  12.596 -0.0018 -0.7675 -0.0360
 5890TIP3    H139085   5.572   4.832  12.680  2.7013  0.4817  1.5593
 5890TIP3    H239086   5.681   4.800  12.581  2.1562  1.6916  0.5443
 5891TIP3   OH239087   0.796   1.509   5.018  0.0125  0.8344  0.5065
 5891TIP3    H139088   0.725   1.480   5.076  2.2117 -0.3070  2.6970
 5891TIP3    H239089   0.819   1.597   5.051  0.6502  0.5587  0.8067
 5892TIP3   OH239090   3.126   1.170   5.679 -0.2293  0.3214 -0.0310
 5892TIP3    H139091   3.176   1.090   5.694 -2.6582 -1.1675  0.4836
 5892TIP3    H239092   3.124   1.180   5.584 -1.2605 -1.1687 -0.1919
 5893TIP3   OH239093   2.118   5.331  10.568 -0.8919  0.5291  0.2452
 5893TIP3    H139094   2.174   5.361  10.639 -1.2488  0.5433  0.5199
 5893TIP3    H239095   2.161   5.253  10.534  0.2796  1.5862 -0.7481
 5894TIP3   OH239096   2.668   4.093   3.848  0.1011  0.4614  0.0121
 5894TIP3    H139097   2.606   4.044   3.795 -0.3648  2.8466 -1.6864
 5894TIP3    H239098   2.750   4.090   3.799  0.1592  1.0698  0.0629
 5895TIP3   OH239099   6.319   0.198  16.299  0.5085 -0.1288  0.0402
 5895TIP3    H139100   6.407   0.226  16.322 -1.5220  4.3361  3.1392
 5895TIP3    H239101   6.303   0.238  16.213  0.5752  1.3115  0.6903
 5896TIP3   OH239102   4.375   6.304   5.994 -0.7099  0.0820 -0.0335
 5896TIP3    H139103   4.329   6.364   6.052 -1.4649  0.1295 -0.6697
 5896TIP3    H239104   4.306   6.259   5.946 -0.1016  0.1546 -0.9999
 5897TIP3   OH239105   1.705   1.113  12.169 -0.0566  0.1407  0.6565
 5897TIP3    H139106   1.681   1.192  12.218 -0.8968 -0.6655  1.5776
 5897TIP3    H239107   1.745   1.056  12.235 -1.1640 -0.9515  0.3864
 5898TIP3   OH239108   6.066   5.859  15.290 -0.9791  0.5740  0.7480
 5898TIP3    H139109   6.142   5.909  15.259 -0.5010 -0.7142 -0.1911
 5898TIP3    H239110   5.994   5.888  15.234 -0.6273 -0.0248 -0.0228
 5899TIP3   OH239111   4.454   0.404   1.186 -0.4234 -0.7836  0.5789
 5899TIP3    H139112   4.492   0.492   1.180 -0.1171 -0.9466  0.0345
 5899TIP3    H239113   4.517   0.349   1.139 -0.3493 -1.3786  1.3644
 5900TIP3   OH239114   3.599   6.536  12.161 -0.6594 -0.1161  0.1268
 5900TIP3    H139115   3.639   6.618  12.192  0.8219 -0.6075 -0.4612
 5900TIP3    H239116   3.515   6.531  12.208 -0.3052  1.2306  0.9185
 5901TIP3   OH239117   3.768   6.227  14.658  0.7476  0.2249 -0.2320
 5901TIP3    H139118   3.708   6.157  14.685  0.8113  0.5712  0.8259
 5901TIP3    H239119   3.852   6.201  14.695  1.1133  0.0854 -1.1451
 5902TIP3   OH239120   2.795   3.494  11.247 -0.7129 -0.0769  0.0257
 5902TIP3    H139121   2.778   3.412  11.201 -0.5786  1.1039 -2.2374
 5902TIP3    H239122   2.710   3.538  11.249 -0.2641  0.9079 -1.2597
 5903TIP3   OH239123   2.262   3.239   5.770 -0.6564  0.1086 -0.4681
 5903TIP3    H139124   2.263   3.150   5.806  0.4137  0.9201  1.5908
 5903TIP3    H239125   2.176   3.248   5.729 -2.2859 -0.5748  2.6686
 5904TIP3   OH239126   2.426   4.556  15.482 -0.2102 -0.7963  0.1436
 5904TIP3    H139127   2.520   4.569  15.484 -0.5498  2.1369 -0.1863
 5904TIP3    H239128   2.407   4.501  15.558  1.6514 -0.6490  0.7339
 5905TIP3   OH239129   6.407   3.483   0.598  0.0956 -0.3231 -0.0855
 5905TIP3    H139130   6.349   3.552   0.632  0.6643 -0.1400  0.5298
 5905TIP3    H239131   6.396   3.410   0.659 -0.7990 -0.9272 -0.9575
 5906TIP3   OH239132   1.620   0.529   0.117 -0.3826 -0.3989  0.1973
 5906TIP3    H139133   1.592   0.607   0.068  1.6578 -0.2983 -0.8796
 5906TIP3    H239134   1.693   0.560   0.171  1.2648 -1.8272 -1.1768
 5907TIP3   OH239135   6.297   4.571  12.282  0.3875 -0.7380 -0.0254
 5907TIP3    H139136   6.292   4.497  12.343  1.4959  0.3707  1.4585
 5907TIP3    H239137   6.385   4.606  12.294 -0.1052  0.8100 -0.7188
 5908TIP3   OH239138   0.941   5.779  11.745 -0.2364  0.4358 -0.1074
 5908TIP3    H139139   0.937   5.872  11.725 -0.3993  0.2349 -1.0508
 5908TIP3    H239140   0.886   5.768  11.822  0.0928  1.1769  0.2304
 5909TIP3   OH239141   4.357   4.944  11.978  0.4259  0.1435  0.4049
 5909TIP3    H139142   4.362   4.848  11.977  2.9888  0.2516 -0.3561
 5909TIP3    H239143   4.327   4.967  11.890  0.9428  0.0731  0.2061
 5910TIP3   OH239144   5.419   6.278   0.270  0.2886 -0.1253 -0.2509
 5910TIP3    H139145   5.370   6.255   0.191 -0.0359  1.6240 -0.6020
 5910TIP3    H239146   5.354   6.320   0.326  1.3367  2.1556 -0.6853
 5911TIP3   OH239147   0.781   6.517   2.519 -0.1363  0.3691  0.2715
 5911TIP3    H139148   0.837   6.595   2.527  1.3317 -0.7205  0.8450
 5911TIP3    H239149   0.792   6.488   2.429  2.7860 -1.6961  1.2305
 5912TIP3   OH239150   4.963   5.379  15.290  0.0291 -0.3622 -0.6911
 5912TIP3    H139151   4.981   5.308  15.228  2.4790 -1.1393  0.8624
 5912TIP3    H239152   4.911   5.339  15.359  2.4684 -1.0200  0.8288
 5913TIP3   OH239153   1.688   3.475   1.407  0.0116  0.2667  1.0970
 5913TIP3    H139154   1.641   3.550   1.442  2.7007  1.7300  1.7052
 5913TIP3    H239155   1.672   3.405   1.471 -1.4950  0.6726  1.1754
 5914TIP3   OH239156   5.588   4.756   3.585 -0.1347  0.1205  0.5739
 5914TIP3    H139157   5.631   4.836   3.553  0.7328 -0.0336  1.3220
 5914TIP3    H239158   5.586   4.698   3.509  0.9185  0.1592  0.5127
 5915TIP3   OH239159   2.639   3.175   5.586 -0.6687 -0.0389 -0.4089
 5915TIP3    H139160   2.555   3.128   5.580 -0.9029  0.5621 -2.0686
 5915TIP3    H239161   2.681   3.159   5.502  0.7374 -0.0224  0.2820
 5916TIP3   OH239162   3.875   2.451  15.364  0.0856  0.3324 -0.1541
 5916TIP3    H139163   3.962   2.481  15.390 -0.2879  0.0727  1.4532
 5916TIP3    H239164   3.815   2.511  15.407 -0.5474  0.1167 -0.7375
 5917TIP3   OH239165   0.257   3.297  12.582 -0.5188  0.2213 -0.6218
 5917TIP3    H139166   0.256   3.363  12.651 -0.2137 -1.5992  1.1681
 5917TIP3    H239167   0.214   3.339  12.508 -0.1145  2.4976  0.4038
 5918TIP3   OH239168   0.935   6.708  16.540  0.1307 -0.1743 -0.1770
 5918TIP3    H139169   0.995   6.750  16.602  0.5370 -0.9926 -0.0002
 5918TIP3    H239170   0.956   6.748  16.456  0.4014  0.0967  0.0189
 5919TIP3   OH239171   5.141   0.121   4.436  0.0296 -0.5758 -0.3957
 5919TIP3    H139172   5.056   0.107   4.395 -0.4442  0.5530  0.1798
 5919TIP3    H239173   5.131   0.086   4.525 -0.2340  0.6491  0.0749
 5920TIP3   OH239174   4.411   5.292   3.715  0.2396  0.9755  0.4350
 5920TIP3    H139175   4.367   5.252   3.640  1.5349  1.8453 -0.8199
 5920TIP3    H239176   4.387   5.384   3.710 -0.2041  0.9156  1.4852
 5921TIP3   OH239177   2.413   6.142   2.292  0.4279 -0.0523  0.1341
 5921TIP3    H139178   2.368   6.150   2.208  1.7597 -1.7077 -0.7753
 5921TIP3    H239179   2.347   6.166   2.357 -0.6743  1.0727 -1.3671
 5922TIP3   OH239180   5.577   2.554  15.169 -0.6382  0.1046 -0.4485
 5922TIP3    H139181   5.610   2.476  15.124  1.0774  0.8563 -0.5026
 5922TIP3    H239182   5.647   2.579  15.229 -1.8268  0.6962  0.7353
 5923TIP3   OH239183   0.967   2.848   3.355  0.5390 -0.5322  0.1738
 5923TIP3    H139184   1.052   2.876   3.322 -0.7151  1.6196 -1.4222
 5923TIP3    H239185   0.911   2.845   3.276 -1.4082  0.3613  1.4722
 5924TIP3   OH239186   4.594   1.826   4.726  0.0584 -0.5466 -0.2044
 5924TIP3    H139187   4.581   1.766   4.652 -0.7010 -0.3236 -0.2464
 5924TIP3    H239188   4.595   1.769   4.803 -2.6332 -0.4285 -0.0470
 5925TIP3   OH239189   4.401   2.613  14.932 -0.3010  0.1549 -0.3221
 5925TIP3    H139190   4.344   2.547  14.893 -0.7274 -0.3342  1.0849
 5925TIP3    H239191   4.344   2.687  14.952 -0.3743 -0.1577  0.6688
 5926TIP3   OH239192   4.037   4.592  16.331 -0.7820 -0.3631  0.1389
 5926TIP3    H139193   4.075   4.614  16.416 -0.8948 -1.0286  0.3626
 5926TIP3    H239194   3.942   4.604  16.343 -0.6559  1.2446 -0.4084
 5927TIP3   OH239195   5.162   4.765  13.129  0.8438 -0.0900  0.1078
 5927TIP3    H139196   5.151   4.780  13.035  1.6618  1.0289  0.1878
 5927TIP3    H239197   5.155   4.852  13.169 -0.6492 -0.6944  1.2084
 5928TIP3   OH239198   3.807   0.392  12.146 -0.0548 -0.1669  0.1873
 5928TIP3    H139199   3.856   0.420  12.070 -1.1028  1.8181  0.1985
 5928TIP3    H239200   3.723   0.363  12.111  0.3828 -1.6525  0.3519
 5929TIP3   OH239201   1.923   5.606  11.799 -0.6636  0.2557 -0.2008
 5929TIP3    H139202   1.866   5.532  11.782  1.2357 -1.0246 -1.2600
 5929TIP3    H239203   1.920   5.657  11.718  0.5760 -0.4438 -0.6995
 5930TIP3   OH239204   1.441   4.243   4.925 -0.0804  0.7386  0.2317
 5930TIP3    H139205   1.390   4.183   4.871 -3.7822  1.8043  2.3426
 5930TIP3    H239206   1.474   4.189   4.997 -2.4771  0.9204  1.5264
 5931TIP3   OH239207   6.073   3.563  15.540  0.4639 -0.1410  0.2416
 5931TIP3    H139208   6.152   3.545  15.488 -1.0972 -1.3321 -1.8364
 5931TIP3    H239209   6.105   3.612  15.615  3.5645 -2.7583  0.7983
 5932TIP3   OH239210   5.760   2.899   0.842 -0.1148  0.3834 -0.4823
 5932TIP3    H139211   5.689   2.834   0.841 -0.7314  1.0452 -1.6440
 5932TIP3    H239212   5.816   2.873   0.769  0.0156  0.7428 -0.5087
 5933TIP3   OH239213   2.627   0.265  14.777  0.3328 -0.1068  0.0663
 5933TIP3    H139214   2.588   0.348  14.749 -0.1966  0.5129  2.5407
 5933TIP3    H239215   2.699   0.251  14.715 -0.4215  1.4906 -1.2298
 5934TIP3   OH239216   4.490   0.354  14.412 -0.1566  0.0093  0.5856
 5934TIP3    H139217   4.472   0.372  14.320  0.9686  1.3171  0.6048
 5934TIP3    H239218   4.403   0.347  14.452 -0.6508  0.1976 -0.4287
 5935TIP3   OH239219   3.568   2.054   2.180  0.4069 -0.4495  1.0032
 5935TIP3    H139220   3.505   1.984   2.197 -0.7182  0.6197  1.2738
 5935TIP3    H239221   3.601   2.078   2.266  0.5867 -0.4372  0.9321
 5936TIP3   OH239222   2.302   0.539  13.924  0.0745  0.2406  0.1953
 5936TIP3    H139223   2.226   0.506  13.972  0.1329  0.6711  0.5811
 5936TIP3    H239224   2.373   0.481  13.950 -0.4761 -1.2047 -1.4503
 5937TIP3   OH239225   0.233   4.549  11.055  0.5296  0.0226 -0.5484
 5937TIP3    H139226   0.154   4.501  11.032  0.6043 -0.6543  0.5417
 5937TIP3    H239227   0.304   4.485  11.047  0.5104 -0.3566  1.8559
 5938TIP3   OH239228   6.406   5.610  16.054 -0.0582  0.0605 -0.0204
 5938TIP3    H139229   6.444   5.692  16.087 -1.0923  0.2545  0.7378
 5938TIP3    H239230   6.411   5.550  16.129  0.6241 -0.5423 -0.5494
 5939TIP3   OH239231   2.379   1.754   4.943 -0.3253  0.8972  0.6600
 5939TIP3    H139232   2.458   1.803   4.917  0.0798 -0.3683 -0.5416
 5939TIP3    H239233   2.306   1.806   4.908  0.0363  1.3311  0.5444
 5940TIP3   OH239234   2.649   2.471  13.808 -0.2987  0.0392  0.2372
 5940TIP3    H139235   2.595   2.447  13.733 -0.6245  0.2686  0.3969
 5940TIP3    H239236   2.707   2.396  13.821 -1.2059 -0.6128  0.6388
 5941TIP3   OH239237   6.000   1.355  16.830 -0.4055 -0.5201 -0.0452
 5941TIP3    H139238   5.954   1.394  16.905 -0.7107  1.3364 -1.1697
 5941TIP3    H239239   6.049   1.428  16.792  0.8096 -1.7556 -0.8582
 5942TIP3   OH239240   0.167   2.680   5.466  0.0086 -0.0067  0.4390
 5942TIP3    H139241   0.084   2.728   5.467  0.2027  0.3479  2.4413
 5942TIP3    H239242   0.151   2.604   5.410 -0.8787  1.3986 -1.2742
 5943TIP3   OH239243   2.451   2.575   1.091  0.1757 -0.1306  0.0216
 5943TIP3    H139244   2.409   2.536   1.168 -0.8969  0.8061 -0.0770
 5943TIP3    H239245   2.401   2.655   1.074 -0.0524 -0.6863 -2.0767
 5944TIP3   OH239246   3.259   3.349   2.201 -0.3449 -0.1244 -0.1556
 5944TIP3    H139247   3.204   3.421   2.172  1.7549  1.7090  0.2526
 5944TIP3    H239248   3.287   3.307   2.119 -2.1595 -0.9515 -0.3672
 5945TIP3   OH239249   5.532   6.349  14.354 -0.5309  0.4521 -0.2075
 5945TIP3    H139250   5.611   6.331  14.304 -1.4556 -1.5377 -0.9834
 5945TIP3    H239251   5.561   6.359  14.444  0.0979 -4.8411  0.2845
 5946TIP3   OH239252   5.423   6.470  13.263  0.0188 -0.0144 -0.3331
 5946TIP3    H139253   5.497   6.409  13.260 -0.0698 -0.1635  0.3994
 5946TIP3    H239254   5.369   6.439  13.335 -0.5042  0.3930 -0.5437
 5947TIP3   OH239255   1.071   6.200   0.436 -0.2929 -0.2577 -0.3605
 5947TIP3    H139256   1.160   6.180   0.465 -0.8499 -1.2814  0.7118
 5947TIP3    H239257   1.082   6.263   0.365  1.2711 -0.1588 -0.0504
 5948TIP3   OH239258   2.539   0.802  14.853  0.1243 -0.1952  0.5596
 5948TIP3    H139259   2.526   0.735  14.919  0.5308 -0.0218  0.8164
 5948TIP3    H239260   2.539   0.885  14.901  2.2094 -0.1859  0.5853
 5949TIP3   OH239261   5.481   4.849  12.245  0.6287 -0.2684 -0.2411
 5949TIP3    H139262   5.492   4.754  12.243 -1.7140 -0.5743 -4.0408
 5949TIP3    H239263   5.387   4.862  12.252  1.0370  1.8351  1.9982
 5950TIP3   OH239264   6.324   3.944  15.670  0.1613 -0.5045  0.2549
 5950TIP3    H139265   6.317   4.039  15.660 -0.3252 -0.4946  0.6897
 5950TIP3    H239266   6.412   3.923  15.638 -0.3193 -0.1240 -1.3290
 5951TIP3   OH239267   5.936   0.719   3.352 -0.2577  0.0985  0.4828
 5951TIP3    H139268   5.885   0.797   3.373  1.4559  1.2232  0.5322
 5951TIP3    H239269   5.941   0.671   3.435  2.1365  1.9900  1.4974
 5952TIP3   OH239270   4.066   2.606   1.770  0.2095  0.2663 -0.0230
 5952TIP3    H139271   4.005   2.680   1.771  1.3160  1.2393 -1.8434
 5952TIP3    H239272   4.152   2.646   1.762  0.8758 -1.2009 -0.3322
 5953TIP3   OH239273   2.434   6.261   5.461 -0.0130 -0.6937 -0.3619
 5953TIP3    H139274   2.403   6.228   5.545  0.4772  1.2154  0.5955
 5953TIP3    H239275   2.495   6.195   5.430 -1.2455 -2.0885  0.1051
 5954TIP3   OH239276   5.220   3.711  16.251  0.1074 -0.0342  0.0563
 5954TIP3    H139277   5.187   3.717  16.341  0.3723  1.1684  0.0783
 5954TIP3    H239278   5.151   3.752  16.198 -0.3231 -1.2634 -0.3750
 5955TIP3   OH239279   1.631   4.248   1.446 -0.4023  0.0267 -0.6863
 5955TIP3    H139280   1.588   4.164   1.462 -0.1667  0.1199  0.5078
 5955TIP3    H239281   1.663   4.275   1.533  0.4944  0.8060 -1.2505
 5956TIP3   OH239282   6.772   5.135  14.471  0.4792  0.3971 -0.5131
 5956TIP3    H139283   6.788   5.136  14.566 -0.0137  0.5832 -0.4291
 5956TIP3    H239284   6.694   5.080  14.461  0.0360  1.0597 -0.7271
 5957TIP3   OH239285   3.518   0.033  15.799  0.5174 -0.0454 -0.3771
 5957TIP3    H139286   3.525   0.045  15.704  1.6857 -2.0063 -0.5635
 5957TIP3    H239287   3.568   0.107  15.835 -0.4186  1.0423 -1.2418
 5958TIP3   OH239288   0.625   0.933  13.945  0.2374 -0.4928 -0.4263
 5958TIP3    H139289   0.534   0.941  13.974  0.2592  0.5272 -0.6173
 5958TIP3    H239290   0.677   0.961  14.020  0.4651 -2.6518  0.2592
 5959TIP3   OH239291   6.086   2.017  11.826  0.1105  0.0762 -0.2454
 5959TIP3    H139292   6.181   2.028  11.821  0.1961 -0.9261 -0.8658
 5959TIP3    H239293   6.074   1.930  11.863 -0.5675  0.0361 -0.5553
 5960TIP3   OH239294   4.650   0.437  12.233 -0.4124 -0.0605 -1.1245
 5960TIP3    H139295   4.664   0.522  12.276  0.6666 -1.0965  0.5967
 5960TIP3    H239296   4.675   0.453  12.142  1.2950  1.0771 -0.4946
 5961TIP3   OH239297   0.399   3.454  16.470  0.2861  0.1871  0.0040
 5961TIP3    H139298   0.396   3.433  16.377  1.1873  0.3982 -0.0764
 5961TIP3    H239299   0.484   3.421  16.499  0.6387  1.4565  0.4286
 5962TIP3   OH239300   4.394   3.463  11.910  0.6349  0.1671  0.5393
 5962TIP3    H139301   4.454   3.478  11.837  0.5352 -1.8511  0.0009
 5962TIP3    H239302   4.447   3.418  11.976  0.0134 -0.5773  0.5347
 5963TIP3   OH239303   5.017   3.951   4.904  0.1110 -0.5030  0.3150
 5963TIP3    H139304   5.058   3.868   4.929  1.4034  0.2778  0.8114
 5963TIP3    H239305   5.058   4.016   4.961 -1.5184  0.3661  0.5361
 5964TIP3   OH239306   0.191   0.795   0.054  0.2311  0.2070  0.9043
 5964TIP3    H139307   0.170   0.729   0.121 -0.7099 -0.3282  0.1085
 5964TIP3    H239308   0.111   0.801   0.002  1.8501 -1.3981 -1.8438
 5965TIP3   OH239309   2.549   4.441  13.196 -0.6011  0.2523 -0.2435
 5965TIP3    H139310   2.627   4.385  13.196 -0.3006  0.6391  0.9223
 5965TIP3    H239311   2.552   4.487  13.112 -0.3563 -0.7968 -0.8166
 5966TIP3   OH239312   2.160   2.115  14.517 -0.0184 -0.2884  0.3207
 5966TIP3    H139313   2.188   2.081  14.602  0.6219  0.4565  0.4158
 5966TIP3    H239314   2.242   2.126  14.467 -0.4905 -2.0450 -0.9044
 5967TIP3   OH239315   2.333   3.832  12.162 -0.0859  0.0504  0.2016
 5967TIP3    H139316   2.405   3.874  12.209 -0.0565 -0.1648  0.3465
 5967TIP3    H239317   2.374   3.760  12.114  0.3205  1.7692 -2.1422
 5968TIP3   OH239318   4.008   2.849  12.706 -0.4139  0.4439 -0.1567
 5968TIP3    H139319   4.073   2.903  12.661  0.2349  0.3794  0.6919
 5968TIP3    H239320   4.014   2.763  12.664  0.0246  0.4438 -0.0866
 5969TIP3   OH239321   5.118   2.318   1.432  0.1579 -0.2824  0.6928
 5969TIP3    H139322   5.044   2.378   1.436  0.7472  0.4006  1.8516
 5969TIP3    H239323   5.135   2.306   1.339 -0.3632  0.8566  0.4445
 5970TIP3   OH239324   6.494   0.378  14.636  0.0265 -0.2673  0.4767
 5970TIP3    H139325   6.475   0.376  14.542 -0.1633 -0.6170  0.5213
 5970TIP3    H239326   6.412   0.352  14.677  0.6183 -1.8102  0.6794
 5971TIP3   OH239327   2.201   2.359   5.020 -0.1992 -0.5021 -0.9325
 5971TIP3    H139328   2.194   2.451   5.046 -0.8974 -0.7685 -0.1489
 5971TIP3    H239329   2.110   2.331   5.008 -0.0114 -1.2330 -0.6433
 5972TIP3   OH239330   5.446   0.520  13.428 -0.3942 -0.5935  0.1360
 5972TIP3    H139331   5.391   0.499  13.352 -2.6014  0.4823  1.4085
 5972TIP3    H239332   5.503   0.591  13.397 -1.9285  0.4926 -0.2501
 5973TIP3   OH239333   0.076   2.546   0.807 -0.0837  0.1149  0.4561
 5973TIP3    H139334  -0.016   2.570   0.812  0.1512  1.3045 -0.5994
 5973TIP3    H239335   0.116   2.615   0.754  1.2404 -0.8846  0.1215
 5974TIP3   OH239336   6.282   5.682  13.966 -0.9018  0.2199  0.2558
 5974TIP3    H139337   6.278   5.663  14.060  3.5608  2.9609  1.1653
 5974TIP3    H239338   6.254   5.773  13.958  1.3489  0.8851 -0.6070
 5975TIP3   OH239339   3.406   3.172   2.422 -0.1498 -0.4097  0.0344
 5975TIP3    H139340   3.373   3.260   2.404  0.0269 -0.4372 -0.4319
 5975TIP3    H239341   3.430   3.137   2.336  0.5817 -0.5920  0.3096
 5976TIP3   OH239342   0.696   0.667  14.177 -0.0270 -0.0338  0.5420
 5976TIP3    H139343   0.650   0.618  14.108  0.1198 -2.7912  2.3449
 5976TIP3    H239344   0.704   0.756  14.141 -3.8385 -0.2667 -1.1945
 5977TIP3   OH239345   4.575   2.183  12.944  0.0182 -0.6610  0.0307
 5977TIP3    H139346   4.529   2.224  12.871  1.4528 -0.1200 -0.5733
 5977TIP3    H239347   4.560   2.090  12.933  1.6821 -0.7275 -1.9801
 5978TIP3   OH239348   5.495   2.023  12.609 -0.3303  0.5887 -0.0110
 5978TIP3    H139349   5.420   1.984  12.653  0.1548  2.3594  2.5217
 5978TIP3    H239350   5.458   2.096  12.559 -0.7065 -0.6593 -1.6267
 5979TIP3   OH239351   0.872   1.366  11.346 -0.2659 -0.1777  0.2942
 5979TIP3    H139352   0.880   1.377  11.251 -2.0360 -1.2823 -0.0131
 5979TIP3    H239353   0.850   1.453  11.379 -0.8623 -0.0461 -0.4535
 5980TIP3   OH239354   4.716   1.370  12.398  0.2043  1.0891 -0.1497
 5980TIP3    H139355   4.634   1.419  12.390  0.0823  0.5962 -1.9305
 5980TIP3    H239356   4.693   1.294  12.452 -0.2680  1.4705  0.1961
 5981TIP3   OH239357   5.968   4.064   1.635 -0.1048 -0.4865 -0.9033
 5981TIP3    H139358   5.882   4.029   1.658 -0.1295 -0.4314 -0.9133
 5981TIP3    H239359   6.026   4.032   1.704 -0.0150 -1.0481 -1.2416
 5982TIP3   OH239360   1.769   2.862   5.911 -0.0454  0.0013  0.0958
 5982TIP3    H139361   1.750   2.819   5.828 -0.0414 -0.0715  0.1325
 5982TIP3    H239362   1.690   2.911   5.932  0.2700  0.7218 -0.3928
 5983TIP3   OH239363   4.855   5.597  10.775 -0.4418  0.0152 -0.1038
 5983TIP3    H139364   4.890   5.507  10.775 -1.0017 -0.2046  0.2121
 5983TIP3    H239365   4.827   5.612  10.684  0.0086  0.0094 -0.2446
 5984TIP3   OH239366   3.876   6.583   0.860 -0.2959 -0.0058  0.7196
 5984TIP3    H139367   3.834   6.610   0.941  0.5532  0.2103  1.0995
 5984TIP3    H239368   3.915   6.498   0.879 -0.9680 -0.4329  0.2224
 5985TIP3   OH239369   0.967   4.316   0.624 -0.6087 -0.0432  0.3149
 5985TIP3    H139370   0.936   4.230   0.655 -1.9137  0.8438  1.5670
 5985TIP3    H239371   0.932   4.324   0.535 -0.3997 -0.8508  0.1573
 5986TIP3   OH239372   0.436   6.514  11.448  0.3856  0.2094 -0.1724
 5986TIP3    H139373   0.485   6.590  11.478 -0.3080  0.2144  1.0168
 5986TIP3    H239374   0.384   6.546  11.374  1.3637  0.4660 -0.7430
 5987TIP3   OH239375   5.777   5.441  10.444  0.4650  0.0151  0.4058
 5987TIP3    H139376   5.813   5.368  10.494  2.7732 -0.0829 -1.3131
 5987TIP3    H239377   5.848   5.505  10.442 -0.3846  0.9293 -0.8771
 5988TIP3   OH239378   1.820   0.811   2.507  0.1428 -0.0349  0.4404
 5988TIP3    H139379   1.886   0.791   2.440  1.6330  0.1566  1.8248
 5988TIP3    H239380   1.827   0.740   2.570 -0.7853  0.1414  0.7532
 5989TIP3   OH239381   1.085   0.675   2.814 -0.2577  0.6879 -0.7620
 5989TIP3    H139382   1.096   0.768   2.796 -0.1917  0.6712 -0.8115
 5989TIP3    H239383   1.006   0.669   2.868  1.8574  1.1683  2.5388
 5990TIP3   OH239384   5.709   6.590  15.238  0.4961 -0.0971 -0.7060
 5990TIP3    H139385   5.718   6.531  15.163  0.4703  0.5696 -1.2394
 5990TIP3    H239386   5.737   6.675  15.205 -1.1055  0.5599 -0.4336
 5991TIP3   OH239387   4.239   0.134   3.559 -0.9158  0.5293 -0.2799
 5991TIP3    H139388   4.329   0.126   3.592 -0.7047  1.4500 -0.6265
 5991TIP3    H239389   4.227   0.058   3.503  0.1215  1.1363 -1.3369
 5992TIP3   OH239390   1.105   0.403   4.661 -0.2448  0.1294 -0.0153
 5992TIP3    H139391   1.037   0.412   4.728  1.5102  1.9969  1.5791
 5992TIP3    H239392   1.111   0.490   4.622  0.5999 -0.2719 -0.7798
 5993TIP3   OH239393   0.287   3.997   1.606 -0.3603  0.0434 -0.1323
 5993TIP3    H139394   0.304   4.022   1.515 -1.0684 -0.8045 -0.5045
 5993TIP3    H239395   0.354   4.044   1.657 -0.4632  1.1384 -1.0035
 5994TIP3   OH239396   0.016   4.109  16.547  0.3459  0.2298 -0.2196
 5994TIP3    H139397   0.099   4.143  16.578  0.5167  0.2091 -0.6562
 5994TIP3    H239398   0.029   4.014  16.542  0.3801  0.2537 -0.5533
 5995TIP3   OH239399   1.696   1.747   4.509 -0.2965 -0.0705  0.3820
 5995TIP3    H139400   1.726   1.838   4.506  0.4716 -0.3562 -0.5386
 5995TIP3    H239401   1.766   1.697   4.469 -0.4473 -1.1539  1.4424
 5996TIP3   OH239402   4.727   3.551   4.915  0.0751  0.2421  0.3149
 5996TIP3    H139403   4.813   3.517   4.940 -0.3782 -0.5100  0.8880
 5996TIP3    H239404   4.701   3.606   4.990  1.9050  3.9820 -1.6594
 5997TIP3   OH239405   6.435   3.948   0.733  0.0198  0.0674 -0.4358
 5997TIP3    H139406   6.365   3.890   0.702  0.2402  0.0808 -0.9552
 5997TIP3    H239407   6.456   4.004   0.658  0.5087  0.1437 -0.2462
 5998TIP3   OH239408   4.756   1.073   2.255  0.2942 -0.2760 -0.4543
 5998TIP3    H139409   4.821   1.029   2.310  2.2173  1.0315 -1.6014
 5998TIP3    H239410   4.682   1.090   2.313  0.2958 -3.1886  0.5028
 5999TIP3   OH239411   5.701   1.172   5.045  0.3188 -0.0379  0.1052
 5999TIP3    H139412   5.779   1.127   5.075 -0.2648  0.4313  2.4322
 5999TIP3    H239413   5.649   1.104   5.002  0.6617 -1.0188  1.2062
 6000TIP3   OH239414   4.554   4.906  15.820  0.5886  0.0164 -0.5685
 6000TIP3    H139415   4.495   4.855  15.874  0.8269  0.2457 -0.0879
 6000TIP3    H239416   4.624   4.933  15.879  0.7510  0.4343 -0.9417
 6001TIP3   OH239417   0.910   6.320  16.111  0.1882  0.4609 -0.1441
 6001TIP3    H139418   0.976   6.306  16.178 -0.4826 -1.6234  0.1106
 6001TIP3    H239419   0.955   6.299  16.029 -0.1560 -1.0381  0.0383
 6002TIP3   OH239420   0.870   3.933  11.110 -0.4857  0.0945  0.8717
 6002TIP3    H139421   0.800   3.995  11.092  0.0599  0.5972  0.4815
 6002TIP3    H239422   0.891   3.894  11.026 -1.3441 -1.1784  1.2383
 6003TIP3   OH239423   4.691   0.455  14.167  0.8807 -0.0451  0.1101
 6003TIP3    H139424   4.639   0.402  14.107  0.9713 -0.7116  0.6119
 6003TIP3    H239425   4.630   0.522  14.198  0.4506 -0.5280  0.3164
 6004TIP3   OH239426   1.322   6.406   5.656 -0.6396  0.1503 -0.4835
 6004TIP3    H139427   1.382   6.333   5.669 -1.1926  0.2477  3.0583
 6004TIP3    H239428   1.365   6.481   5.698 -1.3028  1.2268 -1.6807
 6005TIP3   OH239429   0.264   0.893   3.306 -0.2152  0.0607  0.1319
 6005TIP3    H139430   0.174   0.923   3.295 -0.4403 -0.4558  0.5673
 6005TIP3    H239431   0.257   0.802   3.333  0.4112  0.2724  1.0667
 6006TIP3   OH239432   2.054   6.626  15.286  0.0496  0.4520  0.0496
 6006TIP3    H139433   2.147   6.616  15.305 -0.2776 -2.0611  0.5070
 6006TIP3    H239434   2.037   6.720  15.296  2.4365  0.8810  0.3325
 6007TIP3   OH239435   6.302   2.453  11.667 -1.4077 -0.4517 -0.3480
 6007TIP3    H139436   6.394   2.438  11.646 -1.7685 -0.7879 -1.7305
 6007TIP3    H239437   6.290   2.547  11.655 -1.1449 -0.3334  0.2734
 6008TIP3   OH239438   4.814   4.983   1.542  0.6383 -0.7370 -0.3905
 6008TIP3    H139439   4.847   4.903   1.582 -1.2032 -0.5292  1.6776
 6008TIP3    H239440   4.892   5.031   1.516  1.8823 -1.5459  1.7028
 6009TIP3   OH239441   5.769   4.767   0.257  0.2457 -0.7223  0.0321
 6009TIP3    H139442   5.756   4.688   0.204 -2.0759 -0.0089 -0.4970
 6009TIP3    H239443   5.786   4.734   0.345  3.0422 -1.8919 -0.8869
 6010TIP3   OH239444   6.606   6.417  13.396  0.0207 -0.0571  0.2907
 6010TIP3    H139445   6.579   6.454  13.480 -0.2138  1.7365 -0.5287
 6010TIP3    H239446   6.605   6.492  13.336 -0.9572 -1.5329 -1.5844
 6011TIP3   OH239447   1.086   5.652   3.691  0.1102 -0.3696  0.5035
 6011TIP3    H139448   1.027   5.726   3.706  0.4441 -0.1267  0.6482
 6011TIP3    H239449   1.038   5.593   3.634  0.3667  0.6233 -0.7531
 6012TIP3   OH239450   5.997   1.085   2.826  0.7884 -0.6641  0.4302
 6012TIP3    H139451   5.903   1.098   2.838  0.8088  1.0454 -1.1043
 6012TIP3    H239452   6.024   1.034   2.903 -1.0851  0.2026  1.7002
 6013TIP3   OH239453   6.391   5.845   0.167  0.1274  0.2784 -0.4821
 6013TIP3    H139454   6.436   5.801   0.239  0.5312  0.8944 -0.3606
 6013TIP3    H239455   6.300   5.854   0.197 -0.1588 -1.2431 -0.8517
 6014TIP3   OH239456   2.095   2.289  13.903  0.1572  0.5974  0.5242
 6014TIP3    H139457   2.055   2.211  13.864 -0.9335  0.6103  1.5832
 6014TIP3    H239458   2.188   2.265  13.913 -0.1528 -0.5413  0.7777
 6015TIP3   OH239459   5.105   4.220  12.061  0.0443 -0.5614 -0.0501
 6015TIP3    H139460   5.011   4.224  12.039 -0.4359  1.6116  2.2056
 6015TIP3    H239461   5.109   4.160  12.135  0.0512  1.5007  1.6423
 6016TIP3   OH239462   3.215   4.527   6.826 -0.4067 -0.1120 -0.1161
 6016TIP3    H139463   3.210   4.441   6.785 -3.2205 -1.3945  2.7579
 6016TIP3    H239464   3.178   4.587   6.761  1.0344 -1.1101 -1.8982
 6017TIP3   OH239465   0.191   0.211  12.203  0.2526 -0.1620 -0.2448
 6017TIP3    H139466   0.275   0.209  12.158 -0.3725 -0.3522 -1.4207
 6017TIP3    H239467   0.202   0.277  12.271  0.9445  0.7415 -1.2191
 6018TIP3   OH239468   4.543   4.158   2.589  0.2383  0.4747 -0.4074
 6018TIP3    H139469   4.530   4.221   2.659  0.7995  2.3021 -1.8814
 6018TIP3    H239470   4.633   4.174   2.560  0.6014 -1.4568 -0.3833
 6019TIP3   OH239471   2.498   6.553   1.236 -0.4551 -0.2178 -0.3008
 6019TIP3    H139472   2.490   6.565   1.331 -1.3596  0.1462 -0.4172
 6019TIP3    H239473   2.481   6.639   1.199 -3.3618 -0.9837 -0.9381
 6020TIP3   OH239474   0.193   0.561   1.467  0.2891 -0.1109 -0.6016
 6020TIP3    H139475   0.284   0.533   1.481 -0.0782 -0.0938  2.0167
 6020TIP3    H239476   0.190   0.650   1.502 -0.8800 -0.3403 -0.0886
 6021TIP3   OH239477   5.865   5.713  10.239 -0.3126 -0.0016 -0.3312
 6021TIP3    H139478   5.917   5.712  10.319  2.0375  0.4271 -1.7950
 6021TIP3    H239479   5.832   5.803  10.232  1.5385  0.6426 -1.0854
 6022TIP3   OH239480   2.982   5.232  16.060  0.5132  0.3417 -1.4143
 6022TIP3    H139481   3.004   5.310  16.109 -0.0158 -0.3822 -0.0022
 6022TIP3    H239482   3.066   5.200  16.027  0.9224  0.6376 -0.6691
 6023TIP3   OH239483   4.001   6.044   5.170 -0.5595 -0.3519 -0.4486
 6023TIP3    H139484   3.918   6.055   5.122 -0.5217  0.6739 -0.2906
 6023TIP3    H239485   3.989   6.096   5.250  0.9602  1.4217 -1.3436
 6024TIP3   OH239486   5.441   4.869  16.007 -0.1995 -0.1901  0.1091
 6024TIP3    H139487   5.364   4.818  15.981 -0.4877 -0.2954  1.1525
 6024TIP3    H239488   5.415   4.960  15.996 -0.4935 -0.2257  0.5348
 6025TIP3   OH239489   1.657   1.110   1.968 -0.0145 -0.0835  0.1097
 6025TIP3    H139490   1.707   1.168   1.911  0.2036 -0.4480 -0.0773
 6025TIP3    H239491   1.568   1.115   1.936 -0.2882  1.2968  1.0350
 6026TIP3   OH239492   2.045   1.337   0.188 -0.0415 -0.0740 -0.2972
 6026TIP3    H139493   2.122   1.393   0.195 -1.3371  1.8393 -0.9768
 6026TIP3    H239494   2.000   1.348   0.272 -1.4171  1.5973 -1.2448
 6027TIP3   OH239495   2.638   5.633  13.921  0.5551 -0.4390  0.0207
 6027TIP3    H139496   2.722   5.673  13.945  0.7088 -1.9779  2.2073
 6027TIP3    H239497   2.637   5.550  13.970 -2.3724 -0.2923  0.2519
 6028TIP3   OH239498   0.431   5.063   5.000 -1.4719  0.1566 -0.4071
 6028TIP3    H139499   0.388   4.984   5.033 -0.8614  0.3738  0.9607
 6028TIP3    H239500   0.511   5.070   5.053 -0.6445  0.7229 -1.7099
 6029TIP3   OH239501   6.200   4.159   4.545  0.3559 -0.2229  0.0716
 6029TIP3    H139502   6.262   4.196   4.607  0.4025  0.2162 -0.2330
 6029TIP3    H239503   6.196   4.066   4.568 -0.7554  0.2023  1.6729
 6030TIP3   OH239504   6.454   6.551   1.188 -0.1280 -0.0876  0.4473
 6030TIP3    H139505   6.437   6.608   1.114 -1.5452 -0.7420  0.2471
 6030TIP3    H239506   6.509   6.602   1.247  0.3914  0.6911 -0.7183
 6031TIP3   OH239507   1.778   1.949   5.306  0.0839 -0.5089 -0.3674
 6031TIP3    H139508   1.866   1.950   5.268  0.1620 -0.8206 -0.1955
 6031TIP3    H239509   1.719   1.965   5.232  0.3289  0.4082 -0.3595
 6032TIP3   OH239510   5.818   2.557   5.796  0.2793  0.5048 -0.0557
 6032TIP3    H139511   5.780   2.645   5.809 -1.0923 -0.0007 -0.5657
 6032TIP3    H239512   5.889   2.571   5.732  0.6644  1.3858  0.5481
 6033TIP3   OH239513   3.551   4.891  16.159  0.0969 -0.2580  0.0127
 6033TIP3    H139514   3.518   4.968  16.206 -0.6056 -0.7645  0.3545
 6033TIP3    H239515   3.536   4.818  16.219 -0.8273 -0.9151 -0.9871
 6034TIP3   OH239516   5.990   4.051  15.941 -0.0041 -0.3102 -0.1913
 6034TIP3    H139517   5.907   4.016  15.974 -0.4527 -1.5518 -2.5799
 6034TIP3    H239518   6.054   4.030  16.009 -1.3397 -0.7666  0.9365
 6035TIP3   OH239519   2.553   5.340  15.279  0.1024 -0.7596  0.2958
 6035TIP3    H139520   2.553   5.334  15.184 -0.1266 -1.0410  0.3119
 6035TIP3    H239521   2.644   5.360  15.303 -0.2525  1.4488 -0.1042
 6036TIP3   OH239522   5.009   3.148   3.477 -0.4952  0.1701 -0.2397
 6036TIP3    H139523   4.978   3.238   3.488 -1.4919 -0.3250  1.1832
 6036TIP3    H239524   5.099   3.150   3.510  0.2531  1.1157 -2.2680
 6037TIP3   OH239525   6.241   3.350  13.292  0.2975 -0.1059 -0.0697
 6037TIP3    H139526   6.256   3.445  13.297  0.2740 -0.0655 -0.7428
 6037TIP3    H239527   6.314   3.312  13.342  1.7184  0.1699 -1.8798
 6038TIP3   OH239528   3.430   4.928   5.795 -0.1709  0.2166  0.3777
 6038TIP3    H139529   3.366   4.993   5.826 -1.4899 -0.2717 -1.2347
 6038TIP3    H239530   3.510   4.949   5.842 -0.5527  3.0576 -0.1425
 6039TIP3   OH239531   0.349   3.794  17.168  0.2065 -0.1224 -0.2146
 6039TIP3    H139532   0.259   3.817  17.148  0.3506 -0.9613 -1.9028
 6039TIP3    H239533   0.346   3.700  17.186  0.6407 -0.0290  0.3555
 6040TIP3   OH239534   5.041   1.472   3.083  0.1549  0.3217  0.3377
 6040TIP3    H139535   4.963   1.496   3.032 -0.0296  2.1461  1.4459
 6040TIP3    H239536   5.062   1.551   3.133  1.8935 -0.6129  1.1039
 6041TIP3   OH239537   2.258   2.374   0.786 -0.2019  0.4547  0.6568
 6041TIP3    H139538   2.244   2.467   0.802  0.4077  0.7190 -0.3446
 6041TIP3    H239539   2.212   2.331   0.858 -2.7541  1.4304 -0.3213
 6042TIP3   OH239540   5.095   2.883   3.825 -0.2200  0.3484  0.0911
 6042TIP3    H139541   5.079   2.971   3.859 -0.8655  0.6608 -0.9809
 6042TIP3    H239542   5.023   2.868   3.764 -0.0438 -0.8802  0.1835
 6043TIP3   OH239543   1.042   5.007  17.116  0.0391 -0.2788 -0.3526
 6043TIP3    H139544   1.111   4.988  17.179 -0.3982 -0.2277  0.1387
 6043TIP3    H239545   1.018   4.921  17.080  0.1232 -0.3335 -0.2762
 6044TIP3   OH239546   1.988   5.675   4.769  0.2468 -0.5722  0.1493
 6044TIP3    H139547   2.030   5.603   4.817  0.5940  0.7474  1.9074
 6044TIP3    H239548   1.896   5.670   4.795  0.1089 -0.8954 -0.3980
 6045TIP3   OH239549   6.399   1.477  11.521 -0.2799  0.3817 -1.0661
 6045TIP3    H139550   6.475   1.436  11.482 -0.8536  1.3205 -3.2562
 6045TIP3    H239551   6.431   1.561  11.554 -0.1858  0.3890 -1.1775
 6046TIP3   OH239552   3.040   5.705  15.988 -0.1282 -0.2543  0.4130
 6046TIP3    H139553   2.958   5.695  15.939  0.5747 -1.2139 -0.5908
 6046TIP3    H239554   3.108   5.709  15.920  0.9336 -2.3477  1.3004
 6047TIP3   OH239555   4.842   3.047  16.872  0.6509 -0.1332  0.2788
 6047TIP3    H139556   4.934   3.034  16.850  0.0041 -1.3441 -1.7507
 6047TIP3    H239557   4.803   2.960  16.868 -0.5406  0.3261  1.4199
 6048TIP3   OH239558   3.612   5.041   4.017  0.1403  0.0538  0.2207
 6048TIP3    H139559   3.621   4.976   4.087  2.0803  0.1634  0.0977
 6048TIP3    H239560   3.635   5.124   4.059  0.3984  0.2584 -0.3298
 6049TIP3   OH239561   5.143   0.979   2.010  0.0427  0.7001 -0.0044
 6049TIP3    H139562   5.156   0.997   1.917  1.1425 -1.5986 -0.3352
 6049TIP3    H239563   5.048   0.972   2.020  0.0496 -2.6634 -1.7217
 6050TIP3   OH239564   3.210   3.835  11.575  0.2921  0.2433 -0.1708
 6050TIP3    H139565   3.128   3.855  11.622  0.6564 -1.1189  1.0913
 6050TIP3    H239566   3.183   3.827  11.484 -0.9636  0.0950  0.1893
 6051TIP3   OH239567   0.879   4.068  14.192 -0.3884  0.4209  0.5159
 6051TIP3    H139568   0.941   4.101  14.257  0.4959  0.9282 -0.5637
 6051TIP3    H239569   0.816   4.140  14.181  0.7503  1.2378 -0.8236
 6052TIP3   OH239570   6.232   1.306   5.880 -0.6509  0.0564 -0.1488
 6052TIP3    H139571   6.275   1.269   5.803 -0.8109 -0.2679 -0.0838
 6052TIP3    H239572   6.168   1.239   5.907  1.4715 -1.1714  2.0563
 6053TIP3   OH239573   0.397   0.997  15.874 -0.1896 -0.2597 -0.0203
 6053TIP3    H139574   0.325   1.053  15.903 -0.7861  0.1809 -2.2314
 6053TIP3    H239575   0.476   1.043  15.902 -0.6695  1.7107 -1.7298
 6054TIP3   OH239576   5.147   4.518   4.616 -0.2312 -0.2818 -0.2032
 6054TIP3    H139577   5.113   4.450   4.558  0.2849  1.1278 -2.2214
 6054TIP3    H239578   5.234   4.537   4.581  0.3227  0.2099  1.3970
 6055TIP3   OH239579   0.369   1.366   0.321 -0.9644  0.0066  0.1247
 6055TIP3    H139580   0.428   1.297   0.352 -0.6334 -0.6580 -1.9267
 6055TIP3    H239581   0.292   1.319   0.290 -1.0132  0.6177 -0.6777
 6056TIP3   OH239582   4.525   1.724   3.823  0.6850  0.0185  0.2899
 6056TIP3    H139583   4.567   1.782   3.760 -0.6932  2.3839  1.5058
 6056TIP3    H239584   4.584   1.726   3.899 -0.9613  2.4467  1.5644
 6057TIP3   OH239585   1.448   6.776  12.071 -0.1298  0.5817  0.4458
 6057TIP3    H139586   1.368   6.828  12.065 -1.0791 -1.0261 -2.0638
 6057TIP3    H239587   1.500   6.804  11.995 -0.3284 -1.4991 -0.4997
 6058TIP3   OH239588   3.969   4.320  11.078 -0.8000  0.7358  0.3159
 6058TIP3    H139589   3.974   4.241  11.025  1.7297  1.4504 -0.5992
 6058TIP3    H239590   3.986   4.291  11.168 -1.6886 -0.0056  0.2439
 6059TIP3   OH239591   2.996   2.281  12.650 -0.5854  0.2113 -0.0339
 6059TIP3    H139592   2.952   2.286  12.735  0.3715  1.3017  0.4222
 6059TIP3    H239593   2.969   2.361  12.605  1.3444  1.1981  0.4903
 6060TIP3   OH239594   4.326   0.169   5.895 -0.5529  0.0711 -0.2647
 6060TIP3    H139595   4.313   0.160   5.801  2.2188 -0.4809 -0.6338
 6060TIP3    H239596   4.289   0.255   5.916  0.4073  0.9878 -2.1820
 6061TIP3   OH239597   5.038   6.355  13.706 -0.6210  0.0379  0.1340
 6061TIP3    H139598   4.958   6.400  13.732 -0.1836 -0.0752  1.6903
 6061TIP3    H239599   5.034   6.270  13.749 -1.2074 -1.2630 -2.4061
 6062TIP3   OH239600   0.797   1.672  11.335  0.5352  0.0588  0.3230
 6062TIP3    H139601   0.789   1.708  11.247 -0.3794 -0.0163  0.3762
 6062TIP3    H239602   0.802   1.748  11.393  1.4957  0.1128  0.1840
 6063TIP3   OH239603   3.249   2.448   3.563 -0.3089 -0.3120  0.2165
 6063TIP3    H139604   3.226   2.372   3.617 -3.0351  0.4705  0.2448
 6063TIP3    H239605   3.267   2.518   3.627 -2.6379  0.3634  0.1892
 6064TIP3   OH239606   0.672   2.771   0.301 -0.5046  0.3300 -0.5261
 6064TIP3    H139607   0.616   2.699   0.273 -0.8472  0.4273 -0.0963
 6064TIP3    H239608   0.759   2.749   0.268 -0.0740 -1.5395  1.7186
 6065TIP3   OH239609   2.242   1.227   2.472 -0.2864  0.7656 -0.0640
 6065TIP3    H139610   2.164   1.178   2.497  0.9933 -1.7415 -0.7938
 6065TIP3    H239611   2.218   1.269   2.389 -1.5055  1.7205  0.7437
 6066TIP3   OH239612   2.384   1.392  14.351 -0.1301  0.5726  0.3635
 6066TIP3    H139613   2.458   1.403  14.411 -0.0210  0.8849  0.1711
 6066TIP3    H239614   2.344   1.309  14.378  0.3393  0.3611  0.4142
 6067TIP3   OH239615   1.453   4.782  11.226  0.3632 -0.0628  0.1873
 6067TIP3    H139616   1.510   4.749  11.156  1.9146  2.3733  0.2639
 6067TIP3    H239617   1.508   4.779  11.304  0.0184  1.2530  0.4797
 6068TIP3   OH239618   3.823   6.317  12.833  0.4293 -0.3222  0.2058
 6068TIP3    H139619   3.731   6.339  12.848  0.2265 -1.1486  0.1804
 6068TIP3    H239620   3.868   6.402  12.832 -0.2541  0.0493  0.7195
 6069TIP3   OH239621   3.232   1.247  11.676  0.2926 -0.4740  0.2897
 6069TIP3    H139622   3.203   1.189  11.746  0.4689 -0.7193  0.1589
 6069TIP3    H239623   3.283   1.315  11.720  0.6187 -0.7686  0.3695
 6070TIP3   OH239624   0.108   3.243   3.212  0.2947  0.4798 -0.1688
 6070TIP3    H139625   0.134   3.321   3.164  0.6906 -0.0318 -0.8020
 6070TIP3    H239626   0.023   3.220   3.175  0.9923 -0.4175 -1.2719
 6071TIP3   OH239627   3.475   3.437   2.919  0.1498 -0.0155  0.2670
 6071TIP3    H139628   3.563   3.403   2.932 -0.2737 -1.0224  0.5019
 6071TIP3    H239629   3.475   3.470   2.829  0.3917 -1.1383 -0.1465
 6072TIP3   OH239630   2.769   0.857  14.671 -0.0921  0.4777 -0.3443
 6072TIP3    H139631   2.680   0.840  14.699 -0.6689 -1.3288 -3.0593
 6072TIP3    H239632   2.772   0.951  14.654 -0.8044  0.9243  1.9195
 6073TIP3   OH239633   3.107   4.361  15.613 -0.6579 -0.1732 -0.9598
 6073TIP3    H139634   3.125   4.287  15.670 -0.2227  0.9490  0.4023
 6073TIP3    H239635   3.062   4.424  15.670  1.3454  1.6859 -1.3753
 6074TIP3   OH239636   6.329   5.169  16.377 -0.2646  0.4775 -0.0544
 6074TIP3    H139637   6.336   5.136  16.466 -0.3072  0.4171 -0.0736
 6074TIP3    H239638   6.404   5.228  16.368  0.0933  0.0028 -0.1875
 6075TIP3   OH239639   1.980   2.268   1.392  0.4927 -0.4799  0.7118
 6075TIP3    H139640   1.983   2.194   1.452 -0.3280 -0.8991  0.2556
 6075TIP3    H239641   2.028   2.337   1.436  0.8728 -1.1415  1.3483
 6076TIP3   OH239642   6.228   4.684   3.250  0.4859  0.0955  0.6080
 6076TIP3    H139643   6.186   4.657   3.169 -2.4395  0.0787  2.0767
 6076TIP3    H239644   6.188   4.628   3.317  0.4241  2.3917  2.5328
 6077TIP3   OH239645   5.533   1.699   4.240  0.5969  0.0109  0.1151
 6077TIP3    H139646   5.593   1.772   4.223 -0.8044  1.1374 -0.1767
 6077TIP3    H239647   5.510   1.708   4.333  1.2013 -0.6579  0.3258
 6078TIP3   OH239648   4.846   4.110   5.604  0.3488 -0.1565  0.0978
 6078TIP3    H139649   4.871   4.136   5.692  1.8317  0.8635 -0.5923
 6078TIP3    H239650   4.926   4.072   5.567  0.2120  0.8980 -1.3314
 6079TIP3   OH239651   2.536   4.497   3.225 -0.3663  0.1874 -0.5130
 6079TIP3    H139652   2.570   4.420   3.271 -0.9699 -0.1563 -0.6393
 6079TIP3    H239653   2.466   4.463   3.169  0.8191  0.4840 -2.2154
 6080TIP3   OH239654   3.979   2.487   3.743  0.5601 -0.0057  0.4489
 6080TIP3    H139655   4.011   2.466   3.655 -1.4209 -0.0229 -0.2810
 6080TIP3    H239656   3.935   2.572   3.734 -0.3822 -0.3940  1.2415
 6081TIP3   OH239657   0.972   0.011  14.460  0.0729 -0.1489  0.0885
 6081TIP3    H139658   0.942  -0.079  14.449  2.2199 -1.2446  2.6542
 6081TIP3    H239659   0.956   0.052  14.375 -2.1226 -2.5621 -0.7317
 6082TIP3   OH239660   1.023   2.100  16.096  0.0955 -0.1702 -0.2121
 6082TIP3    H139661   1.063   2.176  16.054 -0.2780 -0.8895 -1.9233
 6082TIP3    H239662   0.930   2.122  16.100  0.5196  1.3212  3.3739
 6083TIP3   OH239663   0.187   6.312   5.216 -0.1455 -0.2069 -0.0276
 6083TIP3    H139664   0.098   6.347   5.219 -0.1603 -0.2818  0.6502
 6083TIP3    H239665   0.241   6.385   5.184 -0.4659 -0.1989 -0.5535
 6084TIP3   OH239666   0.840   5.415  13.315  0.1699  0.2024 -0.0094
 6084TIP3    H139667   0.789   5.389  13.392 -1.2677  0.3425 -0.8989
 6084TIP3    H239668   0.887   5.336  13.289  1.3338  0.3656  1.5036
 6085TIP3   OH239669   3.168   4.870   1.517  0.3320  0.5706  0.4207
 6085TIP3    H139670   3.098   4.805   1.526  1.2495 -0.3423  1.0581
 6085TIP3    H239671   3.172   4.888   1.423 -0.0527 -0.1558  0.2594
 6086TIP3   OH239672   0.275   2.825   2.330  0.1122 -0.4042 -0.1773
 6086TIP3    H139673   0.286   2.898   2.269 -0.7246 -0.8139 -0.8298
 6086TIP3    H239674   0.195   2.782   2.301 -0.1378 -0.7720  1.0440
 6087TIP3   OH239675   0.980   4.275   0.347  0.1469 -0.8656 -0.2931
 6087TIP3    H139676   0.968   4.369   0.337  0.2715 -0.5506  2.2200
 6087TIP3    H239677   1.068   4.259   0.313  0.5234  0.0849  0.2114
 6088TIP3   OH239678   3.598   2.787  14.233 -0.2961  0.6116 -0.3327
 6088TIP3    H139679   3.507   2.815  14.233 -0.5707 -0.2625  0.2897
 6088TIP3    H239680   3.601   2.715  14.170 -0.4548 -0.6572  1.0836
 6089TIP3   OH239681   4.906   4.755   5.494  0.0183  0.9763  0.1601
 6089TIP3    H139682   4.932   4.731   5.405  3.6693 -0.7366  1.5658
 6089TIP3    H239683   4.923   4.675   5.546 -2.7463  1.6868  2.2697
 6090TIP3   OH239684   2.896   3.011  17.112 -0.1565 -0.2463  0.2638
 6090TIP3    H139685   2.849   3.016  17.029  1.1140 -1.0163 -0.5051
 6090TIP3    H239686   2.831   3.039  17.177 -1.8806 -1.8584 -0.6932
 6091TIP3   OH239687   2.928   0.792   4.067  0.6357  0.2154  0.6513
 6091TIP3    H139688   2.838   0.812   4.041  0.1219 -2.2611  0.3623
 6091TIP3    H239689   2.965   0.876   4.095 -0.1474  2.2397 -3.9323
 6092TIP3   OH239690   5.890   4.367  11.479 -0.0436  0.0035 -0.5043
 6092TIP3    H139691   5.921   4.449  11.517 -2.5986  0.9022 -0.2502
 6092TIP3    H239692   5.825   4.393  11.414 -1.6515 -1.8185  0.3017
 6093TIP3   OH239693   2.301   5.789  12.092  0.1371  0.3831  0.3790
 6093TIP3    H139694   2.345   5.705  12.101  0.7535  0.4288 -1.7928
 6093TIP3    H239695   2.208   5.770  12.106  0.1131 -0.9229 -1.4346
 6094TIP3   OH239696   5.957   0.702  16.219  0.4998  0.2767  0.3918
 6094TIP3    H139697   6.026   0.769  16.215  0.9994 -0.3126 -1.4133
 6094TIP3    H239698   5.931   0.689  16.128 -2.9084  1.3811  1.1780
 6095TIP3   OH239699   6.666   2.274   2.710 -0.1596  0.1439 -0.0555
 6095TIP3    H139700   6.630   2.254   2.623 -0.5612 -0.8717  0.3384
 6095TIP3    H239701   6.677   2.188   2.752 -3.5649  0.7802  2.3349
 6096TIP3   OH239702   3.809   3.968  11.508  0.1138 -1.2242 -0.0924
 6096TIP3    H139703   3.783   4.041  11.565  2.3235  0.7704 -1.5048
 6096TIP3    H239704   3.821   3.894  11.567  1.4577  0.5631  1.9618
 6097TIP3   OH239705   6.607   4.101   0.568 -0.8737 -0.2060 -0.1378
 6097TIP3    H139706   6.592   4.192   0.544 -0.6953  0.3138  1.6991
 6097TIP3    H239707   6.660   4.066   0.496  0.3531  1.5520 -0.1062
 6098TIP3   OH239708   3.325   6.216  16.113 -0.0626  0.3907  0.5676
 6098TIP3    H139709   3.283   6.165  16.182 -0.6701  0.7429  0.4585
 6098TIP3    H239710   3.330   6.304  16.149  1.8300  0.0752  1.1331
 6099TIP3   OH239711   1.656   0.931   3.807  0.3915  0.3835  0.0488
 6099TIP3    H139712   1.747   0.944   3.834 -0.7910  1.5732  3.8238
 6099TIP3    H239713   1.639   0.838   3.821  0.5105  0.5184  1.1204
 6100TIP3   OH239714   5.013   5.512   5.179  0.2187 -0.4718 -0.2342
 6100TIP3    H139715   4.957   5.558   5.242  0.9586  0.0253  0.0729
 6100TIP3    H239716   5.007   5.420   5.205 -1.1124 -0.5299 -0.7312
 6101TIP3   OH239717   4.977   4.563  16.223 -0.3890  0.1817 -0.9479
 6101TIP3    H139718   4.908   4.503  16.193 -0.8673 -0.6813  1.7356
 6101TIP3    H239719   5.042   4.507  16.264 -0.6718  1.4526  1.2923
 6102TIP3   OH239720   4.099   5.139  15.110  0.2788 -0.1348  0.2655
 6102TIP3    H139721   4.046   5.120  15.032 -0.5727  0.0696  0.7956
 6102TIP3    H239722   4.151   5.215  15.086 -0.7663  0.5832  0.2686
 6103TIP3   OH239723   2.537   0.693   3.015  0.1509  0.3909 -0.8555
 6103TIP3    H139724   2.620   0.723   2.977  0.5427  0.8831  0.3590
 6103TIP3    H239725   2.537   0.730   3.104 -0.0885 -1.8908  0.1347
 6104TIP3   OH239726   2.149   1.371   2.246  0.3342 -0.2717  0.4362
 6104TIP3    H139727   2.070   1.405   2.204  0.2694 -0.0571  0.7289
 6104TIP3    H239728   2.195   1.324   2.176 -0.4209 -1.0403  0.4460
 6105TIP3   OH239729   4.355   5.259  11.757  0.1359 -0.0067  0.3916
 6105TIP3    H139730   4.349   5.172  11.720  0.9920  0.7733 -1.6228
 6105TIP3    H239731   4.265   5.292  11.755 -0.0854 -0.5954  0.5824
 6106TIP3   OH239732   2.095   3.828   6.574  0.4907  0.3345  0.4532
 6106TIP3    H139733   2.189   3.815   6.583 -0.0048 -2.1897  2.7493
 6106TIP3    H239734   2.062   3.747   6.536 -0.9514  0.5939  1.0972
 6107TIP3   OH239735   2.627   0.319  15.071 -0.3169 -0.3419  0.2913
 6107TIP3    H139736   2.712   0.275  15.069  0.5816  1.2216  1.8317
 6107TIP3    H239737   2.587   0.299  14.987  1.0057 -2.2230  0.0881
 6108TIP3   OH239738   0.445   3.002  15.652  0.5118  0.0059  0.8366
 6108TIP3    H139739   0.488   3.005  15.567  0.6568  0.1792  0.9149
 6108TIP3    H239740   0.478   3.079  15.698  1.6126 -0.9121  1.6163
 6109TIP3   OH239741   6.415   2.264  13.999 -0.5613 -0.3366 -0.2110
 6109TIP3    H139742   6.349   2.242  14.064 -0.7820 -1.7968 -0.9210
 6109TIP3    H239743   6.379   2.340  13.953 -1.5545 -0.8518 -0.2968
 6110TIP3   OH239744   6.228   2.392   5.972 -0.0828  0.2014 -0.2318
 6110TIP3    H139745   6.224   2.408   6.066  0.3442  0.4532 -0.2533
 6110TIP3    H239746   6.146   2.347   5.951  0.1536 -0.5267  0.3875
 6111TIP3   OH239747   4.130   5.852   2.301  0.4630  0.2999  0.2715
 6111TIP3    H139748   4.156   5.940   2.275  0.0704  0.4870  0.4889
 6111TIP3    H239749   4.101   5.862   2.392 -0.5519  0.1503 -0.0205
 6112TIP3   OH239750   0.663   5.325   6.008 -0.5431 -0.5166 -1.1112
 6112TIP3    H139751   0.749   5.336   5.969 -0.1829 -0.6374 -0.3711
 6112TIP3    H239752   0.681   5.302   6.100 -1.3322 -1.9807 -1.3065
 6113TIP3   OH239753   3.788   5.374   1.413  0.7035  0.5727  0.0269
 6113TIP3    H139754   3.797   5.280   1.433  0.0221  0.3157 -0.8354
 6113TIP3    H239755   3.695   5.392   1.426  0.4151  0.6159 -1.9281
 6114TIP3   OH239756   3.763   2.082   4.425 -0.5467  0.5257  0.3845
 6114TIP3    H139757   3.688   2.134   4.455 -0.5908 -0.0354  1.2500
 6114TIP3    H239758   3.837   2.143   4.428 -1.0849  1.2763 -1.1186
 6115TIP3   OH239759   5.804   3.979  12.547 -0.6671  0.4306 -0.1191
 6115TIP3    H139760   5.737   4.031  12.503 -1.0260 -0.1001 -0.2010
 6115TIP3    H239761   5.774   3.889  12.539 -0.8524  0.3417  1.3899
 6116TIP3   OH239762   4.535   4.662  16.158 -0.1007  0.1032 -0.0077
 6116TIP3    H139763   4.486   4.691  16.081 -0.7264  0.9493  0.6980
 6116TIP3    H239764   4.474   4.605  16.204  0.2841 -0.4231 -0.1453
 6117TIP3   OH239765   1.616   1.946   3.234 -0.0254  0.7729  0.2351
 6117TIP3    H139766   1.604   1.930   3.140  0.7764  2.2695 -0.1404
 6117TIP3    H239767   1.538   1.909   3.275 -0.7868  0.8721 -1.1040
 6118TIP3   OH239768   0.685   5.661  17.184 -0.3451 -0.1053 -0.5876
 6118TIP3    H139769   0.706   5.695  17.270  0.6634 -1.3331 -0.3306
 6118TIP3    H239770   0.749   5.701  17.125 -0.3374 -0.1119 -0.5857
 6119TIP3   OH239771   1.993   6.101  10.661 -0.6648  0.4491 -0.4321
 6119TIP3    H139772   2.075   6.104  10.612  1.6531  1.0343  3.2742
 6119TIP3    H239773   1.970   6.193  10.675 -2.7047  0.2998 -2.5382
 6120TIP3   OH239774   1.626   6.279  15.574 -0.0765  0.5204  0.4326
 6120TIP3    H139775   1.533   6.254  15.576 -0.7279  2.7520 -0.1139
 6120TIP3    H239776   1.633   6.340  15.501  1.9012  0.1412  0.2764
 6121TIP3   OH239777   2.784   5.465   3.549 -0.1651 -0.3221  0.3878
 6121TIP3    H139778   2.715   5.530   3.539 -0.1364 -0.3043  0.3053
 6121TIP3    H239779   2.812   5.473   3.640 -2.5385 -2.5727  1.3680
 6122TIP3   OH239780   0.872   5.562   0.651 -0.0134 -0.1048 -0.2335
 6122TIP3    H139781   0.870   5.484   0.708 -1.0579 -0.0053 -0.1176
 6122TIP3    H239782   0.782   5.595   0.654 -0.0653 -0.0619 -1.9079
 6123TIP3   OH239783   6.014   3.640  13.048  0.0461 -0.5744  0.1939
 6123TIP3    H139784   6.001   3.734  13.058 -1.1245 -0.6060 -0.8384
 6123TIP3    H239785   5.937   3.611  12.999  1.0163 -1.8641 -0.5912
 6124TIP3   OH239786   3.355   1.787   5.322 -0.2005 -0.5313  0.3800
 6124TIP3    H139787   3.445   1.754   5.312 -0.0085  0.4352 -1.2690
 6124TIP3    H239788   3.351   1.818   5.413  1.5560  0.6487  0.0813
 6125TIP3   OH239789   4.174   1.342  11.835 -0.5823  0.3750  0.4750
 6125TIP3    H139790   4.164   1.344  11.740  1.5230  0.8615  0.2317
 6125TIP3    H239791   4.126   1.418  11.867 -0.4700  0.7695 -0.2898
 6126TIP3   OH239792   4.594   4.925  15.172  0.4253  0.3010 -0.3198
 6126TIP3    H139793   4.611   4.935  15.079  0.7117  0.4891 -0.2478
 6126TIP3    H239794   4.681   4.914  15.212  0.4535  2.0602  0.1430
 6127TIP3   OH239795   5.407   2.960  14.548  0.0459 -0.7475  0.0996
 6127TIP3    H139796   5.397   2.967  14.643 -0.7887  2.1635 -0.1278
 6127TIP3    H239797   5.408   2.866  14.530 -0.3843 -1.3312  2.9174
 6128TIP3   OH239798   1.256   3.510   3.854  0.3153 -0.0665 -0.1022
 6128TIP3    H139799   1.350   3.495   3.859 -0.3673 -4.3087  1.3246
 6128TIP3    H239800   1.217   3.423   3.843 -3.4126  1.6528 -1.5183
 6129TIP3   OH239801   0.622   0.273   0.394  0.0301  0.4201 -0.3655
 6129TIP3    H139802   0.642   0.345   0.454  3.0843 -1.2755  0.8190
 6129TIP3    H239803   0.551   0.226   0.436  0.4577  0.6935  0.6950
 6130TIP3   OH239804   2.104   3.119  12.870 -0.1376 -0.5046 -0.2806
 6130TIP3    H139805   2.038   3.109  12.938 -0.9760 -1.7572 -1.2776
 6130TIP3    H239806   2.063   3.086  12.790  2.2189 -2.8129 -0.6004
 6131TIP3   OH239807   0.065   2.074  15.138 -0.7212  0.3542 -0.3039
 6131TIP3    H139808   0.007   2.146  15.162  1.0424  1.5483  0.4400
 6131TIP3    H239809   0.111   2.053  15.219 -1.5287 -1.9303 -0.3987
 6132TIP3   OH239810   3.124   5.099   2.515 -0.2931  0.1821 -0.0910
 6132TIP3    H139811   3.115   5.035   2.587  0.2763 -0.2347 -0.3835
 6132TIP3    H239812   3.087   5.180   2.551 -1.0194 -0.3050  0.2881
 6133TIP3   OH239813   2.888   2.782   5.402 -0.2383  0.2858  0.5051
 6133TIP3    H139814   2.878   2.703   5.349  0.2070  0.9492 -0.5750
 6133TIP3    H239815   2.839   2.762   5.482 -0.2936 -1.0087  0.1705
 6134TIP3   OH239816   5.171   2.629   1.508  0.1514  0.4071 -0.1812
 6134TIP3    H139817   5.123   2.653   1.587 -0.9494  1.3496 -1.1210
 6134TIP3    H239818   5.112   2.652   1.436  1.2388 -0.2044 -1.2832
 6135TIP3   OH239819   2.836   5.063   0.011 -0.3872  0.5992 -0.5739
 6135TIP3    H139820   2.746   5.041  -0.015 -0.1365 -1.0451 -0.1267
 6135TIP3    H239821   2.829   5.152   0.046 -2.0793  0.0763  0.5298
 6136TIP3   OH239822   1.858   5.854  13.410  0.7859  0.0663  0.5536
 6136TIP3    H139823   1.856   5.945  13.381  1.6415 -0.0610  0.0878
 6136TIP3    H239824   1.785   5.813  13.363 -0.0619  0.6659  1.3174
 6137TIP3   OH239825   2.557   6.577   0.526  0.2822  0.4458 -0.1213
 6137TIP3    H139826   2.552   6.588   0.431  0.7850  0.9688 -0.0846
 6137TIP3    H239827   2.638   6.529   0.541 -0.7762 -1.4138 -0.1037
 6138TIP3   OH239828   5.343   5.862  10.130 -0.0927  0.5369 -0.2214
 6138TIP3    H139829   5.308   5.890  10.046 -0.8008 -2.0372 -0.8160
 6138TIP3    H239830   5.368   5.770  10.117  0.0322  0.1741  2.2788
 6139TIP3   OH239831   2.007   2.460   6.448 -0.0915  0.0190  0.1279
 6139TIP3    H139832   2.017   2.526   6.517 -1.7965  0.8822 -0.4357
 6139TIP3    H239833   2.074   2.484   6.384  0.0950  0.4712  0.4821
 6140TIP3   OH239834   6.124   2.997  15.569 -0.5409 -0.3756 -0.5903
 6140TIP3    H139835   6.089   3.074  15.524  0.2663 -0.9873 -2.3168
 6140TIP3    H239836   6.219   3.012  15.571 -0.4292 -1.0858 -0.4721
 6141TIP3   OH239837   2.038   4.035  11.238  0.2669  0.1508 -0.2456
 6141TIP3    H139838   2.018   4.122  11.203  0.4277  0.1531 -0.3359
 6141TIP3    H239839   2.128   4.044  11.272  0.5672 -0.1961 -0.9599
 6142TIP3   OH239840   2.626   6.220   1.894  0.3603  0.0458 -0.2854
 6142TIP3    H139841   2.673   6.174   1.964  0.6058 -0.0700 -0.5279
 6142TIP3    H239842   2.684   6.213   1.818  0.3519  0.6695 -0.3480
 6143TIP3   OH239843   6.773   4.292   0.753  0.1835  0.5643 -0.3662
 6143TIP3    H139844   6.763   4.205   0.791  0.5810 -0.5855 -2.7661
 6143TIP3    H239845   6.836   4.336   0.810  1.1762 -1.2753  0.0165
 6144TIP3   OH239846   1.877   2.103   3.718  0.1397 -0.2169 -0.0913
 6144TIP3    H139847   1.864   2.011   3.742 -0.9485 -0.0718 -0.0821
 6144TIP3    H239848   1.913   2.143   3.797 -0.5946 -0.3688  0.3284
 6145TIP3   OH239849   5.274   1.145   0.748 -0.2181  0.6527 -0.1620
 6145TIP3    H139850   5.218   1.199   0.803  0.5220  2.4638 -1.1574
 6145TIP3    H239851   5.268   1.185   0.661  1.7157  0.1924 -0.5268
 6146TIP3   OH239852   4.106   3.006  12.357  0.4333  0.0784 -0.5263
 6146TIP3    H139853   4.166   2.949  12.308 -0.4478  0.4101 -2.0369
 6146TIP3    H239854   4.021   2.962  12.352  0.3856 -0.0053  0.9385
 6147TIP3   OH239855   3.646   3.326   6.418 -0.4174  0.2447  0.0460
 6147TIP3    H139856   3.600   3.303   6.337  0.0801 -2.3416  0.4421
 6147TIP3    H239857   3.708   3.394   6.392 -1.1870  0.3826 -1.4782
 6148TIP3   OH239858   1.780   6.157   0.797  0.2631 -0.9257 -0.1033
 6148TIP3    H139859   1.721   6.203   0.737  0.5519  1.0052  1.0479
 6148TIP3    H239860   1.722   6.104   0.852 -0.3594  0.4164  0.5550
 6149TIP3   OH239861   2.860   3.756   3.785 -0.2481  0.2273 -0.0053
 6149TIP3    H139862   2.934   3.715   3.741 -0.0166 -0.2076  0.7952
 6149TIP3    H239863   2.894   3.784   3.870 -0.8740  0.4525  0.1759
 6150TIP3   OH239864   1.447   0.687   1.148  0.4833  0.2184  0.4517
 6150TIP3    H139865   1.512   0.660   1.213  0.0167 -0.1022  0.7876
 6150TIP3    H239866   1.363   0.660   1.186  0.3483 -1.5499 -1.0812
 6151TIP3   OH239867   2.482   3.649   4.274 -0.1153  0.0431 -0.4352
 6151TIP3    H139868   2.451   3.570   4.231 -1.5911  0.8839 -0.9449
 6151TIP3    H239869   2.443   3.645   4.361  0.9332 -0.4718  0.0134
 6152TIP3   OH239870   5.136   0.475  14.638 -0.0977 -0.5431  0.4942
 6152TIP3    H139871   5.119   0.505  14.549  1.4188 -1.2267 -0.0462
 6152TIP3    H239872   5.088   0.392  14.644  1.5172 -1.5772 -0.4299
 6153TIP3   OH239873   6.535   2.392   1.765 -0.6040 -0.4822 -0.2797
 6153TIP3    H139874   6.580   2.344   1.834  1.7571  0.7155 -0.9402
 6153TIP3    H239875   6.541   2.335   1.688 -0.9504 -0.6784 -0.1632
 6154TIP3   OH239876   2.649   2.081  13.353  0.3255  0.1764  0.5541
 6154TIP3    H139877   2.635   2.044  13.440  2.5956  0.4189  1.0627
 6154TIP3    H239878   2.744   2.076  13.340 -0.1323 -1.3237 -2.5743
 6155TIP3   OH239879   1.013   0.770  15.959 -0.4011  0.6722  0.3457
 6155TIP3    H139880   1.004   0.840  15.895  0.1290  1.8053  1.4800
 6155TIP3    H239881   0.935   0.777  16.014  0.6567  1.7506  1.7572
 6156TIP3   OH239882   4.895   4.963  16.499 -0.4926  0.0619  0.0374
 6156TIP3    H139883   4.842   4.910  16.439 -0.6064 -1.3810  1.3777
 6156TIP3    H239884   4.831   5.001  16.560 -0.5704  2.9411 -1.7767
 6157TIP3   OH239885   6.549   0.557  17.126  0.9799 -0.1281 -0.0993
 6157TIP3    H139886   6.467   0.551  17.174  0.4156  0.0915 -1.0232
 6157TIP3    H239887   6.592   0.472  17.139 -0.3346 -0.9865 -1.3149
 6158TIP3   OH239888   4.348   5.258  12.792  0.7426 -0.4071 -0.4287
 6158TIP3    H139889   4.312   5.259  12.703  0.6712  0.9847 -0.3897
 6158TIP3    H239890   4.442   5.266  12.780  0.4751  4.4557 -0.2801
 6159TIP3   OH239891   3.718   1.275  13.660  0.4333  0.8950 -0.2786
 6159TIP3    H139892   3.749   1.214  13.727  0.7264  1.5976  0.2376
 6159TIP3    H239893   3.671   1.221  13.597 -0.0810  0.2560  0.6452
 6160TIP3   OH239894   6.441   0.320   2.044  0.5218 -0.1474 -0.1073
 6160TIP3    H139895   6.521   0.340   2.092 -1.2652  1.3997  2.3513
 6160TIP3    H239896   6.417   0.231   2.072 -0.2967  0.5961  1.6645
 6161TIP3   OH239897   2.053   6.112  12.154 -0.0918  0.1113  0.1344
 6161TIP3    H139898   2.129   6.164  12.128 -0.3184 -0.3777 -1.5534
 6161TIP3    H239899   1.994   6.115  12.078 -0.8862 -1.1294  0.6800
 6162TIP3   OH239900   5.283   2.936   3.259  0.8221 -0.1408  0.5982
 6162TIP3    H139901   5.280   2.998   3.332 -0.3341  0.1776  0.2868
 6162TIP3    H239902   5.193   2.932   3.227  1.3308 -0.2317 -0.8598
 6163TIP3   OH239903   1.485   0.983   5.712  0.3828 -0.1034  0.6319
 6163TIP3    H139904   1.486   1.077   5.697 -1.6345 -0.3019 -1.0475
 6163TIP3    H239905   1.562   0.950   5.667  0.1219  0.5587 -0.3216
 6164TIP3   OH239906   0.462   5.312   4.864 -0.0256 -0.0724 -0.2616
 6164TIP3    H139907   0.506   5.388   4.901  0.4359 -0.3760 -0.1731
 6164TIP3    H239908   0.460   5.248   4.936  2.5521 -1.3581 -1.2909
 6165TIP3   OH239909   4.501   4.514  15.394 -0.2137 -0.0855  0.1706
 6165TIP3    H139910   4.465   4.516  15.483 -0.3023 -0.5448  0.1456
 6165TIP3    H239911   4.438   4.563  15.342  0.4648  1.2601  0.5840
 6166TIP3   OH239912   3.710   0.615  13.904 -0.0335  0.0663  0.0834
 6166TIP3    H139913   3.742   0.544  13.960 -0.9257 -0.3178  0.1075
 6166TIP3    H239914   3.790   0.656  13.870  0.5485  0.9864  2.4692
 6167TIP3   OH239915   5.605   3.370   4.609  0.4482 -0.0848  0.3353
 6167TIP3    H139916   5.526   3.325   4.578  1.1804 -1.3393  0.2628
 6167TIP3    H239917   5.592   3.461   4.583 -0.7871 -0.3606 -0.0509
 6168TIP3   OH239918   1.682   4.764  16.146 -0.3572 -0.2429  0.4368
 6168TIP3    H139919   1.626   4.686  16.149  0.6313 -1.0730 -1.6911
 6168TIP3    H239920   1.762   4.734  16.101  1.4252  1.1411  2.5815
 6169TIP3   OH239921   5.987   0.361   2.459  0.1026  0.0839 -0.1391
 6169TIP3    H139922   6.063   0.417   2.446 -0.2008  0.7097  0.6969
 6169TIP3    H239923   5.912   0.420   2.444 -0.2213 -0.0467  0.9604
 6170TIP3   OH239924   6.600   5.949  14.681 -0.4631 -0.0552 -0.5973
 6170TIP3    H139925   6.687   5.937  14.645 -0.5091 -0.4905 -0.5670
 6170TIP3    H239926   6.553   5.869  14.657 -0.4485 -0.4176  0.5617
 6171TIP3   OH239927   0.838   2.510   0.514  0.2305 -0.0814  0.0427
 6171TIP3    H139928   0.891   2.507   0.434 -3.0517  1.8428 -2.3613
 6171TIP3    H239929   0.815   2.419   0.531  1.3643 -0.5645 -0.9287
 6172TIP3   OH239930   2.479   0.868  10.826  0.6555  0.2715 -0.0303
 6172TIP3    H139931   2.419   0.943  10.834  2.1863  1.5084  0.1762
 6172TIP3    H239932   2.458   0.812  10.901 -0.6385  0.3891 -0.2951
 6173TIP3   OH239933   4.326   6.597   0.283 -0.5919  0.2100 -0.1064
 6173TIP3    H139934   4.368   6.511   0.277 -1.6196 -0.3760  0.9199
 6173TIP3    H239935   4.327   6.630   0.193  0.2582 -0.6465 -0.4290
 6174TIP3   OH239936   0.100   6.769  15.860 -0.1862 -0.1498 -0.4164
 6174TIP3    H139937   0.158   6.799  15.930 -0.7378 -0.3774  0.1398
 6174TIP3    H239938   0.021   6.823  15.869 -0.5438 -0.6654 -0.4023
 6175TIP3   OH239939   3.743   2.690  12.777  0.1131  0.1489 -0.1352
 6175TIP3    H139940   3.775   2.599  12.776 -2.0345 -0.6256 -1.1592
 6175TIP3    H239941   3.812   2.739  12.733  0.8711 -1.1405 -0.4402
 6176TIP3   OH239942   2.260   2.501  14.725  0.1652  0.4397  0.9444
 6176TIP3    H139943   2.240   2.595  14.735  3.5591  1.6442 -2.6503
 6176TIP3    H239944   2.351   2.493  14.753 -0.1796 -1.8890  1.4824
 6177TIP3   OH239945   6.321   6.565   4.119  0.1074 -1.1655 -0.1449
 6177TIP3    H139946   6.257   6.625   4.081 -2.2985 -2.4724  1.6788
 6177TIP3    H239947   6.369   6.530   4.044 -0.7055  0.5441 -1.4820
 6178TIP3   OH239948   3.983   4.748   6.685  0.5106  0.8003 -0.4090
 6178TIP3    H139949   3.942   4.668   6.717  0.3275  0.7781 -0.6905
 6178TIP3    H239950   4.013   4.726   6.597  0.0799  1.1669 -0.6486
 6179TIP3   OH239951   1.582   2.756  15.717  0.1950 -0.1923 -0.5787
 6179TIP3    H139952   1.566   2.687  15.652  2.1225 -1.2579  0.0138
 6179TIP3    H239953   1.677   2.768  15.715  0.0377  1.3604  0.4610
 6180TIP3   OH239954   3.468   4.940   4.728  0.1785 -0.1360 -0.8316
 6180TIP3    H139955   3.444   4.956   4.819 -0.3614  1.7037 -1.2727
 6180TIP3    H239956   3.499   4.849   4.726  1.1069  0.1104  1.3592
 6181TIP3   OH239957   5.647   5.986   5.532 -0.1464  0.7776 -0.7841
 6181TIP3    H139958   5.734   5.995   5.571  0.0915 -1.0294 -0.8585
 6181TIP3    H239959   5.587   5.994   5.606  0.1885 -0.0073 -0.4146
 6182TIP3   OH239960   1.796   6.722   0.652  0.2155 -0.1398 -0.3984
 6182TIP3    H139961   1.881   6.683   0.633  0.4115 -0.1555  0.4746
 6182TIP3    H239962   1.816   6.815   0.665  0.2329 -0.2718  0.5945
 6183TIP3   OH239963   4.062   2.195   2.487  0.0973  0.1066 -0.0358
 6183TIP3    H139964   3.986   2.231   2.442 -2.0088 -3.2757  0.6448
 6183TIP3    H239965   4.109   2.146   2.420 -1.5152 -2.5979  0.7568
 6184TIP3   OH239966   0.708   5.669  16.609 -0.1561 -0.0692 -0.0320
 6184TIP3    H139967   0.688   5.583  16.574 -1.8484  0.3865 -0.2099
 6184TIP3    H239968   0.625   5.716  16.607  0.8737  1.7846 -0.5366
 6185TIP3   OH239969   4.647   5.616  15.319 -0.3604  0.7701  0.1184
 6185TIP3    H139970   4.552   5.622  15.321 -0.6577 -1.8581 -2.2131
 6185TIP3    H239971   4.667   5.582  15.231  2.7041  0.9546  0.6857
 6186TIP3   OH239972   6.527   2.583   0.282 -0.3983  0.1290  0.5188
 6186TIP3    H139973   6.464   2.513   0.299  0.3407 -0.1456  2.1353
 6186TIP3    H239974   6.612   2.542   0.291  0.0753  0.3288 -2.3532
 6187TIP3   OH239975   5.720   3.193   2.026 -0.7749 -0.0404  0.0224
 6187TIP3    H139976   5.804   3.227   2.056  0.3158 -2.4109 -0.2410
 6187TIP3    H239977   5.685   3.262   1.969  1.2568  0.7354 -0.3327
 6188TIP3   OH239978   5.385   2.556  12.433 -0.0356  0.1074 -0.1771
 6188TIP3    H139979   5.444   2.630  12.448  0.0380  0.2104 -0.9695
 6188TIP3    H239980   5.424   2.484  12.484 -1.4629  1.2605  2.6301
 6189TIP3   OH239981   5.623   0.910   3.973 -0.5920  0.0393  0.6598
 6189TIP3    H139982   5.597   0.991   3.929 -2.1537 -2.3223 -3.0554
 6189TIP3    H239983   5.563   0.902   4.047 -0.8368  1.9846  0.6828
 6190TIP3   OH239984   1.525   2.281  11.232  0.1268  0.6042  0.0975
 6190TIP3    H139985   1.556   2.194  11.258  0.4083  0.6049 -0.2326
 6190TIP3    H239986   1.459   2.264  11.165 -1.4604  0.5506  1.6320
 6191TIP3   OH239987   6.447   3.594   1.834  0.1625  0.3917  0.1303
 6191TIP3    H139988   6.490   3.675   1.860  0.4824 -0.5816  2.7818
 6191TIP3    H239989   6.371   3.588   1.893 -0.7751 -0.4396 -1.1339
 6192TIP3   OH239990   5.198   5.171   4.136 -0.1021  0.3029 -0.0380
 6192TIP3    H139991   5.212   5.252   4.186  1.9038  2.2129 -3.5290
 6192TIP3    H239992   5.285   5.133   4.126 -0.6884 -0.9029 -0.6871
 6193TIP3   OH239993   6.044   5.603   3.027  0.5882 -0.2895  0.7437
 6193TIP3    H139994   6.124   5.589   3.078  0.8370 -0.0710  0.4197
 6193TIP3    H239995   6.073   5.656   2.952  0.1127 -0.0952  0.6991
 6194TIP3   OH239996   5.398   0.417  12.968  0.1212  0.3702 -0.3319
 6194TIP3    H139997   5.355   0.333  12.949  0.5961  0.1108 -0.2503
 6194TIP3    H239998   5.338   0.461  13.029 -0.5084  0.4236 -0.9801
 6195TIP3   OH239999   2.682   4.447  14.316  0.0934 -0.0273 -0.1809
 6195TIP3    H140000   2.632   4.389  14.258  1.0958  0.8913 -2.0393
 6195TIP3    H240001   2.732   4.388  14.372 -0.6320 -0.9474 -0.4789
 6196TIP3   OH240002   5.030   3.407   3.590 -0.5043  0.4787 -0.0573
 6196TIP3    H140003   5.022   3.375   3.680  0.6637 -0.1811 -0.1841
 6196TIP3    H240004   4.991   3.495   3.593 -0.8111  0.3190  1.0017
 6197TIP3   OH240005   0.819   3.804  14.509  0.6173  0.0364 -0.3713
 6197TIP3    H140006   0.839   3.732  14.568 -1.0880 -0.2203 -0.0772
 6197TIP3    H240007   0.843   3.772  14.422 -0.4075 -0.9880 -0.2797
 6198TIP3   OH240008   1.533   0.114  13.965  0.1303  0.1090 -0.1790
 6198TIP3    H140009   1.584   0.142  14.041  1.7066 -0.6584 -0.9284
 6198TIP3    H240010   1.495   0.195  13.931 -1.1551  0.3666  1.8096
 6199TIP3   OH240011   1.235   1.058   4.405 -0.3916  0.0312  0.2336
 6199TIP3    H140012   1.167   0.995   4.382 -0.4616  0.1263  0.1816
 6199TIP3    H240013   1.233   1.124   4.336  1.5843 -1.3930 -1.2484
 6200TIP3   OH240014   1.765   0.902  11.397  0.7399 -0.2596  0.4065
 6200TIP3    H140015   1.726   0.818  11.370  1.9267 -0.6849 -0.0271
 6200TIP3    H240016   1.693   0.965  11.392 -0.5186 -1.5016  2.0615
 6201TIP3   OH240017   2.142   4.706  15.786 -0.3064 -0.0277 -0.2501
 6201TIP3    H140018   2.124   4.754  15.867 -0.7501  1.4472 -1.1872
 6201TIP3    H240019   2.182   4.624  15.814  0.4378  0.8865  1.4139
 6202TIP3   OH240020   2.080   1.890   0.180  0.5059  0.5216  1.1312
 6202TIP3    H140021   2.053   1.814   0.128 -0.2509  1.2071  0.5084
 6202TIP3    H240022   2.046   1.965   0.132  0.4096  1.2118  2.2568
 6203TIP3   OH240023   2.701   0.620   4.452  0.0487  0.3182 -0.2637
 6203TIP3    H140024   2.700   0.716   4.452 -1.2497  0.3085  0.0626
 6203TIP3    H240025   2.658   0.596   4.534 -0.8581 -0.5562 -0.9972
 6204TIP3   OH240026   0.708   3.420   1.017 -0.1017  0.2104  1.3052
 6204TIP3    H140027   0.799   3.446   1.004 -0.1290  0.2121  1.1059
 6204TIP3    H240028   0.661   3.502   1.032  0.0139  0.1632  1.9404
 6205TIP3   OH240029   3.427   5.481   5.076 -0.6141 -0.6484  0.1204
 6205TIP3    H140030   3.476   5.426   5.015 -1.4833 -0.8834 -0.3720
 6205TIP3    H240031   3.461   5.569   5.060  0.6940 -1.0009  0.8246
 6206TIP3   OH240032   0.747   2.814  14.447  0.4802 -0.0783  0.1975
 6206TIP3    H140033   0.730   2.720  14.444 -1.5787  0.2473  0.7969
 6206TIP3    H240034   0.742   2.836  14.540 -0.7651  0.8967 -0.0861
 6207TIP3   OH240035   3.931   3.586   3.546 -0.2180  0.3927 -0.0787
 6207TIP3    H140036   3.996   3.650   3.576  0.0373 -0.0959  0.4270
 6207TIP3    H240037   3.885   3.560   3.626 -0.4465  0.0828 -0.3112
 6208TIP3   OH240038   5.180   1.884   5.709  0.3395  0.3357  0.3036
 6208TIP3    H140039   5.175   1.846   5.796 -0.2098  1.0062  0.5792
 6208TIP3    H240040   5.131   1.824   5.653 -0.2224  0.4580  0.6642
 6209TIP3   OH240041   5.522   6.062   0.459  0.0360 -0.4983  0.1064
 6209TIP3    H140042   5.507   6.098   0.547  0.2990  1.0567 -0.4849
 6209TIP3    H240043   5.508   6.135   0.400  0.7328 -1.3241 -1.1039
 6210TIP3   OH240044   0.039   1.976   2.231  0.2026 -0.6472  0.9832
 6210TIP3    H140045  -0.003   2.046   2.281  0.1263  0.8890 -1.1738
 6210TIP3    H240046   0.103   2.021   2.176  1.4309 -2.4820  0.8649
 6211TIP3   OH240047   6.036   4.936   1.213 -0.7943  0.5321 -0.4778
 6211TIP3    H140048   6.042   4.840   1.206 -0.3860  0.4907  0.4299
 6211TIP3    H240049   6.114   4.962   1.262 -0.2489  1.4660 -1.8258
 6212TIP3   OH240050   5.534   2.268   3.944 -0.0472  0.5513  0.1108
 6212TIP3    H140051   5.605   2.238   4.000  0.0732  0.5343 -0.0476
 6212TIP3    H240052   5.568   2.349   3.905  0.0591  0.3077 -0.3056
 6213TIP3   OH240053   4.947   0.584   0.110  0.6396  0.2961  0.2971
 6213TIP3    H140054   4.976   0.579   0.018 -0.2263  0.7706 -0.0038
 6213TIP3    H240055   4.889   0.660   0.112 -1.8826 -1.5976  0.5526
 6214TIP3   OH240056   6.605   0.113   3.637  0.0531  0.4880  0.0525
 6214TIP3    H140057   6.661   0.064   3.576 -1.6526 -0.4811 -0.7932
 6214TIP3    H240058   6.640   0.093   3.724  1.0871  0.0024 -0.4672
 6215TIP3   OH240059   0.663   5.418   3.177 -0.0094 -0.2560 -0.1797
 6215TIP3    H140060   0.669   5.507   3.210 -1.3171 -0.5922  1.0338
 6215TIP3    H240061   0.569   5.400   3.171  0.2311 -1.8654  0.5361
 6216TIP3   OH240062   5.676   0.366  16.808 -0.1828  0.4388  0.2634
 6216TIP3    H140063   5.756   0.415  16.824 -0.3040  1.3070 -1.6459
 6216TIP3    H240064   5.628   0.418  16.744 -1.0179 -1.4127 -0.6737
 6217TIP3   OH240065   5.258   0.659  13.733 -0.4128 -0.0372 -0.2423
 6217TIP3    H140066   5.166   0.659  13.758  0.0764  0.0756  1.5850
 6217TIP3    H240067   5.287   0.568  13.743 -0.0561  0.1216  0.1750
 6218TIP3   OH240068   0.211   4.266   0.580 -0.3176  0.3811  0.6656
 6218TIP3    H140069   0.276   4.254   0.649 -0.0864  1.6193  0.6756
 6218TIP3    H240070   0.138   4.311   0.623 -0.1640  1.1798  0.1208
 6219TIP3   OH240071   4.827   1.933   3.162  0.4839  0.7120 -0.2666
 6219TIP3    H140072   4.773   1.861   3.195  0.5020  0.5100 -0.6765
 6219TIP3    H240073   4.890   1.891   3.103  0.5474  1.0518 -0.4412
 6220TIP3   OH240074   6.050   2.357  16.943  0.2000 -0.5535 -0.1073
 6220TIP3    H140075   6.018   2.387  17.028 -0.3855 -1.6104  0.0523
 6220TIP3    H240076   6.078   2.437  16.898 -0.2608  0.0989  0.7541
 6221TIP3   OH240077   6.266   2.638  14.598 -0.3365  0.6893 -0.8953
 6221TIP3    H140078   6.335   2.599  14.543 -0.4634  0.0379 -0.6006
 6221TIP3    H240079   6.197   2.572  14.600 -0.7370  1.1146 -0.7416
 6222TIP3   OH240080   4.882   4.099  13.905 -0.5869  0.2056 -0.0628
 6222TIP3    H140081   4.845   4.015  13.932  0.0923 -0.0546  0.0881
 6222TIP3    H240082   4.928   4.080  13.824 -1.4539  0.6958 -0.6705
 6223TIP3   OH240083   5.992   2.266   3.322  0.3904 -0.4195 -0.2338
 6223TIP3    H140084   5.907   2.303   3.294  0.5879  1.6143  1.7229
 6223TIP3    H240085   6.056   2.331   3.292  1.1022 -1.1292 -0.2355
 6224TIP3   OH240086   6.076   6.195  13.948  0.1941  0.7534 -0.1616
 6224TIP3    H140087   6.012   6.177  14.018  2.2070 -1.3299  1.2241
 6224TIP3    H240088   6.022   6.209  13.870 -2.0117  0.1753  1.2013
 6225TIP3   OH240089   5.931   0.426  16.910  0.0736  0.0825  0.1075
 6225TIP3    H140090   5.912   0.476  16.990 -1.7147  1.5714 -1.2021
 6225TIP3    H240091   5.992   0.481  16.861  1.2912 -0.9017  0.5097
 6226TIP3   OH240092   1.264   4.240  12.076  0.3083  0.3818  0.5943
 6226TIP3    H140093   1.258   4.331  12.047  1.4314  0.1506 -0.3756
 6226TIP3    H240094   1.229   4.241  12.165  0.3467  1.7745  0.5988
 6227TIP3   OH240095   3.703   2.196  11.140  0.0175 -0.6280  0.1001
 6227TIP3    H140096   3.782   2.162  11.182 -0.6191  0.0775  1.9188
 6227TIP3    H240097   3.723   2.195  11.046  2.4438  0.1926  0.5853
 6228TIP3   OH240098   5.349   4.278   4.712  0.4185 -0.1009 -0.4137
 6228TIP3    H140099   5.420   4.327   4.671 -1.3107  1.1295 -2.0473
 6228TIP3    H240100   5.324   4.330   4.788  0.3867  0.1341 -0.5865
 6229TIP3   OH240101   2.820   3.118  11.590  0.5097  0.3578  0.1330
 6229TIP3    H140102   2.789   3.030  11.611 -0.2703 -0.0390 -2.5735
 6229TIP3    H240103   2.900   3.128  11.643  0.0405 -1.5631  1.2581
 6230TIP3   OH240104   1.925   5.623   2.984 -0.0364  0.5735 -0.6021
 6230TIP3    H140105   1.938   5.532   3.009  0.0823  0.6003 -0.5625
 6230TIP3    H240106   1.875   5.620   2.903  0.3193  0.4640 -0.8172
 6231TIP3   OH240107   3.716   1.592   5.617  0.0821  0.5303  0.2168
 6231TIP3    H140108   3.751   1.681   5.629  0.7884  0.1014  1.5666
 6231TIP3    H240109   3.625   1.598   5.647  0.1842  0.7626  0.4934
 6232TIP3   OH240110   1.277   1.487  14.605 -0.1029  0.2163  0.0566
 6232TIP3    H140111   1.303   1.395  14.600 -0.4623  0.2374 -2.5664
 6232TIP3    H240112   1.335   1.531  14.544 -1.2016  1.4540 -0.0903
 6233TIP3   OH240113   5.708   5.658   5.233 -0.0981  0.0449  0.0374
 6233TIP3    H140114   5.641   5.700   5.287 -0.8828 -1.7426  0.4957
 6233TIP3    H240115   5.719   5.717   5.158 -1.2049  1.0285  0.6379
 6234TIP3   OH240116   0.278   3.344   5.368  0.4000  0.0807  0.2192
 6234TIP3    H140117   0.216   3.292   5.316 -0.5114 -0.8946  2.2479
 6234TIP3    H240118   0.340   3.378   5.303 -1.5830  0.1502 -1.7032
 6235TIP3   OH240119   4.597   1.871  13.874 -0.1594  0.0553 -0.3716
 6235TIP3    H140120   4.560   1.884  13.787 -0.1884  2.3832 -0.0321
 6235TIP3    H240121   4.579   1.952  13.921  0.3748 -0.9408  1.6286
 6236TIP3   OH240122   1.753   5.383   2.706 -0.5926  0.3501 -0.3867
 6236TIP3    H140123   1.735   5.397   2.613  0.7486 -0.3803 -0.7760
 6236TIP3    H240124   1.691   5.313   2.731  1.9712 -2.5841 -1.8649
 6237TIP3   OH240125   1.200   4.646   1.704  0.5314 -0.0379  0.1051
 6237TIP3    H140126   1.210   4.562   1.659 -0.7329 -0.4246  0.5383
 6237TIP3    H240127   1.271   4.700   1.669  1.5870 -1.3903  0.0905
 6238TIP3   OH240128   2.289   3.413  15.720  0.0598  0.2394 -0.8018
 6238TIP3    H140129   2.254   3.377  15.801  1.3282 -0.4759 -0.5567
 6238TIP3    H240130   2.327   3.338  15.675 -0.0630  0.7444 -1.7684
 6239TIP3   OH240131   5.655   4.335   3.816 -0.4936 -0.0083  0.1184
 6239TIP3    H140132   5.731   4.329   3.873 -0.5800 -0.3011  0.2049
 6239TIP3    H240133   5.585   4.290   3.864 -0.3055 -1.1565 -0.6591
 6240TIP3   OH240134   2.075   4.365   3.794  0.1496 -0.1921 -0.6032
 6240TIP3    H140135   2.088   4.288   3.850  0.3112  0.5071  0.3527
 6240TIP3    H240136   2.037   4.430   3.853  0.4495  0.6017 -1.2814
 6241TIP3   OH240137   1.067   0.734  16.354  0.1795 -0.0271  0.4841
 6241TIP3    H140138   1.153   0.760  16.321 -0.0701  0.3779  0.1474
 6241TIP3    H240139   1.070   0.753  16.448  0.8549 -1.0834  0.6917
 6242TIP3   OH240140   0.319   4.751  10.891 -0.0669 -0.2629 -0.2375
 6242TIP3    H140141   0.308   4.707  10.975  2.2314 -1.6702 -0.6473
 6242TIP3    H240142   0.395   4.808  10.903 -1.0252  1.1614 -0.7285
 6243TIP3   OH240143   5.151   1.917  16.899  0.9724  0.6409  0.2535
 6243TIP3    H140144   5.066   1.942  16.864  0.6504 -0.9857 -0.1798
 6243TIP3    H240145   5.160   1.967  16.979 -1.1518 -0.4071  1.1948
 6244TIP3   OH240146   3.342   3.643  11.761 -0.4457 -0.0667  0.3451
 6244TIP3    H140147   3.298   3.706  11.703 -0.9868 -1.0343 -0.3146
 6244TIP3    H240148   3.429   3.681  11.775 -0.5573  0.5465 -0.5324
 6245TIP3   OH240149   3.391   2.257   2.371 -0.0822  0.3613  0.1976
 6245TIP3    H140150   3.392   2.297   2.458 -0.4235  1.2175 -0.1885
 6245TIP3    H240151   3.467   2.198   2.371  0.3856  0.9535  0.7928
 6246TIP3   OH240152   5.248   4.809  16.629  0.7991 -0.1166 -0.4813
 6246TIP3    H140153   5.256   4.806  16.533 -2.8249  0.5926 -0.8814
 6246TIP3    H240154   5.197   4.731  16.651  0.6214  0.3376  0.7315
 6247TIP3   OH240155   2.872   4.374  12.784 -0.2952  0.1185 -0.1416
 6247TIP3    H140156   2.794   4.382  12.729 -0.4311 -0.9345 -0.1268
 6247TIP3    H240157   2.944   4.399  12.726 -0.8167  3.1424  0.4606
 6248TIP3   OH240158   5.578   2.760   2.139 -0.3982 -0.4837 -0.4540
 6248TIP3    H140159   5.532   2.720   2.064 -1.3310 -0.2185 -0.0356
 6248TIP3    H240160   5.579   2.853   2.119  0.2242 -0.5198 -0.5974
 6249TIP3   OH240161   0.415   5.841  12.974  0.0830 -0.2398 -0.0062
 6249TIP3    H140162   0.498   5.870  13.013 -0.3012 -0.8778  1.3010
 6249TIP3    H240163   0.353   5.842  13.046 -0.7893 -0.8715 -0.7370
 6250TIP3   OH240164   6.179   0.658   0.252 -0.1528 -0.5158  0.4481
 6250TIP3    H140165   6.091   0.644   0.287  0.1107 -0.7422  1.0310
 6250TIP3    H240166   6.237   0.642   0.327  0.2489  2.0803  0.7412
 6251TIP3   OH240167   0.745   0.056   5.710  0.4671 -0.7078 -0.3053
 6251TIP3    H140168   0.838   0.043   5.725  0.3104 -1.8594 -0.2840
 6251TIP3    H240169   0.728   0.146   5.738  2.0907  0.4565 -2.9050
 6252TIP3   OH240170   0.293   0.621   0.311  0.0716  0.0261 -0.0925
 6252TIP3    H140171   0.311   0.541   0.362 -1.9158 -1.5247 -1.7132
 6252TIP3    H240172   0.320   0.599   0.222  0.9226  1.7336 -0.2724
 6253TIP3   OH240173   0.590   4.521  14.410 -0.3470 -0.1797  0.3600
 6253TIP3    H140174   0.543   4.594  14.452  0.4280  1.2103 -1.1289
 6253TIP3    H240175   0.528   4.488  14.345 -0.6443 -0.7685  0.9383
 6254TIP3   OH240176   0.088   3.897  12.132  0.3754 -0.2682 -0.1023
 6254TIP3    H140177   0.008   3.873  12.086  0.1430  2.6555 -1.3716
 6254TIP3    H240178   0.157   3.889  12.066  0.5057  0.9184 -0.1346
 6255TIP3   OH240179   4.253   1.744  11.119  0.2610 -0.4866  0.2616
 6255TIP3    H140180   4.333   1.696  11.143  0.0320 -1.3129 -0.6008
 6255TIP3    H240181   4.183   1.698  11.165  0.2219 -0.0141  0.6841
 6256TIP3   OH240182   3.172   4.183   3.576 -0.5851 -0.3084 -0.2529
 6256TIP3    H140183   3.087   4.168   3.618 -1.4132  2.9303 -0.6658
 6256TIP3    H240184   3.152   4.187   3.482 -0.3623  2.6009 -0.2081
 6257TIP3   OH240185   1.147   3.611   4.649 -0.3922 -0.2428 -0.0867
 6257TIP3    H140186   1.196   3.617   4.731 -2.9839  0.8717  1.4369
 6257TIP3    H240187   1.176   3.686   4.598 -0.8482  0.7076  1.0155
 6258TIP3   OH240188   0.438   6.376   3.657 -0.2312  0.3487  0.4210
 6258TIP3    H140189   0.393   6.314   3.714  0.2394 -1.0100 -0.6620
 6258TIP3    H240190   0.529   6.376   3.687  0.2676 -1.2113 -0.9928
 6259TIP3   OH240191   5.583   0.193  15.526  0.2535 -0.4642 -0.1124
 6259TIP3    H140192   5.598   0.247  15.448  2.9644 -0.6670  0.2035
 6259TIP3    H240193   5.549   0.255  15.591 -0.2194  0.0955 -0.8798
 6260TIP3   OH240194   2.566   4.525  13.974  0.0469 -0.1087  0.2301
 6260TIP3    H140195   2.535   4.517  13.883 -1.9679  0.0287  0.8746
 6260TIP3    H240196   2.568   4.620  13.990 -0.0536 -0.1444  0.4585
 6261TIP3   OH240197   6.082   6.097   0.159  0.5993 -0.1747 -0.0345
 6261TIP3    H140198   6.073   6.189   0.135  2.1458 -0.7295 -2.9577
 6261TIP3    H240199   6.010   6.053   0.114  0.4795 -0.5447  0.5182
 6262TIP3   OH240200   2.968   4.924   5.420 -0.0376  0.6052  0.3415
 6262TIP3    H140201   2.965   4.830   5.405  2.8737  0.5063  0.1268
 6262TIP3    H240202   2.944   4.963   5.336 -0.9948  0.0897  0.3645
 6263TIP3   OH240203   2.640   5.252   3.162  0.1616  0.3320  0.3716
 6263TIP3    H140204   2.708   5.219   3.221 -0.0640  0.6881  0.8339
 6263TIP3    H240205   2.685   5.313   3.104  0.6159 -0.8829 -0.5894
 6264TIP3   OH240206   1.171   4.466   3.303  0.3481 -0.1963  0.5469
 6264TIP3    H140207   1.196   4.527   3.234  0.5321 -2.0503 -1.0877
 6264TIP3    H240208   1.077   4.450   3.288  0.1373  0.2365  1.4039
 6265TIP3   OH240209   3.452   4.759  13.629  0.3981  0.1240 -0.1614
 6265TIP3    H140210   3.427   4.675  13.667 -1.1557  1.4505  1.8379
 6265TIP3    H240211   3.547   4.755  13.622  0.4387 -1.3686  0.9903
 6266TIP3   OH240212   5.042   4.888   5.219  0.6739 -0.7943 -0.1373
 6266TIP3    H140213   5.111   4.940   5.261 -0.5681  0.1605  0.7575
 6266TIP3    H240214   5.081   4.859   5.136  2.1957 -0.3966  0.4182
 6267TIP3   OH240215   5.755   5.238   0.537  0.4418 -0.2606 -0.4596
 6267TIP3    H140216   5.793   5.266   0.453  0.6598 -1.4932 -0.7826
 6267TIP3    H240217   5.771   5.143   0.540  2.5295  0.1222  2.0578
 6268TIP3   OH240218   4.397   5.536  14.719  0.4686  0.7775  0.0356
 6268TIP3    H140219   4.409   5.578  14.634  0.2337 -0.8725 -0.8437
 6268TIP3    H240220   4.485   5.514  14.748  0.5037  0.7063 -0.1229
 6269TIP3   OH240221   3.803   6.589   1.619 -0.2686  0.4897 -0.1284
 6269TIP3    H140222   3.844   6.507   1.595 -0.6431  0.0955  0.5611
 6269TIP3    H240223   3.842   6.654   1.561  0.5137 -0.0637 -0.2247
 6270TIP3   OH240224   3.824   2.795   5.557  0.1010 -0.0496 -0.1675
 6270TIP3    H140225   3.842   2.860   5.625 -1.5743  0.5380 -0.2630
 6270TIP3    H240226   3.904   2.795   5.504  1.0055  0.2719  1.1493
 6271TIP3   OH240227   2.395   4.441   4.334 -0.2268  0.0406 -0.1013
 6271TIP3    H140228   2.310   4.401   4.319 -1.6121  2.4065  1.1793
 6271TIP3    H240229   2.458   4.377   4.300 -2.4120 -2.3873  0.2431
 6272TIP3   OH240230   3.019   6.317  16.763  0.2509  0.0119 -0.2408
 6272TIP3    H140231   2.931   6.280  16.756  0.4875 -0.4573 -0.7624
 6272TIP3    H240232   3.071   6.248  16.803  0.0037  0.9222  1.7696
 6273TIP3   OH240233   3.823   3.813  16.927 -0.5906 -0.1850  0.2244
 6273TIP3    H140234   3.787   3.898  16.901 -0.1731  0.1148  0.6171
 6273TIP3    H240235   3.875   3.785  16.852  0.9441  0.8694  0.8777
 6274TIP3   OH240236   0.973   2.746  14.961  0.2922  0.1775 -0.0159
 6274TIP3    H140237   0.942   2.737  15.051 -0.6769  0.2129 -0.3428
 6274TIP3    H240238   1.057   2.700  14.960  0.5982  0.6941  1.0549
 6275TIP3   OH240239   3.826   2.033   0.686  0.4131  0.0195 -0.3289
 6275TIP3    H140240   3.893   2.034   0.618  0.2697  0.2716 -0.4668
 6275TIP3    H240241   3.816   2.125   0.712 -0.0029  0.0061 -0.4293
 6276TIP3   OH240242   3.653   4.589   5.511 -0.0015 -0.3298 -0.1392
 6276TIP3    H140243   3.709   4.598   5.433  0.8393 -0.4000  0.4508
 6276TIP3    H240244   3.600   4.668   5.511 -0.9245 -0.9311 -1.5058
 6277TIP3   OH240245   5.812   0.816   2.742  0.7205 -0.4744  0.5680
 6277TIP3    H140246   5.839   0.756   2.672 -1.1636 -1.2520  0.4895
 6277TIP3    H240247   5.842   0.902   2.712  2.0727 -1.1324 -0.0457
 6278TIP3   OH240248   5.914   2.001   0.704  0.2639 -0.5623  0.5165
 6278TIP3    H140249   5.889   1.981   0.794 -0.1837  0.4191  0.6241
 6278TIP3    H240250   5.832   1.992   0.654 -0.0880  1.5152  0.6728
 6279TIP3   OH240251   6.584   6.134   5.122  0.0694 -0.1261  0.0414
 6279TIP3    H140252   6.610   6.158   5.211 -0.0321  2.5460 -0.5996
 6279TIP3    H240253   6.488   6.135   5.125  0.0654 -0.3251 -0.0330
 6280TIP3   OH240254   0.695   5.113   0.759  0.4157  0.6549 -0.0485
 6280TIP3    H140255   0.745   5.045   0.714  1.6260  0.7500  1.1204
 6280TIP3    H240256   0.626   5.137   0.697 -0.4353 -2.0726 -0.2366
 6281TIP3   OH240257   1.309   3.267   1.263 -0.3559  0.2641 -0.2675
 6281TIP3    H140258   1.374   3.333   1.238  1.0339 -0.7949  0.4650
 6281TIP3    H240259   1.360   3.200   1.309 -2.1354 -0.0505  1.3290
 6282TIP3   OH240260   1.591   5.128   1.515  0.5389  0.0248 -0.3137
 6282TIP3    H140261   1.549   5.197   1.566 -1.6509 -1.0165 -0.6735
 6282TIP3    H240262   1.682   5.129   1.544  0.1795  1.9735  0.8434
 6283TIP3   OH240263   4.120   1.908  15.459  0.3805  0.6669 -0.3522
 6283TIP3    H140264   4.162   1.884  15.376  0.7193 -2.0006  0.5485
 6283TIP3    H240265   4.172   1.864  15.526 -0.1094  2.4930  1.2747
 6284TIP3   OH240266   3.949   5.133   5.674  0.4968  0.1507 -0.1955
 6284TIP3    H140267   4.023   5.118   5.615 -1.1525  1.0909 -2.6010
 6284TIP3    H240268   3.940   5.051   5.723  2.0198 -0.5974 -1.1174
 6285TIP3   OH240269   2.979   2.121  14.325 -0.1940 -0.2105 -0.2915
 6285TIP3    H140270   2.995   2.190  14.261 -0.6550  2.2111  2.1052
 6285TIP3    H240271   3.060   2.114  14.375 -0.2791 -1.1651 -0.2599
 6286TIP3   OH240272   4.146   0.105   3.109  0.3672  0.2553 -0.3946
 6286TIP3    H140273   4.178   0.192   3.084 -0.1496  0.4717 -0.3124
 6286TIP3    H240274   4.061   0.122   3.150  0.8621 -0.1636  0.8377
 6287TIP3   OH240275   5.633   1.350  16.850  0.1367 -0.3221 -0.3869
 6287TIP3    H140276   5.688   1.318  16.922  0.4423  0.7717 -0.1309
 6287TIP3    H240277   5.638   1.445  16.857 -1.9658 -0.2122 -0.2443
 6288TIP3   OH240278   6.329   4.550  15.160 -0.2186 -0.2188  0.0023
 6288TIP3    H140279   6.256   4.509  15.113 -1.2308  0.1129  1.2724
 6288TIP3    H240280   6.407   4.512  15.119 -1.0265  0.9817 -2.7757
 6289TIP3   OH240281   0.897   1.656   4.161  0.0611 -0.5215  0.6063
 6289TIP3    H140282   0.941   1.579   4.125 -2.1992 -2.0438  1.0013
 6289TIP3    H240283   0.834   1.681   4.093 -0.7709 -0.3933  1.4184
 6290TIP3   OH240284   3.380   6.276  17.117  0.2054  0.2446 -0.6046
 6290TIP3    H140285   3.389   6.180  17.121 -0.0560  0.2498  0.2845
 6290TIP3    H240286   3.448   6.304  17.056 -0.7273 -0.6463 -2.0584
 6291TIP3   OH240287   4.034   4.991   0.205  0.5739  0.4894 -0.2809
 6291TIP3    H140288   4.058   4.919   0.147 -0.1033  1.1411 -1.3993
 6291TIP3    H240289   4.117   5.021   0.242  1.1137  0.5692 -1.5333
 6292TIP3   OH240290   3.860   1.244  15.908  0.6959 -0.3458  0.4832
 6292TIP3    H140291   3.842   1.274  15.998  0.0417  0.5664  0.0545
 6292TIP3    H240292   3.776   1.251  15.863  1.1666 -0.1615 -0.3740
 6293TIP3   OH240293   0.239   3.990  13.013  0.4632  0.0089 -0.6195
 6293TIP3    H140294   0.281   3.965  13.095  0.4604 -0.3093 -0.7164
 6293TIP3    H240295   0.195   4.072  13.033  1.3530  0.4855 -0.5876
 6294TIP3   OH240296   3.376   3.391   1.934  1.0107 -0.5865  0.4055
 6294TIP3    H140297   3.460   3.390   1.890  0.7409  1.3721 -0.2006
 6294TIP3    H240298   3.395   3.423   2.023  0.6445  1.9585 -0.3917
 6295TIP3   OH240299   6.544   4.093   4.296 -0.1573  0.1861 -0.3179
 6295TIP3    H140300   6.555   4.049   4.381  1.6140 -0.5758 -0.9192
 6295TIP3    H240301   6.524   4.184   4.319  0.0831 -0.0609  0.9193
 6296TIP3   OH240302   2.330   0.516   0.513 -0.6048  0.1315  0.5713
 6296TIP3    H140303   2.264   0.489   0.576  1.5725 -1.8510  2.1020
 6296TIP3    H240304   2.402   0.454   0.526  0.2793  0.2332 -3.2300
 6297TIP3   OH240305   2.023   1.446  16.552 -0.1722  0.1920  0.2567
 6297TIP3    H140306   2.118   1.431  16.550 -0.4973 -2.1769  1.0649
 6297TIP3    H240307   2.014   1.531  16.595  1.5657  0.1172  0.8357
 6298TIP3   OH240308   3.460   1.822   3.717 -0.1027  0.1648 -0.0365
 6298TIP3    H140309   3.460   1.791   3.627  1.0352  3.3993 -1.2006
 6298TIP3    H240310   3.380   1.785   3.755  0.5361 -3.0659 -1.6710
 6299TIP3   OH240311   6.513   2.780  12.085  0.0956 -0.7215  0.0102
 6299TIP3    H140312   6.548   2.712  12.143  2.2640 -0.3462 -0.8045
 6299TIP3    H240313   6.441   2.737  12.039  1.3005 -2.4195 -0.3342
 6300TIP3   OH240314   0.650   5.840  14.787 -0.1412 -0.0541  1.0604
 6300TIP3    H140315   0.699   5.767  14.826 -0.8711 -0.6109  0.9493
 6300TIP3    H240316   0.603   5.801  14.714 -0.6077  0.5137  1.0534
 6301TIP3   OH240317   4.068   1.619  11.800  0.1247 -0.0708 -0.2441
 6301TIP3    H140318   4.108   1.702  11.827  0.9833 -0.5416 -0.0637
 6301TIP3    H240319   3.977   1.626  11.829  0.6960 -0.0295  1.5772
 6302TIP3   OH240320   3.934   4.931  13.411 -0.5667  0.1731 -0.9351
 6302TIP3    H140321   3.865   4.871  13.438 -0.1097 -0.5685 -1.3985
 6302TIP3    H240322   3.897   5.018  13.425 -0.7091 -0.1913  1.1147
 6303TIP3   OH240323   2.781   2.272   3.097  0.1044  0.2123  0.0453
 6303TIP3    H140324   2.806   2.364   3.105  1.2078 -0.1434  0.8827
 6303TIP3    H240325   2.781   2.255   3.003  2.5278  0.3956 -0.0208
 6304TIP3   OH240326   1.561   6.420  13.014 -1.1699  0.1805 -0.4439
 6304TIP3    H140327   1.651   6.406  12.987 -0.1640  1.0625  2.2583
 6304TIP3    H240328   1.516   6.451  12.935  1.5118  2.2817 -1.2219
 6305TIP3   OH240329   4.110   2.825  13.810 -0.6431 -0.1711  0.0012
 6305TIP3    H140330   4.117   2.764  13.737 -2.5553  0.5222 -0.8068
 6305TIP3    H240331   4.038   2.884  13.785  1.4302  2.6832  0.5709
 6306TIP3   OH240332   6.194   6.651   3.065 -0.0141  0.2434  0.3330
 6306TIP3    H140333   6.210   6.580   3.003  0.8858 -0.3465  1.2401
 6306TIP3    H240334   6.245   6.725   3.029 -0.6211  0.3248 -0.3820
 6307TIP3   OH240335   5.582   2.295  15.398 -0.7268  0.5024 -0.1578
 6307TIP3    H140336   5.666   2.278  15.440 -1.2317 -0.0004  0.6589
 6307TIP3    H240337   5.595   2.269  15.307 -0.3513 -0.6987  0.2343
 6308TIP3   OH240338   1.739   2.907  15.051 -0.3120 -0.0515 -0.0847
 6308TIP3    H140339   1.775   2.823  15.022  0.1547  0.0246  0.2675
 6308TIP3    H240340   1.702   2.888  15.138  0.8585  0.3736  0.5201
 6309TIP3   OH240341   5.368   0.860   5.449  0.6290 -0.1098  0.0175
 6309TIP3    H140342   5.405   0.913   5.519 -2.0842  1.6922  0.1710
 6309TIP3    H240343   5.414   0.889   5.370 -0.3396  2.0582  0.2018
 6310TIP3   OH240344   5.119   0.427  16.166 -0.6374  0.3268  0.2910
 6310TIP3    H140345   5.089   0.337  16.172 -0.1115  0.1047 -0.2653
 6310TIP3    H240346   5.188   0.434  16.231 -0.3759  0.1978  0.0289
 6311TIP3   OH240347   0.905   0.008   1.716 -1.1644 -0.0643  0.7230
 6311TIP3    H140348   0.815  -0.003   1.687 -0.5987  0.3027 -1.2333
 6311TIP3    H240349   0.957  -0.045   1.655  0.3095  2.8490 -0.7079
 6312TIP3   OH240350   3.788   5.220  13.725  0.5670  0.4463 -0.0444
 6312TIP3    H140351   3.713   5.264  13.765  1.2543  3.1454 -1.6120
 6312TIP3    H240352   3.864   5.265  13.760  1.2087  2.1108 -3.3793
 6313TIP3   OH240353   3.843   0.117  12.021 -0.5549 -0.6650  0.4978
 6313TIP3    H140354   3.899   0.154  12.089  0.0537  0.0622 -0.3894
 6313TIP3    H240355   3.760   0.162  12.031 -0.5767 -0.8051  0.9703
 6314TIP3   OH240356   5.497   4.383  14.340 -0.2080 -0.2449  0.1587
 6314TIP3    H140357   5.513   4.300  14.295  1.8004  0.9787 -1.5073
 6314TIP3    H240358   5.585   4.416  14.361 -0.8248  2.5973 -1.3928
 6315TIP3   OH240359   1.407   4.044   6.128 -0.4734  0.5300  0.0212
 6315TIP3    H140360   1.385   4.137   6.136 -2.9185 -0.0497  0.3167
 6315TIP3    H240361   1.456   4.025   6.208 -2.0943  0.9943  1.1410
 6316TIP3   OH240362   3.736   1.161   4.610  0.6419 -0.2566 -0.2989
 6316TIP3    H140363   3.737   1.152   4.705  0.9937 -2.2201 -0.4684
 6316TIP3    H240364   3.657   1.115   4.583  1.4233 -1.1530 -1.0811
 6317TIP3   OH240365   2.640   5.918  14.546 -0.7777 -0.0851  0.2554
 6317TIP3    H140366   2.588   5.914  14.466  0.9424  1.5942 -1.0034
 6317TIP3    H240367   2.588   5.972  14.606  0.1503  2.8422 -1.5177
 6318TIP3   OH240368   5.721   1.015   1.276 -0.1797 -0.3810  0.5389
 6318TIP3    H140369   5.700   1.108   1.280  2.4856  0.3231 -0.9228
 6318TIP3    H240370   5.662   0.980   1.209  0.5779  0.7602 -0.7394
 6319TIP3   OH240371   5.668   3.993   3.535  0.1373  0.2084  0.2807
 6319TIP3    H140372   5.614   4.018   3.610 -1.1634  0.4162 -0.7157
 6319TIP3    H240373   5.751   4.039   3.550  0.3859 -0.7893  2.2525
 6320TIP3   OH240374   4.876   3.429   4.177  0.3367 -0.2421 -0.2854
 6320TIP3    H140375   4.970   3.448   4.185  0.1642  1.0297 -1.1060
 6320TIP3    H240376   4.855   3.380   4.257  1.9693 -1.6945 -0.7059
 6321TIP3   OH240377   1.337   4.499   4.934  0.2441 -0.2021 -0.0694
 6321TIP3    H140378   1.363   4.407   4.935  0.2944 -0.1807  0.7807
 6321TIP3    H240379   1.401   4.541   4.877  0.2231 -0.6944 -0.4570
 6322TIP3   OH240380   1.533   4.613  14.019 -0.2398  0.5687  0.0967
 6322TIP3    H140381   1.572   4.528  14.038 -0.3596 -0.0439 -2.1661
 6322TIP3    H240382   1.607   4.673  14.012 -0.0704  0.4154  0.5587
 6323TIP3   OH240383   0.506   1.070  17.091  0.2039  0.6009 -0.7663
 6323TIP3    H140384   0.453   1.075  17.012  0.9947  1.3568 -1.2601
 6323TIP3    H240385   0.522   1.161  17.115  1.2085  0.3927 -0.5856
 6324TIP3   OH240386   5.400   2.956  11.504  0.4144  0.4923 -0.0171
 6324TIP3    H140387   5.450   2.877  11.525 -1.0088 -0.1884  0.8520
 6324TIP3    H240388   5.423   2.975  11.413  1.6029 -0.2918  0.0982
 6325TIP3   OH240389   2.769   5.211  16.218  0.2357 -0.1179 -0.2511
 6325TIP3    H140390   2.839   5.203  16.153 -0.8262  1.3615 -1.6144
 6325TIP3    H240391   2.689   5.216  16.167 -0.7981 -1.0044  1.2750
 6326TIP3   OH240392   0.421   1.275  14.735  0.7197 -0.4179  0.5465
 6326TIP3    H140393   0.418   1.254  14.828 -0.0939  0.7660  0.8071
 6326TIP3    H240394   0.500   1.328  14.725  0.7105 -0.3931  0.6021
 6327TIP3   OH240395   3.378   5.742   4.533 -0.0491 -0.5703 -0.8305
 6327TIP3    H140396   3.469   5.734   4.561 -0.3633 -1.8024 -0.1551
 6327TIP3    H240397   3.343   5.654   4.539 -1.7665  0.1742  0.5238
 6328TIP3   OH240398   5.940   0.666  13.203 -0.2399  0.3759  0.1414
 6328TIP3    H140399   5.965   0.741  13.150  1.1946 -0.4497 -0.3579
 6328TIP3    H240400   6.022   0.623  13.226 -1.1625 -2.3728 -1.5431
 6329TIP3   OH240401   1.830   3.187   3.824  0.3619  0.3298 -0.2346
 6329TIP3    H140402   1.837   3.265   3.770  0.6531  1.1255  0.9201
 6329TIP3    H240403   1.875   3.211   3.905 -1.0698 -0.4160  0.8004
 6330TIP3   OH240404   3.140   5.483  16.666 -0.6986 -0.7370 -0.0312
 6330TIP3    H140405   3.067   5.535  16.701 -0.0005  1.0509 -1.1433
 6330TIP3    H240406   3.102   5.430  16.597 -1.0088  0.0077 -0.4358
 6331TIP3   OH240407   0.720   3.766  13.164 -1.0047 -0.4513 -0.8771
 6331TIP3    H140408   0.644   3.787  13.109 -1.6283  0.2119  0.2118
 6331TIP3    H240409   0.682   3.728  13.244 -0.2346  0.5353 -0.0334
 6332TIP3   OH240410   3.703   1.205   4.879  0.3987  0.4042 -0.1798
 6332TIP3    H140411   3.608   1.206   4.863  0.6140  4.1414 -1.8241
 6332TIP3    H240412   3.714   1.263   4.955  1.3214 -0.7582  0.5952
 6333TIP3   OH240413   1.822   1.517   1.009 -0.5499 -0.2045 -0.4074
 6333TIP3    H140414   1.762   1.447   1.033 -0.6596 -0.3022 -0.9746
 6333TIP3    H240415   1.802   1.537   0.918 -1.7526  1.7930  0.2458
 6334TIP3   OH240416   2.940   4.697   4.928  0.6555 -0.2724 -0.3950
 6334TIP3    H140417   2.847   4.681   4.941  0.5797 -0.5870 -1.3239
 6334TIP3    H240418   2.978   4.610   4.914  1.1228 -0.1639  0.1380
 6335TIP3   OH240419   1.490   6.764   4.008  0.2780 -0.3360  0.0695
 6335TIP3    H140420   1.519   6.852   4.033 -1.8888 -0.0629  1.7274
 6335TIP3    H240421   1.534   6.706   4.070  0.3679 -0.2761  0.0621
 6336TIP3   OH240422   5.655   1.886   3.378 -0.1873  0.6797  0.1896
 6336TIP3    H140423   5.743   1.875   3.413 -0.2243  1.9751  0.7502
 6336TIP3    H240424   5.668   1.930   3.294 -0.3560  2.5488  1.0973
 6337TIP3   OH240425   2.650   6.691  14.151  0.7748  0.0232  0.0099
 6337TIP3    H140426   2.638   6.777  14.191  0.5976 -0.1294  0.2845
 6337TIP3    H240427   2.579   6.684  14.088  0.4483 -0.1625  0.3993
 6338TIP3   OH240428   1.670   6.778  11.835 -0.0469 -0.0900  0.0591
 6338TIP3    H140429   1.746   6.834  11.855 -0.9967  0.5289  2.0355
 6338TIP3    H240430   1.707   6.690  11.826  1.0095  0.3263  0.2130
 6339TIP3   OH240431   5.990   4.429   1.840  0.1194  0.1658 -0.6839
 6339TIP3    H140432   5.926   4.384   1.895  0.0272  0.3096 -0.6704
 6339TIP3    H240433   6.005   4.512   1.885 -0.5716  0.6322 -1.2955
 6340TIP3   OH240434   4.071   2.146   3.101  0.4637  0.5428  0.4693
 6340TIP3    H140435   4.118   2.163   3.019 -0.4963 -0.9324 -0.4049
 6340TIP3    H240436   3.979   2.143   3.076  0.2741 -1.5432  1.3008
 6341TIP3   OH240437   5.272   0.860  13.991  0.2194 -0.5304 -0.3013
 6341TIP3    H140438   5.347   0.920  13.984  0.7074 -1.1427 -0.3874
 6341TIP3    H240439   5.275   0.810  13.909 -0.4424 -0.3797 -0.4198
 6342TIP3   OH240440   1.518   6.722  15.015 -0.0432 -0.0836 -0.7475
 6342TIP3    H140441   1.496   6.630  14.998 -1.2677 -0.2108  1.3014
 6342TIP3    H240442   1.468   6.771  14.950 -1.1119 -0.7698 -0.4659
 6343TIP3   OH240443   1.584   0.315  11.578 -0.5740  0.1792  0.0385
 6343TIP3    H140444   1.513   0.342  11.636  0.7701  0.2353  1.6724
 6343TIP3    H240445   1.649   0.384  11.584  0.7008 -1.0338  0.4321
 6344TIP3   OH240446   5.668   5.650  16.648  0.0493 -0.3023 -0.5667
 6344TIP3    H140447   5.744   5.632  16.704 -0.5789 -0.6065  0.1956
 6344TIP3    H240448   5.623   5.566  16.641 -1.0035  0.2000  0.1658
 6345TIP3   OH240449   3.828   4.325  14.592 -0.3419 -0.2387  0.1540
 6345TIP3    H140450   3.774   4.377  14.651 -1.0688 -1.6443  0.7714
 6345TIP3    H240451   3.777   4.244  14.579  0.9491 -0.9695 -0.4168
 6346TIP3   OH240452   3.029   5.576   0.431 -0.0443 -0.7172 -0.3120
 6346TIP3    H140453   2.995   5.488   0.413  1.5852 -1.1507 -1.3671
 6346TIP3    H240454   3.124   5.566   0.430  0.1416  0.6293  1.8449
 6347TIP3   OH240455   4.134   1.977   5.488  0.3586 -0.0472 -0.1908
 6347TIP3    H140456   4.056   2.031   5.477 -1.2044 -2.1273  0.5109
 6347TIP3    H240457   4.206   2.033   5.457 -1.0809  2.7274  1.2214
 6348TIP3   OH240458   4.380   5.644   5.167 -0.6225  0.9412 -0.5209
 6348TIP3    H140459   4.384   5.634   5.072 -1.0876 -1.0604 -0.3404
 6348TIP3    H240460   4.471   5.638   5.196 -0.6058  0.2130 -0.7175
 6349TIP3   OH240461   5.820   4.330   2.017 -0.0123  0.8620  0.4054
 6349TIP3    H140462   5.785   4.250   2.055  2.5951  0.0418  1.2156
 6349TIP3    H240463   5.748   4.366   1.965 -1.2801 -1.8973  0.1582
 6350TIP3   OH240464   5.007   4.439   0.647  0.4252  0.0257  0.0752
 6350TIP3    H140465   5.093   4.421   0.609 -0.1022 -3.0158  0.1562
 6350TIP3    H240466   5.024   4.504   0.715  2.6512 -0.4297 -0.0053
 6351TIP3   OH240467   3.830   1.921  15.530  0.5263  0.5218 -0.2708
 6351TIP3    H140468   3.908   1.869  15.513 -1.2913 -1.3312 -3.5368
 6351TIP3    H240469   3.845   2.003  15.482  0.3128 -0.0246 -1.2954
 6352TIP3   OH240470   5.573   5.439  17.193 -0.2596  0.2756  0.1797
 6352TIP3    H140471   5.482   5.465  17.204  0.0874  0.8805  1.6990
 6352TIP3    H240472   5.582   5.359  17.244 -0.3162 -0.6540 -1.2366
 6353TIP3   OH240473   1.967   4.246  16.802 -0.0328 -0.1379 -0.0178
 6353TIP3    H140474   1.878   4.247  16.839 -0.4799  1.0860 -1.0900
 6353TIP3    H240475   2.022   4.279  16.873 -0.5497 -0.1270  0.3860
 6354TIP3   OH240476   1.768   5.382  11.712  0.4819 -0.9503  0.0545
 6354TIP3    H140477   1.839   5.317  11.718  1.3375  0.0947  1.5696
 6354TIP3    H240478   1.729   5.366  11.627  2.9971 -1.1254 -1.1268
 6355TIP3   OH240479   1.290   1.270   4.582  0.0150 -0.3212 -0.9697
 6355TIP3    H140480   1.289   1.222   4.665 -2.7468 -0.6584 -1.1452
 6355TIP3    H240481   1.281   1.201   4.515  2.4176 -0.0710 -1.5974
 6356TIP3   OH240482   3.956   0.833  11.892  0.1775 -0.2826 -0.1792
 6356TIP3    H140483   3.983   0.916  11.853  1.0855 -0.7305 -0.4946
 6356TIP3    H240484   4.020   0.769  11.862  0.2945 -0.8338  1.1877
 6357TIP3   OH240485   3.030   5.802  11.880 -0.2721 -0.5819 -0.5613
 6357TIP3    H140486   3.007   5.720  11.836 -0.0893  0.5778 -2.8489
 6357TIP3    H240487   3.124   5.794  11.897 -0.2181 -0.7657 -0.9436
 6358TIP3   OH240488   5.250   1.408   3.243  0.1478 -0.7868 -0.2313
 6358TIP3    H140489   5.292   1.494   3.238  1.1401 -1.3173 -1.5337
 6358TIP3    H240490   5.168   1.418   3.194  0.0601 -0.4613 -0.0160
 6359TIP3   OH240491   4.057   1.811   3.001  0.2981 -0.0933 -0.0567
 6359TIP3    H140492   4.142   1.812   3.046  1.1505  1.7629 -1.6226
 6359TIP3    H240493   4.062   1.735   2.944  1.0082  0.1204 -0.2934
 6360TIP3   OH240494   2.536   4.253   0.900 -0.3474 -0.4833  0.2832
 6360TIP3    H140495   2.588   4.305   0.961  1.2216 -1.1795 -0.4520
 6360TIP3    H240496   2.448   4.292   0.905  0.5459  1.5848  0.5027
 6361TIP3   OH240497   5.060   1.077   0.246 -0.0418  0.3191  0.0982
 6361TIP3    H140498   5.137   1.026   0.271 -0.6176 -0.0179  1.2265
 6361TIP3    H240499   5.092   1.138   0.180  0.5719 -1.7991 -1.6205
 6362TIP3   OH240500   3.338   5.790  12.789  0.0288  0.0807  0.2385
 6362TIP3    H140501   3.273   5.739  12.837  0.4996 -1.9010 -1.2024
 6362TIP3    H240502   3.292   5.820  12.711 -0.1212  1.5360  0.8715
 6363TIP3   OH240503   4.679   6.592   0.031 -0.2789 -0.5346  0.1754
 6363TIP3    H140504   4.625   6.519   0.061 -0.5926  0.8236  3.0901
 6363TIP3    H240505   4.693   6.646   0.109  0.9113  1.9235 -1.6448
 6364TIP3   OH240506   1.109   2.878  12.289 -0.0431  0.0570  0.4610
 6364TIP3    H140507   1.023   2.917  12.275  0.7375  1.3360 -0.9296
 6364TIP3    H240508   1.091   2.786  12.304 -1.7938  0.6126  1.9943
 6365TIP3   OH240509   5.161   2.655   5.558 -0.0331 -0.0399  0.6562
 6365TIP3    H140510   5.200   2.638   5.644  0.2852  1.7989  0.8909
 6365TIP3    H240511   5.094   2.721   5.575 -0.3618 -0.0862 -0.4295
 6366TIP3   OH240512   3.637   4.774   2.451  0.4617  0.2852  0.4676
 6366TIP3    H140513   3.541   4.780   2.458  0.4753  1.8043 -0.4535
 6366TIP3    H240514   3.662   4.850   2.398  2.0355 -0.9875 -0.6579
 6367TIP3   OH240515   6.508   5.525   5.506  0.2422  0.1261  0.1310
 6367TIP3    H140516   6.446   5.518   5.579 -0.2509 -3.8811 -0.5368
 6367TIP3    H240517   6.587   5.482   5.539  0.8958  0.5875 -0.8249
 6368TIP3   OH240518   6.150   0.363  14.692  0.0359 -1.0287 -0.5404
 6368TIP3    H140519   6.097   0.299  14.739 -0.4812  0.8560  1.5334
 6368TIP3    H240520   6.224   0.381  14.750  0.7902 -0.5970 -1.6125
 6369TIP3   OH240521   2.576   4.760   2.523 -0.1972 -0.3378  0.1207
 6369TIP3    H140522   2.495   4.805   2.547 -0.3194  0.3835 -1.6302
 6369TIP3    H240523   2.642   4.829   2.521  0.2547 -0.7523  0.4805
 6370TIP3   OH240524   0.328   0.879   5.035 -0.6215 -0.2661 -0.5065
 6370TIP3    H140525   0.273   0.809   5.069  0.3942  0.8244  3.6773
 6370TIP3    H240526   0.274   0.958   5.043 -0.4361 -0.0199 -1.6467
 6371TIP3   OH240527   4.960   5.423  13.278 -0.2855  0.5550 -0.0393
 6371TIP3    H140528   4.982   5.423  13.371 -1.2693 -2.6832  0.2727
 6371TIP3    H240529   4.982   5.335  13.248 -1.2366  1.1166 -2.5643
 6372TIP3   OH240530   2.193   1.540  13.006  0.1807 -0.1791  0.1216
 6372TIP3    H140531   2.278   1.536  12.963 -0.2421 -1.0392 -0.6483
 6372TIP3    H240532   2.208   1.594  13.084  0.8906  1.6134 -1.2268
 6373TIP3   OH240533   4.089   6.099  13.220 -0.4918 -0.5940 -0.9325
 6373TIP3    H140534   4.135   6.155  13.157  1.5370 -3.6181 -2.2301
 6373TIP3    H240535   4.047   6.032  13.166 -0.4733 -2.0148  0.7762
 6374TIP3   OH240536   3.524   5.323   0.201  0.3428  0.5324  0.3234
 6374TIP3    H140537   3.617   5.305   0.189  0.6827  1.4132  1.5416
 6374TIP3    H240538   3.504   5.290   0.288 -0.7020 -0.4215 -0.2561
 6375TIP3   OH240539   5.069   2.448   2.646  0.0843  0.0633 -0.2600
 6375TIP3    H140540   5.101   2.475   2.732 -1.2863 -0.8913  0.5788
 6375TIP3    H240541   5.139   2.393   2.611 -0.0301 -0.8740  0.9551
 6376TIP3   OH240542   3.824   6.261   3.028  0.1332 -0.7394 -0.5236
 6376TIP3    H140543   3.912   6.286   2.998  0.5828 -2.6068 -0.8284
 6376TIP3    H240544   3.785   6.343   3.058  2.0586  0.0895 -0.1935
 6377TIP3   OH240545   2.086   1.590   3.196 -0.3168 -0.0811  0.4678
 6377TIP3    H140546   2.046   1.677   3.188 -0.0446  0.1379  1.3895
 6377TIP3    H240547   2.174   1.608   3.229 -0.1691 -0.6956  0.4099
 6378TIP3   OH240548   6.259   1.644   4.211 -0.4933 -0.4509 -0.3263
 6378TIP3    H140549   6.233   1.555   4.186  2.8351 -1.2040 -1.2907
 6378TIP3    H240550   6.251   1.695   4.130 -1.0338 -0.1836 -0.1080
 6379TIP3   OH240551   0.039   6.333   4.083  0.1089 -0.1406 -0.6482
 6379TIP3    H140552  -0.027   6.289   4.137 -0.7034  1.4052 -0.3400
 6379TIP3    H240553  -0.005   6.348   3.999  0.7008 -0.7572 -1.0738
 6380TIP3   OH240554   2.810   0.647  17.089  0.1322  0.0636  0.0309
 6380TIP3    H140555   2.812   0.632  17.184  0.8790  0.1622  0.0321
 6380TIP3    H240556   2.894   0.688  17.070 -0.0379  0.0832 -0.6726
 6381TIP3   OH240557   5.564   4.953   5.777 -0.1023 -0.3693 -0.4015
 6381TIP3    H140558   5.565   4.861   5.803 -0.3375 -0.3853 -0.4431
 6381TIP3    H240559   5.524   4.998   5.852  0.3041 -0.2573 -0.2486
 6382TIP3   OH240560   4.445   2.576  15.232  0.3169  0.1240  0.7079
 6382TIP3    H140561   4.447   2.605  15.140 -2.8381  0.2970  0.6557
 6382TIP3    H240562   4.437   2.657  15.282 -2.9411 -0.2268  0.8421
 6383TIP3   OH240563   0.452   5.809   0.527  0.6279  0.5643  0.6967
 6383TIP3    H140564   0.370   5.759   0.533  0.2536  1.3430  2.3995
 6383TIP3    H240565   0.428   5.890   0.482  0.9230 -0.0908 -0.6890
 6384TIP3   OH240566   5.312   2.511  14.138 -0.5664  0.0258  0.2457
 6384TIP3    H140567   5.243   2.550  14.192  0.2440  1.2290  0.4256
 6384TIP3    H240568   5.394   2.543  14.176  0.0239  0.9781 -1.7333
 6385TIP3   OH240569   1.028   0.942   4.258  0.0967  0.4579  0.3128
 6385TIP3    H140570   1.045   0.976   4.170  0.8074  1.3530  0.7853
 6385TIP3    H240571   1.008   0.849   4.245  0.0141  0.6281 -0.8066
 6386TIP3   OH240572   0.529   3.110   5.903  0.4411  0.7678  0.4042
 6386TIP3    H140573   0.505   3.032   5.852  1.1741  0.7602  0.0550
 6386TIP3    H240574   0.452   3.129   5.956  0.6404 -0.8446  1.2988
 6387TIP3   OH240575   5.070   5.370   6.184 -0.5139  0.1079  0.0459
 6387TIP3    H140576   5.001   5.434   6.170 -1.2771 -0.0908  2.6229
 6387TIP3    H240577   5.130   5.412   6.246  0.3323 -0.6803 -0.2222
 6388TIP3   OH240578   1.482   1.867  12.037  0.1689  0.0981 -0.0095
 6388TIP3    H140579   1.560   1.819  12.009  1.3839  2.3281 -0.5985
 6388TIP3    H240580   1.478   1.941  11.977 -2.3664  0.0705  0.0986
 6389TIP3   OH240581   0.326   5.952  14.124 -0.0743 -0.3557 -0.1586
 6389TIP3    H140582   0.239   5.968  14.088 -0.1107  0.1314  0.1526
 6389TIP3    H240583   0.353   5.869  14.083  0.6252  1.0804 -2.7362
 6390TIP3   OH240584   0.440   6.763  16.948 -0.0127 -0.2452 -0.2429
 6390TIP3    H140585   0.383   6.727  17.016 -0.0664  1.2406  0.5069
 6390TIP3    H240586   0.526   6.772  16.990 -0.4269  2.2003  0.1572
 6391TIP3   OH240587   2.763   6.730  13.406  0.0258  0.3867  0.6372
 6391TIP3    H140588   2.671   6.705  13.415 -0.3355  1.1696 -0.7877
 6391TIP3    H240589   2.767   6.819  13.441 -0.1205  1.0349 -0.9881
 6392TIP3   OH240590   2.433   0.622   2.769  0.4060 -0.5640 -0.5299
 6392TIP3    H140591   2.448   0.649   2.859  2.1027  1.6844 -1.4204
 6392TIP3    H240592   2.389   0.697   2.729  0.8100 -1.0325 -1.8854
 6393TIP3   OH240593   1.578   5.028   2.486 -0.1891 -0.6138  0.0193
 6393TIP3    H140594   1.539   4.940   2.489 -2.6197  0.3674 -1.3076
 6393TIP3    H240595   1.605   5.045   2.576 -0.5927 -2.3405  0.4917
 6394TIP3   OH240596   1.752   6.043   0.436 -0.3231  0.6653  0.1322
 6394TIP3    H140597   1.797   6.049   0.351 -0.3485  0.9434  0.1369
 6394TIP3    H240598   1.696   6.122   0.438 -1.5394 -0.1657 -0.2990
 6395TIP3   OH240599   5.588   5.645   2.557 -0.2319 -0.3132  0.4187
 6395TIP3    H140600   5.504   5.630   2.512 -0.2689 -0.6604  0.6002
 6395TIP3    H240601   5.590   5.579   2.626 -0.5299  0.7422  1.4428
 6396TIP3   OH240602   0.057   4.820  14.183 -0.0394  0.2940  0.4170
 6396TIP3    H140603  -0.021   4.818  14.239 -0.1331 -0.7870  0.2604
 6396TIP3    H240604   0.113   4.887  14.222 -1.8536  2.4437 -0.5753
 6397TIP3   OH240605   2.285   3.969  16.260 -0.6079 -0.1153  0.1185
 6397TIP3    H140606   2.289   3.877  16.237 -1.5891 -0.3026  0.6647
 6397TIP3    H240607   2.324   3.974  16.348 -0.5233 -0.0003  0.0762
 6398TIP3   OH240608   2.729   0.486   3.109  0.4451  0.3160  0.7132
 6398TIP3    H140609   2.742   0.462   3.017 -0.7836 -0.7946  0.8189
 6398TIP3    H240610   2.634   0.496   3.117  0.7581  3.5226  1.1071
 6399TIP3   OH240611   3.892   0.092   4.570  0.4249 -0.5364  0.0059
 6399TIP3    H140612   3.901   0.152   4.496  0.6464 -1.0216 -0.3621
 6399TIP3    H240613   3.927   0.009   4.538 -0.1559 -0.9429  0.4147
 6400TIP3   OH240614   5.779   1.937   2.181 -0.4242  0.3306  0.8143
 6400TIP3    H140615   5.774   1.897   2.268 -3.2312 -0.0593  0.5259
 6400TIP3    H240616   5.760   2.030   2.197 -0.1068  0.4136  0.7107
 6401TIP3   OH240617   0.104   4.554  13.967  0.4947  0.1995 -0.3306
 6401TIP3    H140618   0.113   4.601  13.884  2.8678  0.3974 -0.0126
 6401TIP3    H240619   0.157   4.605  14.029  0.9117 -1.3910  0.6563
 6402TIP3   OH240620   5.302   4.264  14.531  0.7335  0.4783 -0.3170
 6402TIP3    H140621   5.268   4.175  14.538  0.7115  0.5892  1.1375
 6402TIP3    H240622   5.365   4.260  14.459  2.9532 -1.4484  1.6488
 6403TIP3   OH240623   4.575   0.072  14.262 -0.4139 -0.1196 -0.3591
 6403TIP3    H140624   4.613   0.087  14.349  0.7125 -1.4031 -0.6099
 6403TIP3    H240625   4.649   0.070  14.203 -0.9260 -1.7697 -0.9854
 6404TIP3   OH240626   2.236   1.660   1.983 -0.0018 -0.2370  0.1958
 6404TIP3    H140627   2.226   1.646   1.889  0.5232  1.2824 -0.0936
 6404TIP3    H240628   2.314   1.610   2.007  1.0210  0.9833 -0.5519
 6405TIP3   OH240629   5.748   5.441   4.121  0.4611 -0.3351  0.4381
 6405TIP3    H140630   5.780   5.481   4.040  0.9523  0.2122  0.8949
 6405TIP3    H240631   5.794   5.358   4.126  1.6301  0.3297  0.9520
 6406TIP3   OH240632   0.777   5.188  15.534 -0.7005  0.0312 -0.1459
 6406TIP3    H140633   0.787   5.130  15.459  1.6594 -1.2105  1.1022
 6406TIP3    H240634   0.842   5.257  15.521 -0.2119 -0.2389  0.8025
 6407TIP3   OH240635   2.124   3.186   4.127  0.1652  0.1308  0.0228
 6407TIP3    H140636   2.191   3.236   4.081 -0.4290  1.6033  0.7371
 6407TIP3    H240637   2.163   3.165   4.212  0.8046 -1.5536 -0.6499
 6408TIP3   OH240638   3.109   4.489  16.887 -0.3070  0.0289 -0.4190
 6408TIP3    H140639   3.028   4.474  16.934 -0.1420 -2.2693 -0.8289
 6408TIP3    H240640   3.082   4.522  16.801 -0.7490  0.3410 -0.1579
 6409TIP3   OH240641   0.334   5.498   0.501 -0.2563  0.2200 -0.0970
 6409TIP3    H140642   0.277   5.434   0.458 -0.5642  0.3908  0.0513
 6409TIP3    H240643   0.400   5.520   0.436 -0.5500  0.2611 -0.3781
 6410TIP3   OH240644   6.395   4.037  11.415  0.3246 -0.2310 -0.1681
 6410TIP3    H140645   6.463   4.079  11.468  1.5796 -0.2708 -1.7258
 6410TIP3    H240646   6.338   4.110  11.388  0.4351 -0.0298  0.1366
 6411TIP3   OH240647   4.912   3.294   3.846 -0.9040 -0.2576 -0.2467
 6411TIP3    H140648   4.965   3.231   3.893  0.8661  0.1374 -1.6837
 6411TIP3    H240649   4.906   3.370   3.905 -1.0944 -0.8516  0.5030
 6412TIP3   OH240650   2.601   6.246  12.895  0.6228  0.2859  0.3707
 6412TIP3    H140651   2.541   6.321  12.897  1.2230  0.7901 -0.4485
 6412TIP3    H240652   2.655   6.256  12.973 -0.5902 -0.3757  1.3237
 6413TIP3   OH240653   4.247   5.101  16.187 -0.0524 -0.3527 -0.0254
 6413TIP3    H140654   4.200   5.017  16.184  1.2700 -1.0795 -1.5595
 6413TIP3    H240655   4.201   5.156  16.124  0.9570 -0.9830 -1.3455
 6414TIP3   OH240656   4.421   6.339   3.889  0.2196  0.2502  0.6519
 6414TIP3    H140657   4.443   6.376   3.804  0.6065 -0.1994  0.5559
 6414TIP3    H240658   4.479   6.384   3.950 -1.2493  1.8205  0.9223
 6415TIP3   OH240659   4.641   4.318   0.240 -0.1780  0.3331 -0.4991
 6415TIP3    H140660   4.721   4.352   0.201 -1.1588  0.1708 -2.7505
 6415TIP3    H240661   4.669   4.277   0.321  1.8789  1.1023 -0.7917
 6416TIP3   OH240662   3.440   5.226   2.672  0.6628 -0.6025  0.2036
 6416TIP3    H140663   3.480   5.284   2.737  1.8190 -0.0664 -0.9495
 6416TIP3    H240664   3.383   5.284   2.620  0.7099 -0.7767 -0.0438
 6417TIP3   OH240665   2.304   6.476   4.487  0.0287 -0.2102 -0.2929
 6417TIP3    H140666   2.364   6.405   4.510  0.3199  0.4489  1.0282
 6417TIP3    H240667   2.248   6.439   4.419  0.2111 -1.7032  0.3450
 6418TIP3   OH240668   1.141   4.782  14.527 -0.2511 -1.0696 -0.5431
 6418TIP3    H140669   1.219   4.825  14.564 -1.6435  1.1626 -0.1258
 6418TIP3    H240670   1.096   4.746  14.603 -0.4778 -0.9209 -0.6075
 6419TIP3   OH240671   5.583   0.572  14.810 -0.2196 -0.8754  0.1808
 6419TIP3    H140672   5.614   0.662  14.816  2.9920 -1.8490 -0.5968
 6419TIP3    H240673   5.488   0.579  14.812 -0.1700  2.8216 -3.3513
 6420TIP3   OH240674   1.986   2.697   3.952  0.2818  0.4883  0.3180
 6420TIP3    H140675   1.962   2.789   3.944  0.8558  0.5602 -0.7169
 6420TIP3    H240676   2.081   2.697   3.943  0.2442 -0.2435 -0.0902
 6421TIP3   OH240677   6.347   5.147  10.871 -0.0352  0.2294  0.1641
 6421TIP3    H140678   6.262   5.162  10.914 -1.2336  0.6506 -2.2420
 6421TIP3    H240679   6.334   5.065  10.822  1.3592 -0.3432  0.7433
 6422TIP3   OH240680   4.310   0.742   2.591 -0.4522 -0.2736 -0.6613
 6422TIP3    H140681   4.260   0.750   2.510 -1.0603  0.1765 -0.2478
 6422TIP3    H240682   4.401   0.738   2.562 -0.6812 -0.3634 -1.3812
 6423TIP3   OH240683   0.521   0.095   3.340 -0.3936  0.1049  0.3375
 6423TIP3    H140684   0.451   0.040   3.376 -1.9984  1.7586 -0.1167
 6423TIP3    H240685   0.480   0.140   3.266  1.0682  1.3325  0.2459
 6424TIP3   OH240686   5.103   6.354   0.145  0.4580  0.3079 -0.2640
 6424TIP3    H140687   5.030   6.384   0.200  0.9333  1.1956 -0.0986
 6424TIP3    H240688   5.164   6.428   0.145  0.3274  0.4306 -2.2520
 6425TIP3   OH240689   5.635   6.484  13.033  0.0653 -0.2098 -0.2721
 6425TIP3    H140690   5.624   6.458  12.941 -1.0405 -0.8622  0.0449
 6425TIP3    H240691   5.729   6.476  13.049 -0.0642 -2.6147 -0.5993
 6426TIP3   OH240692   2.828   6.114   4.288  0.1608 -0.0587  0.1828
 6426TIP3    H140693   2.815   6.144   4.378  2.4576 -2.2405  1.3146
 6426TIP3    H240694   2.923   6.103   4.280 -0.1114 -1.0285 -2.1188
 6427TIP3   OH240695   4.038   2.679  15.516 -0.1317 -0.0714  0.0290
 6427TIP3    H140696   4.036   2.601  15.572 -0.6660 -0.6614 -0.8000
 6427TIP3    H240697   3.970   2.736  15.553 -1.4065 -1.0176 -0.7876
 6428TIP3   OH240698   6.468   0.588   3.039  0.1106  0.0691 -0.0195
 6428TIP3    H140699   6.520   0.643   3.098 -1.2899 -0.0487  1.3780
 6428TIP3    H240700   6.392   0.643   3.018 -0.9599 -1.0528  0.8393
 6429TIP3   OH240701   0.019   5.073  15.400 -0.0097  0.2510  0.1481
 6429TIP3    H140702   0.060   5.145  15.350  1.9297 -0.8956  0.0303
 6429TIP3    H240703  -0.016   5.015  15.332  1.1126 -0.4443  0.1614
 6430TIP3   OH240704   4.862   0.632  13.246  0.1843 -0.5627  0.1630
 6430TIP3    H140705   4.862   0.718  13.205  1.4970 -1.2432 -1.2983
 6430TIP3    H240706   4.772   0.621  13.278 -0.3502  0.7779 -0.8286
 6431TIP3   OH240707   4.833   2.297   2.819 -0.1289  0.1958 -0.1036
 6431TIP3    H140708   4.819   2.377   2.871  2.9600  0.2871  0.6700
 6431TIP3    H240709   4.902   2.321   2.758  0.0169 -1.5622 -0.6415
 6432TIP3   OH240710   4.094   6.070  15.520 -0.2653  0.3583  0.8788
 6432TIP3    H140711   4.121   6.161  15.528 -1.9625  1.2786 -2.6443
 6432TIP3    H240712   4.021   6.061  15.581  0.7886  0.9762  2.2338
 6433TIP3   OH240713   3.376   5.668  15.552  0.2061 -0.1389 -0.1497
 6433TIP3    H140714   3.434   5.623  15.491  0.7094 -1.0371  0.9787
 6433TIP3    H240715   3.420   5.660  15.637 -1.4877 -0.6929  0.6914
 6434TIP3   OH240716   6.473   0.413   4.589  0.1599  0.0590  0.7116
 6434TIP3    H140717   6.474   0.327   4.632  2.7458 -0.9629 -1.2948
 6434TIP3    H240718   6.535   0.405   4.517 -3.3649  2.0371 -2.7109
 6435TIP3   OH240719   1.559   1.673  13.243  0.3191  0.5094 -0.3476
 6435TIP3    H140720   1.597   1.757  13.219  1.3049  0.5406  1.2203
 6435TIP3    H240721   1.495   1.694  13.310 -0.4788  0.1571 -0.9935
 6436TIP3   OH240722   1.502   1.657   3.898  0.2102 -0.3406  0.3561
 6436TIP3    H140723   1.407   1.648   3.896 -0.0161  1.6690  0.5165
 6436TIP3    H240724   1.527   1.631   3.987 -0.4386  1.1233  0.9739
 6437TIP3   OH240725   5.054   4.102  14.761  0.4612  0.0980 -0.6643
 6437TIP3    H140726   5.052   4.007  14.774  1.6201 -0.2741 -2.8956
 6437TIP3    H240727   5.015   4.115  14.675 -0.6520  1.7657  0.0631
 6438TIP3   OH240728   0.937   3.468   4.053  0.7395  0.3891 -0.1415
 6438TIP3    H140729   0.937   3.554   4.011  0.8018  0.0381 -0.8849
 6438TIP3    H240730   1.002   3.417   4.003 -0.6872 -0.6625 -0.9771
 6439TIP3   OH240731   4.272   5.712   4.170 -0.7959 -0.0494  0.0225
 6439TIP3    H140732   4.324   5.647   4.218  0.3969  0.6827 -0.2542
 6439TIP3    H240733   4.228   5.661   4.102 -0.6464 -0.7217  0.4229
 6440TIP3   OH240734   1.950   6.002  11.270 -0.6435 -0.8133  0.2315
 6440TIP3    H140735   1.869   5.961  11.238 -1.4448 -0.1013  1.3117
 6440TIP3    H240736   2.013   5.987  11.200 -1.3790 -2.4304 -0.1074
 6441TIP3   OH240737   4.793   5.867  15.961 -0.3324  0.1586  0.2161
 6441TIP3    H140738   4.796   5.786  15.909 -0.5115 -0.1622  0.7016
 6441TIP3    H240739   4.781   5.837  16.051  0.6871  0.6883  0.5344
 6442TIP3   OH240740   2.846   0.436   5.460  0.0176  0.2001 -0.1574
 6442TIP3    H140741   2.847   0.419   5.365 -0.1279 -0.4981 -0.0339
 6442TIP3    H240742   2.900   0.514   5.470  1.8553 -0.9873 -0.5852
 6443TIP3   OH240743   1.847   4.335   5.896  0.4952 -0.2568 -0.4290
 6443TIP3    H140744   1.795   4.283   5.835 -1.9000  2.0711 -0.4346
 6443TIP3    H240745   1.861   4.276   5.971 -4.9860 -0.0040  1.0189
 6444TIP3   OH240746   1.297   3.573   0.980  0.5029  0.1593 -0.0505
 6444TIP3    H140747   1.308   3.510   0.909  1.3738  2.1464 -1.7205
 6444TIP3    H240748   1.208   3.607   0.968  1.0365  1.2723 -0.8256
 6445TIP3   OH240749   1.373   6.364  12.827 -0.3793 -0.0426 -0.4262
 6445TIP3    H140750   1.363   6.279  12.785  0.0022 -0.3338  0.0693
 6445TIP3    H240751   1.338   6.426  12.763  1.0303 -0.3995 -1.5631
 6446TIP3   OH240752   5.898   3.817   0.601  0.7533 -0.4374  0.2504
 6446TIP3    H140753   5.813   3.851   0.574  0.2379 -1.7232  0.2033
 6446TIP3    H240754   5.952   3.821   0.522  0.5151 -0.2857  0.0954
 6447TIP3   OH240755   1.861   4.148  13.168  0.6073  0.5205 -0.0455
 6447TIP3    H140756   1.812   4.110  13.241 -0.4026 -0.4767 -1.2075
 6447TIP3    H240757   1.797   4.203  13.123  0.6065 -0.5138 -1.3685
 6448TIP3   OH240758   0.806   4.685  13.310  0.3461 -0.6185  0.2300
 6448TIP3    H140759   0.867   4.611  13.305  0.4370 -0.4070 -1.9417
 6448TIP3    H240760   0.744   4.671  13.239 -0.3898  0.7543  0.5832
 6449TIP3   OH240761   6.177   5.134  11.578 -0.0407  0.0548 -0.2444
 6449TIP3    H140762   6.168   5.229  11.581  0.2345  0.0600  0.6288
 6449TIP3    H240763   6.147   5.110  11.491  0.2207  0.9801 -0.5976
 6450TIP3   OH240764   0.569   2.965   4.887 -0.2185  0.4740 -0.5697
 6450TIP3    H140765   0.526   2.941   4.805 -2.5526 -0.1019  0.7892
 6450TIP3    H240766   0.536   3.052   4.907  0.4187  0.6554 -0.2955
 6451TIP3   OH240767   4.112   4.889   6.032  0.9808 -0.5972  0.1432
 6451TIP3    H140768   4.115   4.950   6.106  1.8377 -2.4804  1.6976
 6451TIP3    H240769   4.028   4.907   5.989  0.3923  0.3920  1.6865
 6452TIP3   OH240770   4.630   3.228   0.021  0.0620  0.0149  0.2817
 6452TIP3    H140771   4.677   3.168  -0.036 -2.2282 -0.4718 -1.1625
 6452TIP3    H240772   4.586   3.289  -0.038 -0.6625  0.7954  1.5917
 6453TIP3   OH240773   2.520   1.720   2.027  0.4665  0.4447  0.2588
 6453TIP3    H140774   2.547   1.631   2.051  0.7705 -0.3904 -2.9297
 6453TIP3    H240775   2.595   1.775   2.049  1.2450 -0.4779 -0.0666
 6454TIP3   OH240776   2.557   3.761  14.587  0.4735 -0.4946 -0.1271
 6454TIP3    H140777   2.645   3.775  14.621  0.1928  0.3936  0.2423
 6454TIP3    H240778   2.528   3.847  14.557  0.6849 -1.2425 -2.5859
 6455TIP3   OH240779   2.971   2.587  14.535 -0.0435 -0.0500  0.2587
 6455TIP3    H140780   3.063   2.560  14.533  0.0045  0.1204  0.0715
 6455TIP3    H240781   2.969   2.657  14.600  0.1661  0.6675 -0.4965
 6456TIP3   OH240782   4.402   1.567   3.582 -0.5677  0.1755  0.2253
 6456TIP3    H140783   4.439   1.608   3.660  0.4953  2.7858 -1.5954
 6456TIP3    H240784   4.314   1.540   3.609  0.8050 -1.6502  3.1697
 6457TIP3   OH240785   2.971   4.370   1.998  0.2853  0.0561 -0.6033
 6457TIP3    H140786   3.062   4.376   2.028  0.1474 -1.5429  0.2121
 6457TIP3    H240787   2.922   4.345   2.077 -0.8895  1.0035 -1.0132
 6458TIP3   OH240788   6.010   3.898   3.493  0.0940  0.0067  0.1448
 6458TIP3    H140789   6.074   3.828   3.479 -0.3582 -0.3509 -0.1291
 6458TIP3    H240790   6.037   3.939   3.576 -0.9716 -1.9507  1.4938
 6459TIP3   OH240791   6.271   2.087   3.413  1.1634 -0.1742 -0.0969
 6459TIP3    H140792   6.192   2.126   3.374  0.8595 -0.1829  0.5114
 6459TIP3    H240793   6.251   1.994   3.420  1.9842 -0.4960 -1.7837
 6460TIP3   OH240794   5.659   5.492   1.394 -1.0412  0.0307 -0.0859
 6460TIP3    H140795   5.732   5.548   1.368 -0.7462 -0.5580 -0.5327
 6460TIP3    H240796   5.678   5.408   1.353 -0.5576 -0.9255  2.0043
 6461TIP3   OH240797   5.318   4.275  15.805  0.7979 -0.0570  0.2281
 6461TIP3    H140798   5.242   4.216  15.805  0.5997  0.1951  0.0302
 6461TIP3    H240799   5.339   4.286  15.712  0.5644  0.5231  0.2418
 6462TIP3   OH240800   1.900   1.427   4.748 -0.2324  0.1863  0.3458
 6462TIP3    H140801   1.898   1.347   4.801 -3.2005 -1.3161 -1.9012
 6462TIP3    H240802   1.821   1.474   4.773  0.1793  1.1813 -0.2060
 6463TIP3   OH240803   2.012   0.301  11.654 -0.4168  0.6978  0.2941
 6463TIP3    H140804   2.007   0.257  11.569  1.2957  0.2052  0.4388
 6463TIP3    H240805   2.093   0.268  11.694 -0.5062  1.9473  1.5402
 6464TIP3   OH240806   5.287   0.767   0.423  0.1709 -0.1811 -0.1711
 6464TIP3    H140807   5.327   0.839   0.471 -0.4096  0.5397 -0.7672
 6464TIP3    H240808   5.193   0.786   0.424  0.1791  0.0547 -1.9078
 6465TIP3   OH240809   1.258   4.540  14.389  0.6404 -0.9518  0.3106
 6465TIP3    H140810   1.286   4.511  14.302  1.9101  1.7160 -0.2071
 6465TIP3    H240811   1.245   4.634  14.380 -1.7594 -1.0395  2.3734
 6466TIP3   OH240812   6.667   2.114  17.198  0.3167 -0.0658 -0.6597
 6466TIP3    H140813   6.598   2.053  17.174  0.4386 -0.8265  0.8862
 6466TIP3    H240814   6.729   2.110  17.125 -1.1972  0.5556 -2.0138
 6467TIP3   OH240815   6.777   1.273  14.148  0.1886  0.0491 -0.6144
 6467TIP3    H140816   6.702   1.305  14.098  1.5289 -0.7483 -3.2459
 6467TIP3    H240817   6.831   1.351  14.163 -0.4941  0.3903  0.0935
 6468TIP3   OH240818   3.043   1.361   5.220 -0.0109 -0.7036  0.0894
 6468TIP3    H140819   3.008   1.276   5.193  2.7864 -1.8218 -0.1173
 6468TIP3    H240820   3.105   1.340   5.289  0.3090  1.2387  0.3986
 6469TIP3   OH240821   2.635   3.826  11.416  0.3034 -0.5514 -0.3365
 6469TIP3    H140822   2.634   3.746  11.468 -1.2333 -0.9392 -0.9188
 6469TIP3    H240823   2.590   3.802  11.335  2.7645  0.0101 -1.9130
 6470TIP3   OH240824   3.007   1.017  15.504 -0.0766  0.0289  0.5774
 6470TIP3    H140825   3.100   1.014  15.528  0.2355  1.3990 -0.4125
 6470TIP3    H240826   2.994   0.941  15.447  0.8079  0.7257 -0.5613
 6471TIP3   OH240827   6.565   1.080  16.499 -0.3843  0.1871 -0.1593
 6471TIP3    H140828   6.469   1.078  16.504 -0.2875 -2.2846  1.6553
 6471TIP3    H240829   6.586   1.020  16.427 -0.1668  0.3034 -0.1934
 6472TIP3   OH240830   0.959   1.146   0.419 -0.0043  0.0428 -0.0084
 6472TIP3    H140831   1.019   1.126   0.491 -1.8202 -0.8586  1.3076
 6472TIP3    H240832   0.944   1.062   0.376  0.4439  0.4429 -0.9587
 6473TIP3   OH240833   6.167   2.847   3.055 -0.5709 -0.2941 -0.5909
 6473TIP3    H140834   6.134   2.904   2.985 -0.0479 -0.2057 -0.7753
 6473TIP3    H240835   6.118   2.873   3.133 -0.2249  0.5250 -0.6413
 6474TIP3   OH240836   1.672   4.873  13.917  0.1603  0.3456 -0.9036
 6474TIP3    H140837   1.662   4.949  13.859  0.7707  0.7753 -0.4636
 6474TIP3    H240838   1.741   4.821  13.876 -1.2695 -0.7277 -1.9796
 6475TIP3   OH240839   1.313   2.432  14.107  0.1036 -0.9560 -0.0340
 6475TIP3    H140840   1.329   2.506  14.165 -0.7721 -2.6410  2.4195
 6475TIP3    H240841   1.258   2.468  14.037 -0.5238  0.6236  1.2467
 6476TIP3   OH240842   3.133   6.152  15.030 -0.2064  0.3334 -0.1986
 6476TIP3    H140843   3.172   6.239  15.039  0.8561  0.0656 -2.0161
 6476TIP3    H240844   3.188   6.096  15.085  1.5602  0.0975 -2.1515
 6477TIP3   OH240845   2.249   6.358   5.032  0.3784  0.4406 -0.3418
 6477TIP3    H140846   2.284   6.417   4.965  0.7532 -0.1217 -0.6385
 6477TIP3    H240847   2.224   6.416   5.104  1.3589  0.9026 -0.3669
 6478TIP3   OH240848   2.986   0.094  13.838  0.2676 -0.2516 -0.1021
 6478TIP3    H140849   3.023   0.010  13.866 -3.4055 -1.7859  0.4037
 6478TIP3    H240850   2.977   0.086  13.743 -1.7750 -1.2092  0.1430
 6479TIP3   OH240851   1.362   3.653  15.593 -0.1755 -0.7975 -0.1505
 6479TIP3    H140852   1.419   3.607  15.531  0.9112  0.1473  0.1221
 6479TIP3    H240853   1.274   3.643  15.558  0.5293  0.5288 -2.3499
 6480TIP3   OH240854   6.567   4.534   2.480  0.1707 -0.0497 -0.4745
 6480TIP3    H140855   6.554   4.478   2.403 -2.5728  1.3119 -1.0586
 6480TIP3    H240856   6.484   4.530   2.527  0.5256  2.1721  0.3753
 6481TIP3   OH240857   3.717   5.254   2.021 -0.6662  0.1498  0.2895
 6481TIP3    H140858   3.783   5.319   2.046 -0.9409  0.7042 -0.4033
 6481TIP3    H240859   3.642   5.306   1.993 -0.4629 -0.4528 -1.4157
 6482TIP3   OH240860   2.154   2.982  14.843  0.1340 -0.3154  0.5843
 6482TIP3    H140861   2.096   3.026  14.780  1.0219  0.9821  0.6607
 6482TIP3    H240862   2.220   2.940  14.788 -2.0910 -3.6900  0.3515
 6483TIP3   OH240863   2.792   3.091   1.607 -0.1539 -0.8186 -0.3898
 6483TIP3    H140864   2.868   3.096   1.665  1.1457  0.5173 -2.1431
 6483TIP3    H240865   2.717   3.088   1.667  1.1204  0.8035  1.3611
 6484TIP3   OH240866   2.009   0.325   3.398 -0.6095 -0.0096  0.0793
 6484TIP3    H140867   1.949   0.272   3.345 -1.5031  0.2623  0.8209
 6484TIP3    H240868   2.068   0.261   3.438 -0.8828 -0.3368 -0.0364
 6485TIP3   OH240869   4.860   1.679   1.162  0.4263  0.7854 -0.2444
 6485TIP3    H140870   4.900   1.634   1.236 -0.1384  1.6519  0.5899
 6485TIP3    H240871   4.933   1.696   1.102  0.6101 -1.5129 -0.7349
 6486TIP3   OH240872   2.452   0.335  13.312  0.0164 -0.0944  0.0300
 6486TIP3    H140873   2.487   0.417  13.348 -0.7011 -0.7618  2.3699
 6486TIP3    H240874   2.371   0.362  13.269 -0.2772  0.4333  0.8851
 6487TIP3   OH240875   3.692   0.538  16.781 -0.2077 -0.6495  0.1082
 6487TIP3    H140876   3.667   0.629  16.766 -0.6473 -0.9119 -0.7415
 6487TIP3    H240877   3.752   0.517  16.710  0.6327 -0.7405  0.8293
 6488TIP3   OH240878   4.320   3.084  16.841 -0.0498 -0.0135 -0.6856
 6488TIP3    H140879   4.318   3.006  16.896 -1.1730  0.9367  0.6546
 6488TIP3    H240880   4.377   3.061  16.768  0.7160 -1.6109  0.4023
 6489TIP3   OH240881   4.109   2.933  14.314  0.6171  0.3242  0.5123
 6489TIP3    H140882   4.141   3.020  14.290  1.5078 -0.1513 -0.0265
 6489TIP3    H240883   4.032   2.920  14.259  0.8750  0.5002  0.1065
 6490TIP3   OH240884   0.931   5.116  16.011  0.3071 -0.5189  0.3923
 6490TIP3    H140885   0.841   5.083  16.008  0.2119 -0.4663  2.3316
 6490TIP3    H240886   0.948   5.131  16.104  2.3475 -0.5766  0.0397
 6491TIP3   OH240887   1.638   2.224   0.420 -0.1589 -0.4062 -0.3404
 6491TIP3    H140888   1.632   2.222   0.325 -0.8387 -3.7504 -0.2734
 6491TIP3    H240889   1.551   2.252   0.449 -0.4369 -0.9490 -0.6495
 6492TIP3   OH240890   5.222   6.026  17.007 -0.2539 -0.0452 -0.0813
 6492TIP3    H140891   5.219   6.045  17.101 -0.0364 -1.3537  0.1986
 6492TIP3    H240892   5.191   5.936  17.000  0.5838 -0.2535 -1.1790
 6493TIP3   OH240893   1.395   5.906   3.421 -0.0298 -0.2027 -0.4994
 6493TIP3    H140894   1.432   5.971   3.480 -1.7392 -1.2016  1.7528
 6493TIP3    H240895   1.386   5.827   3.474  0.9524 -1.9643 -2.8718
 6494TIP3   OH240896   3.048   3.437   0.361  0.2898  0.2990 -0.1606
 6494TIP3    H140897   2.956   3.461   0.372  0.1857 -0.4302  0.6292
 6494TIP3    H240898   3.053   3.345   0.389  1.2438  0.3150 -0.2406
 6495TIP3   OH240899   5.966   4.549  11.205 -0.3939  0.1848 -0.1425
 6495TIP3    H140900   5.929   4.581  11.123  3.0961  1.6716 -1.2474
 6495TIP3    H240901   5.984   4.628  11.256 -0.5311 -0.6037  1.1385
 6496TIP3   OH240902   3.685   0.757   2.551  0.3494 -0.2728 -0.0574
 6496TIP3    H140903   3.689   0.777   2.457  1.3751  1.3246  0.3253
 6496TIP3    H240904   3.631   0.827   2.588 -0.9654 -1.5002  0.4005
 6497TIP3   OH240905   3.457   1.159  14.972  0.0408 -0.3245  0.1948
 6497TIP3    H140906   3.362   1.148  14.981  0.4083 -2.2820  1.8751
 6497TIP3    H240907   3.490   1.071  14.956  2.0408 -0.4312  4.2844
 6498TIP3   OH240908   0.265   3.636  16.216 -0.2623  0.3238 -0.2858
 6498TIP3    H140909   0.340   3.608  16.163 -0.5476 -0.3316 -0.3572
 6498TIP3    H240910   0.301   3.700  16.277  0.0302  1.2718 -1.4284
 6499TIP3   OH240911   0.753   2.254  14.781 -0.0942  0.1243 -0.3395
 6499TIP3    H140912   0.665   2.287  14.763  0.5512  2.3276  0.3866
 6499TIP3    H240913   0.783   2.306  14.855  0.7913 -2.5130  1.2214
 6500TIP3   OH240914   2.623   6.240  12.224  0.6225 -0.2521  0.1976
 6500TIP3    H140915   2.572   6.169  12.263 -0.3328  0.4886  0.3232
 6500TIP3    H240916   2.686   6.265  12.291  0.5098 -0.5155  0.4024
 6501TIP3   OH240917   6.337   6.629   4.982 -0.1385 -0.3147 -0.9088
 6501TIP3    H140918   6.243   6.609   4.985  0.0417 -1.4428 -2.1803
 6501TIP3    H240919   6.341   6.719   4.949 -0.8185  0.2779  0.5913
 6502TIP3   OH240920   4.793   3.532  13.673  0.9591 -0.1973  0.0998
 6502TIP3    H140921   4.715   3.587  13.669  0.4656 -0.9513 -0.7180
 6502TIP3    H240922   4.759   3.442  13.678  1.7669 -0.5737 -0.9649
 6503TIP3   OH240923   4.814   0.098   1.352 -0.0158 -0.5969  0.1366
 6503TIP3    H140924   4.800   0.010   1.385  0.1274 -0.2351  1.1961
 6503TIP3    H240925   4.875   0.087   1.279 -0.9452 -1.4940 -0.5160
 6504TIP3   OH240926   1.785   6.748  15.112 -0.3454 -0.5947  0.8248
 6504TIP3    H140927   1.711   6.729  15.056 -0.8721 -1.5981  1.8524
 6504TIP3    H240928   1.748   6.753  15.200  0.2063  2.4596  0.9498
 6505TIP3   OH240929   5.472   6.770  15.640  0.0759 -0.2675 -0.3818
 6505TIP3    H140930   5.518   6.826  15.578 -2.7351  2.1546 -0.3724
 6505TIP3    H240931   5.397   6.736  15.590 -0.2287 -1.1424  0.6585
 6506TIP3   OH240932   2.312   6.507   0.170  0.4636  0.1436 -0.2631
 6506TIP3    H140933   2.392   6.499   0.221  0.9015 -1.1948 -1.1229
 6506TIP3    H240934   2.331   6.574   0.104 -0.2604  2.2177  1.5546
 6507TIP3   OH240935   6.428   4.118   3.994 -0.3563  0.0493  0.0046
 6507TIP3    H140936   6.438   4.108   4.088  1.1056  0.7679 -0.0635
 6507TIP3    H240937   6.508   4.081   3.957 -0.4745  0.6815 -0.8978
 6508TIP3   OH240938   1.248   2.656  13.749  0.2989  0.4789  0.4437
 6508TIP3    H140939   1.223   2.573  13.708  1.3685  0.7280 -0.7176
 6508TIP3    H240940   1.343   2.661  13.738  0.3937  1.3042  1.5589
 6509TIP3   OH240941   1.930   5.150   0.514  0.3269  0.1845 -0.1379
 6509TIP3    H140942   1.939   5.199   0.432  0.3444  0.2592 -0.0917
 6509TIP3    H240943   1.851   5.097   0.501 -0.1520  0.8223  0.1102
 6510TIP3   OH240944   3.021   6.443  10.806 -0.2242  0.2039  0.4666
 6510TIP3    H140945   2.993   6.473  10.719  1.5120 -2.4997 -1.1244
 6510TIP3    H240946   2.962   6.372  10.827 -0.9084  1.1289  1.7430
 6511TIP3   OH240947   2.177   1.614  15.887 -0.1047 -0.8820 -0.3103
 6511TIP3    H140948   2.132   1.631  15.804 -0.5062  0.0248  0.0851
 6511TIP3    H240949   2.107   1.589  15.948  0.0900 -0.7632 -0.0370
 6512TIP3   OH240950   2.554   1.543   2.515  0.1834  0.5319 -0.0155
 6512TIP3    H140951   2.624   1.479   2.515  0.8417  1.2373 -0.7354
 6512TIP3    H240952   2.598   1.627   2.505 -0.7907  0.9425 -1.0088
 6513TIP3   OH240953   5.516   6.280  14.090 -0.3488 -0.2044  0.3999
 6513TIP3    H140954   5.576   6.244  14.155  0.0112  0.5896  0.5221
 6513TIP3    H240955   5.481   6.204  14.044 -0.3239 -0.7482  1.2769
 6514TIP3   OH240956   4.817   1.373   5.715 -0.7551 -0.0491 -0.8175
 6514TIP3    H140957   4.723   1.361   5.710 -0.8603  0.2150  0.3149
 6514TIP3    H240958   4.829   1.466   5.733 -0.3561 -0.3523  0.5679
 6515TIP3   OH240959   3.190   4.742   0.661  0.0191  0.2455 -0.1416
 6515TIP3    H140960   3.197   4.735   0.757  2.3838 -0.2029 -0.3306
 6515TIP3    H240961   3.157   4.656   0.634  2.3419 -0.7340  0.0268
 6516TIP3   OH240962   0.925   5.123   2.088  0.5842 -0.3691 -0.4091
 6516TIP3    H140963   0.939   5.121   1.993 -2.1128 -0.1249 -0.8299
 6516TIP3    H240964   0.895   5.035   2.110  0.0285 -0.0752  0.0251
 6517TIP3   OH240965   6.163   1.316   5.205  0.6503  0.1410 -0.0521
 6517TIP3    H140966   6.158   1.386   5.270  0.0522 -0.7074  0.8284
 6517TIP3    H240967   6.078   1.273   5.209  0.9889 -0.5958 -0.6323
 6518TIP3   OH240968   2.330   6.464   1.759 -0.8330 -0.0281 -0.0478
 6518TIP3    H140969   2.360   6.485   1.847 -1.7049  0.4909  0.1232
 6518TIP3    H240970   2.327   6.368   1.757  1.8220 -0.1616 -0.4015
 6519TIP3   OH240971   3.654   1.085  12.023  0.0850 -1.0828  0.2029
 6519TIP3    H140972   3.666   0.990  12.030  1.3861 -1.2859 -3.7193
 6519TIP3    H240973   3.616   1.099  11.936 -0.7246  1.9454  0.9808
 6520TIP3   OH240974   0.037   1.499  16.493 -0.1606 -0.3615  0.4534
 6520TIP3    H140975  -0.032   1.443  16.527 -0.0613 -1.3312 -0.8894
 6520TIP3    H240976   0.029   1.491  16.398  0.6806  0.8935  0.2663
 6521TIP3   OH240977   1.389   6.326   4.791 -0.3055 -0.2845  0.4504
 6521TIP3    H140978   1.475   6.306   4.827  0.5612  1.7459 -0.4437
 6521TIP3    H240979   1.400   6.320   4.696 -1.0662  0.2939  0.3166
 6522TIP3   OH240980   3.458   4.984   6.494 -0.0411  0.5288  0.0028
 6522TIP3    H140981   3.404   4.984   6.572  0.5505  2.5895  0.4197
 6522TIP3    H240982   3.525   4.917   6.511 -0.8555 -0.1533  0.5676
 6523TIP3   OH240983   1.775   2.000   4.457 -0.0278  0.2950 -0.0108
 6523TIP3    H140984   1.819   2.071   4.504  2.2444 -1.9633  1.3433
 6523TIP3    H240985   1.799   2.014   4.365 -2.0215  2.9468 -0.2043
 6524TIP3   OH240986   2.081   1.486   5.529  0.1457  0.2754  0.4810
 6524TIP3    H140987   1.991   1.516   5.542  0.0350 -0.2553  0.9642
 6524TIP3    H240988   2.135   1.555   5.568 -0.1715 -1.1093  3.4783
 6525TIP3   OH240989   3.370   0.415   3.349  0.0702  0.2074 -0.2140
 6525TIP3    H140990   3.288   0.461   3.329 -0.2822 -0.3185  0.0101
 6525TIP3    H240991   3.426   0.482   3.389 -1.0771  0.0338  1.7395
 6526TIP3   OH240992   1.682   2.572  16.375 -0.0335 -0.7534  0.1214
 6526TIP3    H140993   1.670   2.649  16.430  4.3849  1.0435 -1.1596
 6526TIP3    H240994   1.627   2.588  16.298  0.2730  0.8269  0.2105
 6527TIP3   OH240995   1.701   6.250  12.212  0.1528  0.1066  0.1662
 6527TIP3    H140996   1.649   6.182  12.256  0.5332  0.3410  0.9865
 6527TIP3    H240997   1.730   6.208  12.131  1.4095 -1.1572  1.2281
 6528TIP3   OH240998   6.692   6.330   4.422  0.2483  0.0491 -0.5025
 6528TIP3    H140999   6.648   6.246   4.410  0.3488  0.1027 -1.2731
 6528TIP3    H241000   6.760   6.312   4.487 -0.3273 -0.2427  0.0283
 6529TIP3   OH241001   0.260   6.443   5.675 -0.3496  0.2545  0.2178
 6529TIP3    H141002   0.238   6.350   5.684  1.5070 -0.3025 -0.6456
 6529TIP3    H241003   0.223   6.468   5.590 -1.7074  0.5781  0.8943
 6530TIP3   OH241004   5.426   4.563  17.172  0.3685  0.0002 -0.4475
 6530TIP3    H141005   5.426   4.630  17.104 -1.1587  0.5760  0.0939
 6530TIP3    H241006   5.432   4.480  17.123 -1.1464  0.3826 -1.3423
 6531TIP3   OH241007   2.010   2.619  16.181 -0.2378 -0.0898  0.2005
 6531TIP3    H141008   1.965   2.536  16.196  0.3933 -0.3911  0.3972
 6531TIP3    H241009   2.101   2.596  16.166 -0.1771  0.5151 -0.3938
 6532TIP3   OH241010   4.284   6.174  13.900 -0.2616  0.1443  0.2234
 6532TIP3    H141011   4.194   6.196  13.923 -0.6012 -1.7623  0.7718
 6532TIP3    H241012   4.279   6.137  13.812  0.0194  0.3225  0.1310
 6533TIP3   OH241013   1.707   1.467   2.315 -0.0462 -0.5161  0.4616
 6533TIP3    H141014   1.644   1.399   2.340 -0.1942 -1.0597 -1.2847
 6533TIP3    H241015   1.736   1.505   2.398  0.5637 -3.1849  1.5172
 6534TIP3   OH241016   2.730   3.153   1.100  0.4696  0.2667 -0.3894
 6534TIP3    H141017   2.693   3.233   1.064  1.4721  0.1335 -1.7704
 6534TIP3    H241018   2.662   3.086   1.084  0.6243  0.3516 -1.4255
 6535TIP3   OH241019   4.038   0.481   5.287  0.1451 -0.1725  0.0144
 6535TIP3    H141020   4.095   0.468   5.212  0.3421  0.8837 -0.0288
 6535TIP3    H241021   3.964   0.531   5.253 -1.1216 -2.0685 -0.0645
 6536TIP3   OH241022   3.677   5.603  13.363  0.0119 -0.5798  0.1195
 6536TIP3    H141023   3.684   5.539  13.433  2.2782 -0.6217 -0.1219
 6536TIP3    H241024   3.754   5.658  13.372 -0.5089  0.4367 -1.3369
 6537TIP3   OH241025   2.259   3.807  14.794 -0.1345  0.3033  0.1702
 6537TIP3    H141026   2.349   3.834  14.812  0.6834 -1.5247 -1.0315
 6537TIP3    H241027   2.210   3.837  14.870  1.3338  2.0247  0.4902
 6538TIP3   OH241028   3.231   0.859   1.448  0.5018  0.1772  0.1320
 6538TIP3    H141029   3.227   0.951   1.475 -0.6078 -0.3093  1.7334
 6538TIP3    H241030   3.224   0.810   1.530 -1.5171 -1.3540 -0.9123
 6539TIP3   OH241031   1.229   3.540  11.899  0.4385 -0.2557 -0.5196
 6539TIP3    H141032   1.209   3.556  11.807  2.1790 -1.5032 -1.1539
 6539TIP3    H241033   1.324   3.534  11.902  0.4394  0.3480  1.4770
 6540TIP3   OH241034   0.650   4.693   1.110  0.7842 -0.3787 -0.1282
 6540TIP3    H141035   0.570   4.706   1.059  0.0539  1.7655  1.4782
 6540TIP3    H241036   0.707   4.766   1.084  0.1153  1.1722  2.5604
 6541TIP3   OH241037   1.733   6.199  11.733 -0.1601 -0.7974 -0.2094
 6541TIP3    H141038   1.790   6.148  11.676 -0.2393 -0.3066 -0.7260
 6541TIP3    H241039   1.645   6.188  11.696 -0.2044 -0.4375 -0.2101
 6542TIP3   OH241040   4.191   1.502   1.685 -0.0845  0.1861 -0.0651
 6542TIP3    H141041   4.142   1.421   1.672  0.5426 -0.3829  1.0701
 6542TIP3    H241042   4.140   1.550   1.750  0.3480  0.0158  0.4046
 6543TIP3   OH241043   1.208   1.629  15.290 -0.1760  0.2424 -0.3913
 6543TIP3    H141044   1.235   1.552  15.340 -0.4588  0.1797 -0.3373
 6543TIP3    H241045   1.142   1.672  15.344  2.7514  2.7060  1.4386
 6544TIP3   OH241046   2.857   3.400   5.026 -0.1652 -0.1582  0.0745
 6544TIP3    H141047   2.763   3.408   5.012 -0.0310  0.2906 -0.5923
 6544TIP3    H241048   2.874   3.446   5.109 -0.8187 -1.9730  1.2584
 6545TIP3   OH241049   3.870   3.238  14.787  0.7346 -0.2212  0.1504
 6545TIP3    H141050   3.958   3.274  14.777  0.2877  0.4135 -1.6159
 6545TIP3    H241051   3.873   3.155  14.740  0.8985 -1.1273  1.6934
 6546TIP3   OH241052   5.521   3.366   0.304  0.3377  0.1004  0.4186
 6546TIP3    H141053   5.427   3.358   0.288  0.2184  0.3197  0.9623
 6546TIP3    H241054   5.526   3.407   0.391  0.9390 -0.4079  0.6240
 6547TIP3   OH241055   4.206   3.556  14.892 -0.2540  0.0419  0.5063
 6547TIP3    H141056   4.188   3.634  14.945  0.1650 -0.5708  1.5844
 6547TIP3    H241057   4.289   3.574  14.850  1.1941 -0.8733  2.8631
 6548TIP3   OH241058   3.910   5.966  15.199 -0.0228  0.3949 -0.1420
 6548TIP3    H141059   3.973   5.941  15.266 -0.3285 -0.3046 -0.1098
 6548TIP3    H241060   3.958   6.026  15.142  0.6513 -0.0820 -0.0792
 6549TIP3   OH241061   1.442   2.998  11.506 -0.0647 -0.2217  0.1888
 6549TIP3    H141062   1.521   2.986  11.559 -0.2521  0.9596  0.7689
 6549TIP3    H241063   1.418   3.090  11.520 -0.1109  0.1304 -1.9585
 6550TIP3   OH241064   0.566   1.290   4.138 -0.3608  0.0962 -0.2510
 6550TIP3    H141065   0.580   1.245   4.054  0.3571  2.2625 -1.3127
 6550TIP3    H241066   0.491   1.347   4.123 -0.6531 -0.0018  0.8037
 6551TIP3   OH241067   0.701   6.425   1.591  0.2208 -0.1410 -0.6265
 6551TIP3    H141068   0.784   6.438   1.546  0.9350  0.4966  0.8256
 6551TIP3    H241069   0.688   6.505   1.641  0.0994 -1.3175  1.2798
 6552TIP3   OH241070   5.211   0.751   3.795  0.2428  0.4551  0.0318
 6552TIP3    H141071   5.223   0.685   3.864  0.4500  1.0412  0.5579
 6552TIP3    H241072   5.203   0.834   3.842  2.4254  1.1396 -0.7163
 6553TIP3   OH241073   3.043   5.349   2.069  0.6299  0.3038  0.3350
 6553TIP3    H141074   3.135   5.374   2.072  0.5300  0.7382 -0.1862
 6553TIP3    H241075   2.998   5.426   2.035 -0.0755  0.5071  1.7106
 6554TIP3   OH241076   4.483   6.101   3.038 -0.0857  0.2888 -0.3300
 6554TIP3    H141077   4.436   6.145   3.109  2.0724 -2.2352  2.7897
 6554TIP3    H241078   4.425   6.029   3.011 -0.1644  0.2092  0.0569
 6555TIP3   OH241079   3.687   0.480  14.653 -0.3737  0.0482  0.5730
 6555TIP3    H141080   3.774   0.520  14.653  0.2102 -1.2072  0.9481
 6555TIP3    H241081   3.653   0.498  14.565  0.4851  0.0895  0.2367
 6556TIP3   OH241082   4.883   0.267  13.828  0.3973 -0.6708 -0.4766
 6556TIP3    H141083   4.929   0.222  13.758  0.7916 -0.5189 -0.3136
 6556TIP3    H241084   4.853   0.197  13.886  0.9198 -0.7319 -0.2803
 6557TIP3   OH241085   2.240   6.504   1.071  0.1443  0.1455 -0.1639
 6557TIP3    H141086   2.328   6.500   1.110  0.5732 -1.5631 -1.2419
 6557TIP3    H241087   2.182   6.470   1.140  0.4655  0.2815  0.1742
 6558TIP3   OH241088   4.628   4.927  14.900 -0.0092 -0.2657 -0.0637
 6558TIP3    H141089   4.644   4.934  14.806 -3.0989 -1.0990 -0.7012
 6558TIP3    H241090   4.581   4.844  14.910  1.8426 -1.0607  2.4602
 6559TIP3   OH241091   0.916   1.370   4.426 -0.4214 -0.3842  0.6195
 6559TIP3    H141092   0.865   1.449   4.444 -1.2409 -0.8000  0.1450
 6559TIP3    H241093   0.989   1.401   4.372 -1.8602 -0.2398 -1.3321
 6560TIP3   OH241094   3.712   4.114  15.570 -0.5683  0.6773 -0.4473
 6560TIP3    H141095   3.745   4.108  15.480 -0.3988 -1.9465 -0.2751
 6560TIP3    H241096   3.703   4.207  15.587  1.9186  1.2991 -2.2801
 6561TIP3   OH241097   3.330   0.529  16.614 -0.3639 -0.0432  0.1197
 6561TIP3    H141098   3.235   0.537  16.607 -0.4111  1.9518  2.3736
 6561TIP3    H241099   3.361   0.620  16.613  1.2660 -0.5521  2.3299
 6562TIP3   OH241100   2.014   5.196   1.466  0.0611 -0.6250  0.5366
 6562TIP3    H141101   2.096   5.212   1.420  0.4026 -0.8229  1.0754
 6562TIP3    H241102   1.946   5.228   1.406  0.5372 -0.3193  0.1606
 6563TIP3   OH241103   1.325   6.356  15.286  0.2570 -0.2684  0.3333
 6563TIP3    H141104   1.305   6.384  15.197 -1.2589 -1.2590  0.3453
 6563TIP3    H241105   1.419   6.338  15.285 -0.1067 -2.2359 -1.6264
 6564TIP3   OH241106   0.071   1.240  15.502 -0.9717 -0.8000 -0.0752
 6564TIP3    H141107   0.080   1.191  15.420 -2.0356 -1.4949  0.2077
 6564TIP3    H241108  -0.021   1.229  15.527 -1.1987  1.3117  0.0405
 6565TIP3   OH241109   1.748   0.813  14.076 -0.0189 -0.6534  0.4126
 6565TIP3    H141110   1.807   0.889  14.071  0.0142 -0.7057 -0.0487
 6565TIP3    H241111   1.663   0.847  14.049 -0.1197 -0.6590  0.7272
 6566TIP3   OH241112   4.814   1.167   0.884  0.1402 -0.4679  0.4309
 6566TIP3    H141113   4.802   1.158   0.790  0.9989  0.0637  0.2711
 6566TIP3    H241114   4.846   1.081   0.912  0.5455 -0.4082  0.1405
 6567TIP3   OH241115   2.880   4.462   6.026  0.0480  0.2050 -0.5314
 6567TIP3    H141116   2.856   4.387   5.972  0.2792  0.1765 -0.5973
 6567TIP3    H241117   2.843   4.442   6.112 -2.6127  1.4786 -1.3338
 6568TIP3   OH241118   0.108   4.675   5.428 -0.4157  0.6714  0.1006
 6568TIP3    H141119   0.076   4.762   5.404 -1.4877  0.4018  0.4933
 6568TIP3    H241120   0.189   4.691   5.476  0.4437  1.3396 -1.5224
 6569TIP3   OH241121   0.574   2.620  11.690  0.0194  0.0116  0.1326
 6569TIP3    H141122   0.638   2.563  11.733  0.2963 -0.5703 -1.0076
 6569TIP3    H241123   0.566   2.583  11.602 -3.8251 -1.4634  1.0270
 6570TIP3   OH241124   0.033   2.414  15.042 -0.3953  0.4933  0.4416
 6570TIP3    H141125  -0.018   2.351  15.093  0.4110 -0.8127 -0.3475
 6570TIP3    H241126  -0.033   2.467  14.998 -1.1047 -1.0915 -0.4589
 6571TIP3   OH241127   5.690   4.876   1.367  0.1583  0.0131 -0.0855
 6571TIP3    H141128   5.766   4.846   1.418  1.5306  0.7054 -1.6660
 6571TIP3    H241129   5.617   4.823   1.399  1.1847 -0.2571  1.8909
 6572TIP3   OH241130   1.902   1.334  13.310  0.0834  0.1750  0.5133
 6572TIP3    H141131   1.985   1.377  13.326 -0.1090  0.6084  0.3522
 6572TIP3    H241132   1.846   1.402  13.274 -0.4748 -0.0169  1.0174
 6573TIP3   OH241133   2.643   3.076   4.775  0.3351  0.8450 -0.9308
 6573TIP3    H141134   2.661   3.167   4.754  0.9875  1.0425  0.4097
 6573TIP3    H241135   2.689   3.026   4.708  0.2532  1.4940 -1.4735
 6574TIP3   OH241136   2.818   5.598   4.844  0.8515  0.3358 -0.0568
 6574TIP3    H141137   2.898   5.553   4.871  1.3484  1.3451  0.1513
 6574TIP3    H241138   2.795   5.557   4.760  1.2180 -0.4101  0.2063
 6575TIP3   OH241139   2.162   0.644  13.346  0.1982 -0.0037 -0.1082
 6575TIP3    H141140   2.075   0.678  13.325  0.5771  0.4349 -1.0075
 6575TIP3    H241141   2.202   0.711  13.400  0.4614  0.3930 -0.7919
 6576TIP3   OH241142   0.952   3.977   2.669 -0.4139  0.0511  0.3965
 6576TIP3    H141143   0.933   4.060   2.626  0.9112 -0.9822 -2.3312
 6576TIP3    H241144   0.986   4.001   2.755 -3.2795  2.1969  1.0054
 6577TIP3   OH241145   5.034   4.308   4.497 -0.3963 -0.0407  0.3860
 6577TIP3    H141146   5.023   4.238   4.432  2.6226 -1.2712  1.1249
 6577TIP3    H241147   4.988   4.276   4.574 -1.2740  0.0047 -0.1045
 6578TIP3   OH241148   3.796   1.540  14.931 -0.2883 -0.3500 -0.3209
 6578TIP3    H141149   3.735   1.482  14.976 -0.6601 -0.3943 -0.8788
 6578TIP3    H241150   3.842   1.483  14.869  0.3205 -0.3182  0.0999
 6579TIP3   OH241151   1.760   3.085   0.150 -0.2413  0.6355  0.2731
 6579TIP3    H141152   1.812   3.157   0.186  0.7540  0.2919 -0.4593
 6579TIP3    H241153   1.685   3.128   0.109  0.1466  1.2304  0.1859
 6580TIP3   OH241154   3.163   2.179  16.949 -0.1910 -0.6403 -0.0664
 6580TIP3    H141155   3.106   2.255  16.944 -0.7466 -1.1058 -1.0845
 6580TIP3    H241156   3.104   2.106  16.967  0.3616 -0.8049  1.1155
 6581TIP3   OH241157   4.639   4.568   5.562 -0.4982 -0.7269 -0.1275
 6581TIP3    H141158   4.733   4.558   5.579 -0.4776 -1.0359 -0.4169
 6581TIP3    H241159   4.633   4.643   5.503 -0.3260 -1.4745 -1.1173
 6582TIP3   OH241160   2.296   2.495   1.722 -0.4078  0.3781 -0.3724
 6582TIP3    H141161   2.259   2.583   1.716 -0.4419  0.2180 -2.5820
 6582TIP3    H241162   2.268   2.464   1.809 -1.7256  1.9398 -0.2119
 6583TIP3   OH241163   5.962   0.073  14.883  0.2740 -0.6443 -0.9169
 6583TIP3    H141164   5.873   0.038  14.874  0.2921 -1.3661  1.3018
 6583TIP3    H241165   5.992   0.039  14.968  2.7164 -0.5224 -1.6998
 6584TIP3   OH241166   6.327   4.130  11.972 -0.4079 -0.1346  0.1301
 6584TIP3    H141167   6.263   4.135  12.042  0.0700 -0.1928  0.5784
 6584TIP3    H241168   6.353   4.221  11.957  1.1831 -0.3179  1.6235
 6585TIP3   OH241169   4.910   0.519  16.301 -0.0138  0.1340  0.3638
 6585TIP3    H141170   4.986   0.505  16.245 -0.5967  0.6045 -0.5551
 6585TIP3    H241171   4.893   0.614  16.295 -1.2588 -0.1136 -0.2061
 6586TIP3   OH241172   5.351   4.720   4.176 -0.2380 -0.7403  0.3984
 6586TIP3    H141173   5.437   4.725   4.219 -1.1877 -0.6523  2.3164
 6586TIP3    H241174   5.343   4.628   4.150  0.1039 -0.9171  0.9055
 6587TIP3   OH241175   5.352   3.161   2.834 -0.0281 -0.2286 -0.2452
 6587TIP3    H141176   5.264   3.195   2.849  1.1487  1.8904  2.2831
 6587TIP3    H241177   5.389   3.219   2.768 -0.3745 -0.8754 -1.0150
 6588TIP3   OH241178   1.704   4.830   0.675  0.0988  0.5994  0.2087
 6588TIP3    H141179   1.708   4.896   0.745  2.5818  1.2414 -0.4810
 6588TIP3    H241180   1.652   4.872   0.606  0.4753  1.2981  0.3400
 6589TIP3   OH241181   4.454   0.649   0.299  0.1749  0.3977  0.6992
 6589TIP3    H141182   4.392   0.652   0.372  0.8701  0.5564  1.2877
 6589TIP3    H241183   4.454   0.738   0.264  0.7817  0.6298  1.2949
 6590TIP3   OH241184   2.989   5.852   0.425  0.1729 -0.0200 -0.1233
 6590TIP3    H141185   3.014   5.760   0.434 -2.0352 -0.5446  1.2434
 6590TIP3    H241186   3.008   5.890   0.511  0.8656  0.7746 -0.6126
 6591TIP3   OH241187   1.326   6.536   5.368 -0.7946  1.1829 -0.2471
 6591TIP3    H141188   1.321   6.609   5.429  3.0577  0.9314  0.4641
 6591TIP3    H241189   1.299   6.460   5.418  0.3444  1.3041  0.5592
 6592TIP3   OH241190   4.985   4.048   5.349 -0.5264  0.2693 -0.7427
 6592TIP3    H141191   5.079   4.036   5.342 -0.7397 -2.2994  0.4931
 6592TIP3    H241192   4.948   3.996   5.278 -1.1131 -0.4456  0.0761
 6593TIP3   OH241193   3.951   2.126  11.137 -0.4096  0.0087  0.1280
 6593TIP3    H141194   4.008   2.118  11.060 -0.1387  1.9130  0.0990
 6593TIP3    H241195   3.981   2.058  11.197 -0.4481 -1.3302 -1.3398
 6594TIP3   OH241196   3.937   6.120  12.381  0.1526  0.0517  0.0679
 6594TIP3    H141197   4.003   6.086  12.321 -1.1664 -2.0279 -0.2422
 6594TIP3    H241198   3.980   6.117  12.467  0.1340 -2.3134  0.0288
 6595TIP3   OH241199   6.569   0.122  13.505  0.5250 -0.4616  0.4731
 6595TIP3    H141200   6.483   0.158  13.481  1.3619  1.6039  0.4389
 6595TIP3    H241201   6.565   0.031  13.478 -1.3689 -0.1750 -0.3228
 6596TIP3   OH241202   4.201   5.456  14.486 -0.0503 -0.6488 -0.1820
 6596TIP3    H141203   4.261   5.382  14.500 -2.4675 -2.4340  1.3483
 6596TIP3    H241204   4.156   5.466  14.570 -1.8407  0.6643 -1.2594
 6597TIP3   OH241205   1.463   3.161   4.126 -0.1276  0.2891 -0.3042
 6597TIP3    H141206   1.396   3.227   4.146 -0.1453  1.0603 -2.7700
 6597TIP3    H241207   1.426   3.080   4.160 -2.3156  0.7229 -1.5252
 6598TIP3   OH241208   2.161   2.020  16.481 -0.3982  0.3774 -0.1609
 6598TIP3    H141209   2.155   1.980  16.394  1.1198  0.5604 -0.3573
 6598TIP3    H241210   2.075   2.006  16.520 -0.8924 -0.2435 -1.4625
 6599TIP3   OH241211   5.602   2.306  13.933  0.2664  0.1696 -0.4170
 6599TIP3    H141212   5.694   2.332  13.939  0.5386 -0.4257 -1.8595
 6599TIP3    H241213   5.586   2.253  14.011  0.6349  1.7868  0.7882
 6600TIP3   OH241214   5.870   3.708   3.660  0.1522 -0.0396  0.4850
 6600TIP3    H141215   5.877   3.762   3.581 -0.2437  0.1967  0.6051
 6600TIP3    H241216   5.817   3.633   3.633 -0.4778  0.3286  0.6649
 6601TIP3   OH241217   4.380   3.020   2.466  0.0106 -0.4906  0.0160
 6601TIP3    H141218   4.382   3.004   2.560 -1.1707 -2.5272 -0.2800
 6601TIP3    H241219   4.459   2.978   2.433 -0.6381 -1.6346 -0.1367
 6602TIP3   OH241220   1.833   6.140   5.423 -0.1603  0.3396  0.0853
 6602TIP3    H141221   1.767   6.089   5.471  0.4490  0.6822  1.3134
 6602TIP3    H241222   1.791   6.224   5.406 -0.2581  0.3443  0.3400
 6603TIP3   OH241223   0.389   1.371  12.006 -0.7174 -0.0387 -0.2809
 6603TIP3    H141224   0.402   1.465  11.994  1.8306 -0.4475 -0.9292
 6603TIP3    H241225   0.420   1.354  12.095  0.2295 -0.5122 -0.7013
 6604TIP3   OH241226   2.227   0.850   3.021 -0.5555 -0.0932  0.4473
 6604TIP3    H141227   2.249   0.766   2.982 -2.3061 -0.7753  0.8868
 6604TIP3    H241228   2.307   0.877   3.067  0.9421 -0.1057 -2.0866
 6605TIP3   OH241229   6.709   4.240   5.357 -0.4421  0.1641  0.2971
 6605TIP3    H141230   6.729   4.162   5.306 -0.8197 -1.0045  1.9043
 6605TIP3    H241231   6.779   4.301   5.336 -1.0120  0.0034 -2.2003
 6606TIP3   OH241232   5.890   0.384  12.995  0.6913 -0.3271 -0.3836
 6606TIP3    H141233   5.805   0.339  12.996  0.5744 -0.1173 -0.7651
 6606TIP3    H241234   5.875   0.466  13.042  0.7466 -0.4008 -0.2349
 6607TIP3   OH241235   0.888   0.945   3.294 -0.0044 -0.5736 -0.2008
 6607TIP3    H141236   0.874   0.906   3.207  1.8748  1.4800 -1.4682
 6607TIP3    H241237   0.822   1.014   3.300 -0.7474 -1.3203  0.4283
 6608TIP3   OH241238   3.584   5.618   0.280 -0.5418  0.0458 -0.4036
 6608TIP3    H141239   3.608   5.526   0.269 -1.4409 -0.1302 -0.8971
 6608TIP3    H241240   3.663   5.658   0.317  0.0943 -0.7800 -0.8315
 6609TIP3   OH241241   0.443   5.182   3.131  0.2580  0.8495  0.2081
 6609TIP3    H141242   0.403   5.105   3.092  2.0766 -0.7816  1.4579
 6609TIP3    H241243   0.424   5.253   3.069 -1.8260 -0.4845 -0.7324
 6610TIP3   OH241244   2.708   6.012  15.417 -0.4336 -0.1126  0.1170
 6610TIP3    H141245   2.710   6.105  15.397 -2.2570  0.2159  1.3328
 6610TIP3    H241246   2.696   6.008  15.512  2.9945 -1.6173  0.5935
 6611TIP3   OH241247   1.491   5.948  10.835 -0.9767 -0.3175  0.3310
 6611TIP3    H141248   1.505   5.859  10.866 -0.0697 -0.7751 -1.3832
 6611TIP3    H241249   1.436   5.938  10.757 -0.1944  0.5534 -0.3417
 6612TIP3   OH241250   3.191   0.581   2.384 -0.3218 -0.3252 -0.3135
 6612TIP3    H141251   3.261   0.533   2.341 -0.2779  0.1425 -0.7657
 6612TIP3    H241252   3.218   0.586   2.476 -0.5563 -1.5722 -0.1736
 6613TIP3   OH241253   5.785   6.269   3.887  1.0156 -0.3972  0.0415
 6613TIP3    H141254   5.828   6.337   3.938  2.0166  1.1776 -2.8040
 6613TIP3    H241255   5.856   6.209   3.863  1.0427  0.3440 -1.7707
 6614TIP3   OH241256   1.651   6.771   3.607  0.6549  0.5468 -0.1412
 6614TIP3    H141257   1.613   6.859   3.615 -1.8374 -0.5380  0.3666
 6614TIP3    H241258   1.593   6.716   3.660  1.5557 -1.5999 -1.3702
 6615TIP3   OH241259   5.016   3.084  14.101 -1.0331 -0.3817 -0.0359
 6615TIP3    H141260   4.987   3.135  14.025 -1.1229  1.0033  0.9092
 6615TIP3    H241261   5.045   3.149  14.164  1.3672 -1.6296  0.2056
 6616TIP3   OH241262   1.578   4.528   3.711 -0.3927  0.9636  0.1570
 6616TIP3    H141263   1.537   4.595   3.655 -0.9120  0.0304 -0.5916
 6616TIP3    H241264   1.514   4.457   3.713  0.4919  0.1747  0.3315
 6617TIP3   OH241265   5.150   5.307  16.304  0.0059 -0.0298 -0.0705
 6617TIP3    H141266   5.095   5.280  16.231  1.2074 -3.5804  0.2630
 6617TIP3    H241267   5.138   5.238  16.370  1.1430  1.6328  1.9341
 6618TIP3   OH241268   3.948   5.543  13.187  0.3556  0.1962  0.0446
 6618TIP3    H141269   3.915   5.544  13.098 -1.9991  0.2457  0.8835
 6618TIP3    H241270   3.892   5.605  13.235  1.7844  0.4252  1.4898
 6619TIP3   OH241271   0.476   4.112   2.628 -0.5101  0.6458  0.0071
 6619TIP3    H141272   0.386   4.145   2.637 -1.0225 -0.6274 -0.3779
 6619TIP3    H241273   0.471   4.021   2.657  0.3886  0.2009 -1.2178
 6620TIP3   OH241274   5.073   2.703  12.494  0.3163  0.2484 -0.3741
 6620TIP3    H141275   4.982   2.686  12.520  1.1234 -1.3385  1.4664
 6620TIP3    H241276   5.111   2.617  12.481  2.2837  0.8141  1.4011
 6621TIP3   OH241277   5.146   4.548  11.692 -0.1881 -0.5355 -0.3814
 6621TIP3    H141278   5.233   4.519  11.665  0.0161 -0.0653 -0.2312
 6621TIP3    H241279   5.149   4.643  11.684 -0.4798 -0.4717  0.2564
 6622TIP3   OH241280   5.653   1.933  11.017 -0.5663  0.1503 -0.2159
 6622TIP3    H141281   5.730   1.890  10.982  0.9859  1.6228  1.2560
 6622TIP3    H241282   5.582   1.910  10.957  0.8798 -1.7508 -1.2293
 6623TIP3   OH241283   4.575   2.858   1.409  0.4491 -0.7755 -0.5068
 6623TIP3    H141284   4.506   2.826   1.468 -0.8900  0.4760 -1.3645
 6623TIP3    H241285   4.619   2.926   1.459  0.2836 -0.7545 -0.3856
 6624TIP3   OH241286   5.527   6.283   4.954 -0.1586 -0.7109  0.2642
 6624TIP3    H141287   5.539   6.351   4.887 -2.1796  4.0547  4.3620
 6624TIP3    H241288   5.448   6.236   4.928 -1.5735  1.8296 -0.1738
 6625TIP3   OH241289   1.504   6.608  14.227 -0.0039  0.2907 -0.0787
 6625TIP3    H141290   1.593   6.643  14.222  0.6536 -0.8671  2.3526
 6625TIP3    H241291   1.449   6.684  14.247  0.5758  0.8450 -0.5658
 6626TIP3   OH241292   2.648   0.305  15.394 -0.0702  0.3584  0.1089
 6626TIP3    H141293   2.667   0.234  15.332 -0.6365  0.8254 -0.6087
 6626TIP3    H241294   2.734   0.330  15.428  0.3176  0.5762 -1.0237
 6627TIP3   OH241295   0.794   3.499  16.866 -0.3357  0.7115 -0.5375
 6627TIP3    H141296   0.823   3.553  16.939 -1.6607  0.8465 -0.0925
 6627TIP3    H241297   0.737   3.556  16.814 -0.6052  0.1758 -0.8469
 6628TIP3   OH241298   6.106   0.909   0.120 -0.2616  0.2752 -0.4079
 6628TIP3    H141299   6.137   0.985   0.169  0.3427 -0.4192  0.3035
 6628TIP3    H241300   6.150   0.834   0.161 -0.6020 -0.4264 -1.3011
 6629TIP3   OH241301   0.532   1.676  17.067 -0.1300  0.0394 -0.3493
 6629TIP3    H141302   0.539   1.631  16.983  2.5039 -2.4823  1.1129
 6629TIP3    H241303   0.614   1.724  17.075 -0.1639 -0.1067  0.9761
 6630TIP3   OH241304   4.525   3.547   2.053  1.0521  0.5969 -0.2585
 6630TIP3    H141305   4.481   3.568   2.135  2.5052  1.3424  0.3504
 6630TIP3    H241306   4.487   3.608   1.989 -0.6952 -0.5531 -0.3654
 6631TIP3   OH241307   0.598   6.390  13.140  0.4923 -0.5414 -0.1870
 6631TIP3    H141308   0.561   6.369  13.055 -0.2857  1.8413 -0.4764
 6631TIP3    H241309   0.547   6.339  13.203  0.2713 -1.3715 -1.0431
 6632TIP3   OH241310   1.302   6.084  16.401 -0.0556 -0.0649 -0.0162
 6632TIP3    H141311   1.287   6.033  16.322  0.6480 -1.8133  0.9390
 6632TIP3    H241312   1.262   6.032  16.471  1.2013  0.3771  1.0605
 6633TIP3   OH241313   4.649   0.439   3.984  0.6959  0.0112 -0.8784
 6633TIP3    H141314   4.567   0.473   3.947 -0.4030 -0.3858  1.1421
 6633TIP3    H241315   4.629   0.349   4.009  1.2590  0.4530  1.1917
 6634TIP3   OH241316   1.000   5.172  14.554 -0.0311  0.3005 -0.8565
 6634TIP3    H141317   1.014   5.130  14.639 -0.7207  1.6718 -0.0412
 6634TIP3    H241318   0.937   5.116  14.509 -0.8685  0.3934  0.1710
 6635TIP3   OH241319   5.406   3.252  12.519 -0.4081 -0.1613 -0.8807
 6635TIP3    H141320   5.338   3.185  12.531 -1.0298  0.5568 -0.2868
 6635TIP3    H241321   5.485   3.203  12.498 -0.8043 -1.1025 -0.2091
 6636TIP3   OH241322   0.959   2.173   4.875  0.0236  0.4367 -0.2248
 6636TIP3    H141323   0.947   2.105   4.808 -0.7126  0.0512  0.2783
 6636TIP3    H241324   0.938   2.255   4.830 -0.0325  0.2258 -0.5888
 6637TIP3   OH241325   4.992   6.218  11.977 -0.0721  0.1770  0.0320
 6637TIP3    H141326   5.016   6.307  11.950 -2.0322  0.7905  0.2244
 6637TIP3    H241327   4.938   6.185  11.906 -2.4114  0.5319  1.5870
 6638TIP3   OH241328   3.355   2.445  15.482  0.6320  0.1341  0.0120
 6638TIP3    H141329   3.371   2.420  15.573 -0.7149 -0.6791  0.0429
 6638TIP3    H241330   3.416   2.391  15.432 -1.2279 -2.2235  0.1884
 6639TIP3   OH241331   1.134   0.350  16.023  0.2644  0.2565  0.6816
 6639TIP3    H141332   1.173   0.340  16.110  0.4862 -1.3396  0.4216
 6639TIP3    H241333   1.203   0.390  15.970 -0.6033  3.2742  1.7461
 6640TIP3   OH241334   4.078   1.511   5.402 -0.3037 -0.7339 -0.6339
 6640TIP3    H141335   4.114   1.428   5.371 -1.8992 -0.9403 -1.9770
 6640TIP3    H241336   4.034   1.490   5.484  1.3332 -0.7486  0.2643
 6641TIP3   OH241337   2.759   0.205   5.602  0.1140 -0.4923  0.4538
 6641TIP3    H141338   2.759   0.248   5.517 -1.1760  0.9404  1.1647
 6641TIP3    H241339   2.850   0.211   5.632  0.2605  0.3475 -0.1527
 6642TIP3   OH241340   3.450   5.797   4.907 -0.6117  0.1634  0.1671
 6642TIP3    H141341   3.516   5.764   4.968 -0.5466 -0.3200 -0.1627
 6642TIP3    H241342   3.481   5.885   4.883  0.2729 -0.3331 -0.5222
 6643TIP3   OH241343   1.111   1.840   3.025  0.7275 -0.3674 -0.1265
 6643TIP3    H141344   1.054   1.822   2.951  0.8984 -0.5048 -0.2238
 6643TIP3    H241345   1.180   1.896   2.989  0.6223 -0.1555  0.0026
 6644TIP3   OH241346   2.163   2.966   5.436  0.0301  0.1277 -0.0851
 6644TIP3    H141347   2.141   2.960   5.529  0.1790 -2.4093 -0.1833
 6644TIP3    H241348   2.182   3.058   5.422 -2.6175  1.0338  1.8067
 6645TIP3   OH241349   0.427   2.790  13.759  0.0843  0.2235 -0.2465
 6645TIP3    H141350   0.391   2.715  13.712  1.0630 -1.1312  1.1062
 6645TIP3    H241351   0.425   2.862  13.695 -2.5902 -0.4523 -0.9815
 6646TIP3   OH241352   1.696   2.392  17.118 -0.0672 -0.1828 -0.2881
 6646TIP3    H141353   1.733   2.330  17.056 -0.1251 -0.3305 -0.1757
 6646TIP3    H241354   1.747   2.473  17.105 -0.7605  0.1037 -1.2398
 6647TIP3   OH241355   6.469   1.327  13.419 -0.1887  0.0778 -0.2108
 6647TIP3    H141356   6.406   1.282  13.476 -1.1232  1.3715 -0.2051
 6647TIP3    H241357   6.493   1.262  13.353  1.0953 -1.5418  1.7646
 6648TIP3   OH241358   0.166   4.580  13.246  0.6732 -0.3214  0.0969
 6648TIP3    H141359   0.185   4.662  13.200 -0.9890  0.1581  0.2072
 6648TIP3    H241360   0.228   4.517  13.210  0.5132  0.4535 -1.5782
 6649TIP3   OH241361   2.805   1.508  11.589  0.2609 -0.1434  0.6721
 6649TIP3    H141362   2.720   1.549  11.569  0.0126 -0.7014  0.5735
 6649TIP3    H241363   2.822   1.531  11.680  0.4624  0.7757  0.4069
 6650TIP3   OH241364   2.076   5.223  16.847  0.9908  0.6206 -0.2326
 6650TIP3    H141365   2.043   5.202  16.935 -1.6121  2.0379 -0.8323
 6650TIP3    H241366   2.087   5.138  16.805  3.2453 -0.1524  1.7675
 6651TIP3   OH241367   2.815   2.332  17.056 -0.7220  0.0295 -0.0004
 6651TIP3    H141368   2.818   2.342  17.151 -1.1102 -1.2188  0.1577
 6651TIP3    H241369   2.761   2.254  17.042  0.7996 -0.8567 -1.1670
 6652TIP3   OH241370   5.717   0.008  13.485 -0.1693  0.2313 -0.4339
 6652TIP3    H141371   5.732  -0.032  13.399  0.3143 -1.7925  0.5820
 6652TIP3    H241372   5.629  -0.020  13.509  0.4253 -0.7670  0.5764
 6653TIP3   OH241373   1.054   0.274   0.872  0.3196 -0.2893 -0.2697
 6653TIP3    H141374   1.008   0.248   0.952  1.2438 -0.1026  0.3285
 6653TIP3    H241375   1.043   0.199   0.813 -1.7146  0.2052 -0.5616
 6654TIP3   OH241376   0.536   6.022   2.665  0.6619 -0.1296 -0.2388
 6654TIP3    H141377   0.453   6.055   2.697  0.7701  0.3581 -0.4479
 6654TIP3    H241378   0.567   6.090   2.604  0.1539 -1.3295 -1.8524
 6655TIP3   OH241379   0.171   4.214  17.179 -0.4173  0.8276 -0.3524
 6655TIP3    H141380   0.079   4.242  17.185 -0.1522  1.6627 -0.0525
 6655TIP3    H241381   0.221   4.291  17.206  0.3571  0.1591  0.1470
 6656TIP3   OH241382   0.815   2.565   3.647 -0.0608 -0.2599 -0.7719
 6656TIP3    H141383   0.731   2.601   3.676 -1.2050 -2.6904 -0.9733
 6656TIP3    H241384   0.837   2.498   3.712  1.4840  0.0019 -0.9934
 6657TIP3   OH241385   4.185   3.739   4.659  0.0657 -0.3003  0.1928
 6657TIP3    H141386   4.272   3.704   4.640  0.2915  0.6332 -0.5637
 6657TIP3    H241387   4.125   3.671   4.630  0.5464 -1.1433  1.1294
 6658TIP3   OH241388   0.977   5.546  15.689  0.6134 -0.3193 -0.0414
 6658TIP3    H141389   0.902   5.535  15.746  0.3840  1.2013 -0.0532
 6658TIP3    H241390   0.946   5.516  15.603 -0.1999  0.9575 -0.2051
 6659TIP3   OH241391   4.568   0.886   0.911  0.2539  0.3865 -0.5872
 6659TIP3    H141392   4.611   0.801   0.916  1.4043  0.9369 -0.9331
 6659TIP3    H241393   4.640   0.949   0.909 -0.5888  1.3984  0.1516
 6660TIP3   OH241394   5.935   5.214   4.580  0.0063 -0.0031  0.0655
 6660TIP3    H141395   5.903   5.277   4.516  0.1059  1.0500  1.0517
 6660TIP3    H241396   5.860   5.158   4.598 -0.2861  0.2817 -0.2682
 6661TIP3   OH241397   3.858   4.677   4.901  0.1367  0.0668  0.0433
 6661TIP3    H141398   3.862   4.749   4.965  1.0313 -2.3338  2.8368
 6661TIP3    H241399   3.781   4.626   4.927  0.1574 -0.6083 -1.1821
 6662TIP3   OH241400   4.254   2.158  14.833  0.0658 -0.2354 -0.3020
 6662TIP3    H141401   4.216   2.158  14.920  0.1981 -1.5085 -0.2279
 6662TIP3    H241402   4.179   2.140  14.775  0.0975 -0.0910 -0.3871
 6663TIP3   OH241403   5.777   3.478   2.510  0.2194 -1.2556 -0.0904
 6663TIP3    H141404   5.845   3.515   2.567  1.4513 -0.9012 -1.7681
 6663TIP3    H241405   5.818   3.471   2.424 -2.3414  0.4676 -1.5353
 6664TIP3   OH241406   6.662   2.206   6.134 -0.4842 -0.0084 -0.1963
 6664TIP3    H141407   6.629   2.295   6.141  1.6383  0.7469  0.5747
 6664TIP3    H241408   6.736   2.202   6.195 -0.3410 -2.1991 -0.4440
 6665TIP3   OH241409   3.889   1.037   0.320  0.2519 -0.1410  0.0813
 6665TIP3    H141410   3.960   0.973   0.322  1.0370  0.6143 -1.5587
 6665TIP3    H241411   3.812   0.990   0.351  1.3675 -1.1212  1.4161
 6666TIP3   OH241412   0.463   0.698  16.151 -0.5011 -0.5352  0.4094
 6666TIP3    H141413   0.422   0.720  16.234 -0.2650  0.4394  0.2785
 6666TIP3    H241414   0.397   0.649  16.102 -1.7857  1.6802 -0.1165
 6667TIP3   OH241415   5.441   2.660   6.485  0.4492  0.5023 -0.3566
 6667TIP3    H141416   5.444   2.609   6.404  3.5387  0.8882 -0.5315
 6667TIP3    H241417   5.471   2.599   6.553  0.9948  1.1119 -0.0437
 6668TIP3   OH241418   6.423   4.352  13.094  0.5347 -0.3945 -0.6481
 6668TIP3    H141419   6.375   4.293  13.034 -1.0104  1.2074 -1.0232
 6668TIP3    H241420   6.354   4.393  13.146  1.7840 -0.6992  1.2772
 6669TIP3   OH241421   2.027   1.059   0.796 -0.4552  0.2677  0.2078
 6669TIP3    H141422   1.976   1.050   0.715 -0.4412  0.7254  0.1466
 6669TIP3    H241423   2.024   1.153   0.816  0.0455  0.2458  0.4056
 6670TIP3   OH241424   0.379   5.487  14.218 -0.2546 -0.0324  0.3912
 6670TIP3    H141425   0.399   5.396  14.200 -0.8570  0.3602 -2.4985
 6670TIP3    H241426   0.294   5.485  14.262 -0.3542 -0.8627  0.1738
 6671TIP3   OH241427   3.884   4.242  11.657  0.1872  0.5472  0.2681
 6671TIP3    H141428   3.966   4.199  11.635 -0.1272  1.2964 -2.5164
 6671TIP3    H241429   3.834   4.175  11.704  0.5673 -1.4448 -2.0720
 6672TIP3   OH241430   0.664   1.958   4.562  0.8326 -0.3889 -0.6685
 6672TIP3    H141431   0.741   2.007   4.536  0.8959  1.1128  2.1395
 6672TIP3    H241432   0.695   1.897   4.629 -0.0070 -1.3201 -1.1170
 6673TIP3   OH241433   2.923   5.470   3.303  0.1873  0.1353 -0.4670
 6673TIP3    H141434   2.854   5.509   3.250 -2.4613 -1.1230  1.9563
 6673TIP3    H241435   2.890   5.473   3.392  3.4562 -0.1297  0.8342
 6674TIP3   OH241436   1.964   6.062   2.097  0.3992  0.5053  0.2920
 6674TIP3    H141437   1.879   6.070   2.139 -0.4153 -0.4129 -1.1365
 6674TIP3    H241438   2.013   6.138   2.127 -0.5440  0.4770  1.9699
 6675TIP3   OH241439   0.951   1.062   5.571  0.3275  0.4059 -0.1943
 6675TIP3    H141440   0.866   1.079   5.531  1.0660  2.1130 -1.1014
 6675TIP3    H241441   1.006   1.034   5.498  0.8971  0.6260  0.1446
 6676TIP3   OH241442   3.471   2.628  13.485  0.6030 -0.1892 -0.5397
 6676TIP3    H141443   3.474   2.724  13.476  0.2015 -0.2933 -1.8787
 6676TIP3    H241444   3.426   2.614  13.568  1.3138  0.7924  0.0255
 6677TIP3   OH241445   4.551   1.325  12.840  0.6673 -0.2135 -1.1814
 6677TIP3    H141446   4.610   1.391  12.877 -0.9109  1.0537 -0.8708
 6677TIP3    H241447   4.590   1.301  12.756  0.8705  1.6730 -1.6303
 6678TIP3   OH241448   1.130   0.437   0.235  0.6079 -0.5357  0.3144
 6678TIP3    H141449   1.189   0.376   0.279  1.2202  0.1351  0.4206
 6678TIP3    H241450   1.123   0.511   0.295 -0.2402 -0.5487  0.2418
 6679TIP3   OH241451   3.417   2.731  16.424  0.4115  0.4201 -0.0237
 6679TIP3    H141452   3.392   2.655  16.476  3.3500 -0.9339 -0.5593
 6679TIP3    H241453   3.431   2.697  16.336 -2.7215  2.3966 -1.4044
 6680TIP3   OH241454   5.951   3.265  12.541  0.0975  0.0043  0.3935
 6680TIP3    H141455   5.999   3.263  12.623  0.1878 -0.3616  0.3356
 6680TIP3    H241456   6.014   3.235  12.475  0.1206  0.5958  0.1407
 6681TIP3   OH241457   4.414   2.446   1.114 -0.1189 -0.0094 -0.1193
 6681TIP3    H141458   4.467   2.442   1.034 -0.9834 -1.8893 -0.6428
 6681TIP3    H241459   4.334   2.398   1.091 -0.8249  0.3644  1.5411
 6682TIP3   OH241460   2.495   3.181   3.551  0.9464 -0.3925  0.3870
 6682TIP3    H141461   2.526   3.209   3.465  0.2001 -0.5203  0.0670
 6682TIP3    H241462   2.423   3.121   3.532 -1.3611  2.0211  1.1025
 6683TIP3   OH241463   3.113   2.900   2.268  0.1380  0.6168 -0.4925
 6683TIP3    H141464   3.044   2.966   2.266 -1.3076 -0.8699 -1.1647
 6683TIP3    H241465   3.176   2.928   2.202 -0.6170  1.1757 -0.9872
 6684TIP3   OH241466   3.821   5.549  11.088 -0.3640  0.4170  0.2178
 6684TIP3    H141467   3.765   5.624  11.069 -1.2436  0.0196  1.2422
 6684TIP3    H241468   3.910   5.584  11.078 -0.7253  2.0488  2.3162
 6685TIP3   OH241469   0.904   5.870  13.537  0.1543 -0.2323  0.0306
 6685TIP3    H141470   0.999   5.859  13.542  0.1002 -0.3764  0.7965
 6685TIP3    H241471   0.880   5.915  13.618 -0.2228  1.3422 -0.9342
 6686TIP3   OH241472   2.740   3.142   5.113 -0.1250 -0.4776 -0.7383
 6686TIP3    H141473   2.822   3.173   5.153 -0.1925 -1.9894  0.5903
 6686TIP3    H241474   2.737   3.187   5.029  0.2554  2.4384  0.7334
 6687TIP3   OH241475   2.097   4.910   1.799 -0.1641  0.1140  0.2659
 6687TIP3    H141476   2.156   4.956   1.739 -1.3064  0.5141 -0.5633
 6687TIP3    H241477   2.077   4.828   1.755 -0.4262  0.0901  0.4266
 6688TIP3   OH241478   3.302   0.134   0.765  0.3177  0.5718  0.4988
 6688TIP3    H141479   3.320   0.045   0.793  0.1987 -0.0113 -1.2175
 6688TIP3    H241480   3.217   0.154   0.805  0.9601  0.4190  1.9778
 6689TIP3   OH241481   4.294   4.323  14.534  0.3149 -0.1102 -0.0373
 6689TIP3    H141482   4.376   4.331  14.583 -0.9359  2.5217  1.7930
 6689TIP3    H241483   4.291   4.402  14.480 -0.5725 -0.6422 -0.7711
 6690TIP3   OH241484   4.248   3.020   4.420  0.4800  0.8639 -0.3485
 6690TIP3    H141485   4.235   3.064   4.504  0.1077  2.3252 -1.1561
 6690TIP3    H241486   4.187   2.946   4.423  0.2080  1.1108  0.5276
 6691TIP3   OH241487   1.596   3.193  11.837 -0.1349 -0.0538  0.2073
 6691TIP3    H141488   1.545   3.261  11.793 -0.0542 -0.1866 -0.0871
 6691TIP3    H241489   1.636   3.143  11.766 -0.8824 -0.9415  0.4131
 6692TIP3   OH241490   4.176   0.628  10.942 -0.4371  0.2457  0.0289
 6692TIP3    H141491   4.098   0.586  10.978  0.0468  0.6250  1.5437
 6692TIP3    H241492   4.209   0.566  10.877 -0.3866 -1.1840  1.4042
 6693TIP3   OH241493   4.621   3.919  13.697  0.0919 -0.3004  0.3706
 6693TIP3    H141494   4.628   4.006  13.656  0.3171 -0.5046 -0.0292
 6693TIP3    H241495   4.602   3.938  13.789 -0.8298  0.1615  0.0944
 6694TIP3   OH241496   3.263   4.834   4.554  0.2614 -0.4730  0.0512
 6694TIP3    H141497   3.300   4.817   4.640 -0.8797  0.3611  0.7175
 6694TIP3    H241498   3.180   4.786   4.553 -1.3571  2.1837  0.7123
 6695TIP3   OH241499   5.831   1.791   6.471 -0.4671  0.1100  0.4541
 6695TIP3    H141500   5.832   1.796   6.376  0.8375 -0.2040  0.4378
 6695TIP3    H241501   5.773   1.718   6.491 -0.7083  0.1478 -0.0978
 6696TIP3   OH241502   5.093   1.962   6.062  0.0252  0.0545 -0.3797
 6696TIP3    H141503   5.026   1.988   5.998  2.3573  0.9301 -2.5762
 6696TIP3    H241504   5.070   1.872   6.084 -2.1354  0.4763 -0.7226
 6697TIP3   OH241505   0.078   3.167   0.591 -0.2308 -0.1788 -0.2128
 6697TIP3    H141506  -0.005   3.128   0.619 -1.3205  0.1521 -2.8228
 6697TIP3    H241507   0.107   3.112   0.519  1.9575 -0.3921  0.8003
 6698TIP3   OH241508   5.047   2.596  13.350 -0.0331  0.0217  0.0527
 6698TIP3    H141509   5.119   2.607  13.288 -0.3720 -1.8041 -0.7152
 6698TIP3    H241510   5.080   2.531  13.413 -0.3547  0.5055  0.7229
 6699TIP3   OH241511   6.001   3.290  14.799  0.7339 -0.0633 -0.0071
 6699TIP3    H141512   6.062   3.350  14.841  2.2379 -2.3444  1.2022
 6699TIP3    H241513   5.917   3.307  14.842  0.9459  1.7123 -0.2654
 6700TIP3   OH241514   3.299   2.034  13.114  0.3528  0.1684  0.4789
 6700TIP3    H141515   3.281   2.037  13.208 -0.1609 -2.6030  0.4903
 6700TIP3    H241516   3.394   2.031  13.109  0.4607  2.3039  0.8240
 6701TIP3   OH241517   5.909   1.071  14.855 -0.4369  0.2434  0.2773
 6701TIP3    H141518   5.890   1.164  14.866 -2.2017  0.2961 -2.6626
 6701TIP3    H241519   5.960   1.067  14.774  0.1822 -1.2756  0.7437
 6702TIP3   OH241520   1.359   3.321   5.142 -0.0732  0.0741  0.2730
 6702TIP3    H141521   1.263   3.315   5.139 -0.0118 -1.8449  1.3950
 6702TIP3    H241522   1.376   3.394   5.201 -0.8556 -0.1418  0.7826
 6703TIP3   OH241523   0.907   1.719   2.072  1.0095  0.2451 -0.8071
 6703TIP3    H141524   0.936   1.799   2.029  2.2475  0.2305 -0.0235
 6703TIP3    H241525   0.962   1.650   2.034  0.2821 -0.1652 -1.1264
 6704TIP3   OH241526   0.923   1.754   0.771  0.3746 -0.0390 -0.1388
 6704TIP3    H141527   0.946   1.674   0.725  0.3347  0.4160 -0.9709
 6704TIP3    H241528   0.839   1.736   0.812 -0.5565  0.1768 -1.8855
 6705TIP3   OH241529   2.657   0.187   1.188 -0.4878  0.3959 -0.0897
 6705TIP3    H141530   2.724   0.256   1.180 -0.1702  0.1132  0.1437
 6705TIP3    H241531   2.670   0.151   1.276  0.2231 -0.8731 -0.7028
 6706TIP3   OH241532   1.722   6.017   2.215  0.0127 -0.2548 -0.0368
 6706TIP3    H141533   1.694   6.066   2.293  1.0736 -0.4790  0.4868
 6706TIP3    H241534   1.665   5.940   2.215  0.8761 -0.9119  1.2519
 6707TIP3   OH241535   4.140   6.078   1.428  0.4193 -0.0848 -0.1134
 6707TIP3    H141536   4.159   6.172   1.418 -0.9205  0.4248  1.8061
 6707TIP3    H241537   4.171   6.057   1.516 -0.2784 -1.1818 -0.1234
 6708TIP3   OH241538   4.590   0.115   1.967 -0.0841  0.3605  0.5117
 6708TIP3    H141539   4.600   0.078   2.055  1.1036 -0.0367  0.2209
 6708TIP3    H241540   4.517   0.176   1.975 -1.6207 -1.5312  1.1644
 6709TIP3   OH241541   6.158   3.901  16.132  1.0690 -0.2139  0.0563
 6709TIP3    H141542   6.242   3.944  16.147  0.1215  1.0713  1.9621
 6709TIP3    H241543   6.119   3.894  16.220  0.1325 -2.7778 -0.5175
 6710TIP3   OH241544   3.673   3.400  16.741 -0.1249 -0.1704  0.5056
 6710TIP3    H141545   3.764   3.407  16.771 -0.2702 -0.2885  0.9825
 6710TIP3    H241546   3.657   3.306  16.735 -0.4041 -0.1530  1.0007
 6711TIP3   OH241547   3.778   6.313  16.771 -0.0941  0.3539  0.2115
 6711TIP3    H141548   3.780   6.350  16.683  0.5196 -0.9376 -0.3365
 6711TIP3    H241549   3.870   6.306  16.796 -0.2866  1.1359  1.1419
 6712TIP3   OH241550   0.477   3.639  15.271 -0.1362 -0.1801  0.2173
 6712TIP3    H141551   0.539   3.568  15.286  1.2111  1.4235  2.6160
 6712TIP3    H241552   0.511   3.685  15.194  2.0069  1.0022  1.8291
 6713TIP3   OH241553   1.749   4.874  14.170 -0.0364  0.0081 -0.4750
 6713TIP3    H141554   1.842   4.858  14.153  0.2153  1.0293 -0.0841
 6713TIP3    H241555   1.711   4.889  14.083 -0.1315 -1.8791 -0.7803
 6714TIP3   OH241556   2.069   2.905   4.237  0.0043  0.7593  0.0784
 6714TIP3    H141557   2.136   2.836   4.232  0.8604  1.5258  0.7807
 6714TIP3    H241558   2.074   2.949   4.152 -0.3629  0.1160 -0.2753
 6715TIP3   OH241559   0.784   1.365   1.739 -0.0759  0.6322  0.3142
 6715TIP3    H141560   0.739   1.286   1.709  0.2034  0.5974 -0.0232
 6715TIP3    H241561   0.773   1.365   1.834 -2.0558  1.4018  0.1024
 6716TIP3   OH241562   5.676   1.383   4.527  0.3720 -0.1418 -0.0024
 6716TIP3    H141563   5.696   1.460   4.581  0.6334 -0.7435  0.7800
 6716TIP3    H241564   5.649   1.316   4.591  1.7200 -1.1921 -0.5122
 6717TIP3   OH241565   6.619   6.487  14.451 -0.9343  0.3838  0.3843
 6717TIP3    H141566   6.541   6.501  14.506 -1.6751  0.0498 -0.5736
 6717TIP3    H241567   6.640   6.394  14.464 -1.0315  0.3367  0.1929
 6718TIP3   OH241568   4.750   6.459  13.692  0.1934  0.2013 -1.3006
 6718TIP3    H141569   4.775   6.436  13.602 -2.5992 -0.9385 -1.8407
 6718TIP3    H241570   4.724   6.551  13.687  0.3124  0.2204 -1.5994
 6719TIP3   OH241571   6.120   3.922   3.777  0.0505  0.5451  0.2880
 6719TIP3    H141572   6.113   3.988   3.846 -1.1629  1.7308 -0.9459
 6719TIP3    H241573   6.183   3.958   3.715  0.2474  0.0132  0.1709
 6720TIP3   OH241574   0.271   4.250  14.909 -0.5233 -0.3766 -0.1486
 6720TIP3    H141575   0.289   4.224  14.819 -0.7937 -0.8321 -0.0696
 6720TIP3    H241576   0.340   4.209  14.961 -0.4292 -0.2010 -0.1320
 6721TIP3   OH241577   1.585   2.621   5.922 -0.3362  0.6011  0.3097
 6721TIP3    H141578   1.582   2.645   5.830  0.0492  1.3236  0.4873
 6721TIP3    H241579   1.542   2.535   5.926 -1.9121  1.3496 -0.2848
 6722TIP3   OH241580   2.244   4.938  13.308 -0.1259 -0.3232 -0.4607
 6722TIP3    H141581   2.334   4.913  13.288  0.3253  1.3757 -0.5828
 6722TIP3    H241582   2.197   4.929  13.225 -0.4362 -2.6626 -0.0753
 6723TIP3   OH241583   4.851   3.672   1.420 -0.4007 -0.6674  0.3418
 6723TIP3    H141584   4.823   3.663   1.511 -1.5559  1.8298  0.2665
 6723TIP3    H241585   4.944   3.696   1.426 -0.8956  1.1678  0.9464
 6724TIP3   OH241586   4.102   5.682   1.851 -0.2192  0.2867 -0.1109
 6724TIP3    H141587   4.063   5.714   1.932 -0.2519 -1.9213  0.7919
 6724TIP3    H241588   4.028   5.662   1.795 -0.3347 -1.1833  0.5316
 6725TIP3   OH241589   3.182   5.170  13.370 -0.0170  0.3855  0.4699
 6725TIP3    H141590   3.212   5.203  13.285 -0.5587 -0.5682 -0.1079
 6725TIP3    H241591   3.247   5.105  13.395  0.4215  1.0480  1.0359
 6726TIP3   OH241592   3.159   6.534  12.476  0.2152 -0.5154 -0.1985
 6726TIP3    H141593   3.205   6.481  12.411  2.3440 -0.3463  1.1350
 6726TIP3    H241594   3.146   6.619  12.433  1.8649 -0.3085 -0.3304
 6727TIP3   OH241595   1.383   2.395  14.458  0.1217  0.6623 -0.1418
 6727TIP3    H141596   1.472   2.382  14.490  0.1942  0.0425 -0.5728
 6727TIP3    H241597   1.330   2.406  14.537  0.2413 -1.1852  0.2341
 6728TIP3   OH241598   4.308   2.281  15.823 -0.4444  0.4260 -0.1005
 6728TIP3    H141599   4.345   2.196  15.797  1.4890  0.3724  2.5430
 6728TIP3    H241600   4.225   2.259  15.864 -0.0068 -0.2127  0.4695
 6729TIP3   OH241601   1.723   5.071  11.510  0.6538 -0.4666 -1.1185
 6729TIP3    H141602   1.819   5.065  11.508  0.6381 -0.5773 -1.7902
 6729TIP3    H241603   1.694   4.985  11.479  0.3460 -0.1629 -1.6815
 6730TIP3   OH241604   4.671   2.535   4.906 -0.0063  0.3321  0.1781
 6730TIP3    H141605   4.577   2.528   4.887 -0.1449  0.2217  0.8525
 6730TIP3    H241606   4.712   2.468   4.852 -0.3356  0.3067 -0.0397
 6731TIP3   OH241607   3.172   6.438  11.985  0.1642  0.0143 -0.0632
 6731TIP3    H141608   3.183   6.349  11.951  0.8198 -0.7767  2.1559
 6731TIP3    H241609   3.212   6.493  11.918  2.6173 -1.6188 -0.0234
 6732TIP3   OH241610   4.437   1.145   0.172 -0.2417 -0.2840  0.1069
 6732TIP3    H141611   4.483   1.211   0.120 -0.8020 -0.0481 -0.0946
 6732TIP3    H241612   4.448   1.064   0.123  0.3930 -0.3354  0.3214
 6733TIP3   OH241613   5.887   0.283  11.453 -0.6665  0.1557  0.2573
 6733TIP3    H141614   5.970   0.249  11.422  0.0832  1.0975  1.1852
 6733TIP3    H241615   5.822   0.219  11.425  0.5319 -1.2737  0.7093
 6734TIP3   OH241616   2.388   3.084  14.424  0.8514  0.2926  0.6044
 6734TIP3    H141617   2.295   3.087  14.447  0.5061  3.4057 -0.8482
 6734TIP3    H241618   2.433   3.120  14.500  0.4816  2.2467 -0.0501
 6735TIP3   OH241619   4.890   2.765   2.769 -0.1276  0.0948  0.5006
 6735TIP3    H141620   4.846   2.849   2.779  1.3590  1.2729 -2.3827
 6735TIP3    H241621   4.981   2.783   2.793  0.3999 -0.4512 -1.0638
 6736TIP3   OH241622   5.918   2.568  16.290 -0.2184  0.0225 -0.1203
 6736TIP3    H141623   5.852   2.499  16.287 -0.2825  0.0062  1.4867
 6736TIP3    H241624   6.000   2.525  16.266 -0.4638 -0.3441 -0.3098
 6737TIP3   OH241625   3.865   3.248   4.235  0.3312  0.4355 -0.0964
 6737TIP3    H141626   3.888   3.317   4.297 -0.5939  0.6600  0.0085
 6737TIP3    H241627   3.938   3.245   4.174  0.8044  0.8718  0.4416
 6738TIP3   OH241628   3.573   1.177  12.997  0.1311 -0.2046 -0.2571
 6738TIP3    H141629   3.581   1.172  13.093 -0.7587  2.5507  0.0081
 6738TIP3    H241630   3.658   1.150  12.965  1.3787  1.4797  1.4608
 6739TIP3   OH241631   3.105   3.988   1.277 -0.0400  0.1158  0.2312
 6739TIP3    H141632   3.119   3.990   1.372 -2.4836 -1.9912  0.6772
 6739TIP3    H241633   3.139   3.902   1.250 -0.6828  0.1137 -0.5870
 6740TIP3   OH241634   3.605   2.059  14.029 -0.2717  0.1919 -0.3474
 6740TIP3    H141635   3.666   2.001  13.984 -0.6013 -0.0709 -0.4528
 6740TIP3    H241636   3.656   2.139  14.044 -0.5302  0.7471 -2.2949
 6741TIP3   OH241637   5.736   2.339  11.772  0.2305 -0.3866 -0.0212
 6741TIP3    H141638   5.650   2.376  11.751  1.0033  1.0656 -0.7372
 6741TIP3    H241639   5.762   2.292  11.693  0.0555 -0.9070  0.2296
 6742TIP3   OH241640   5.766   5.215  10.870 -0.1144  0.2251 -0.5785
 6742TIP3    H141641   5.832   5.284  10.858  0.0998  0.0285 -0.5195
 6742TIP3    H241642   5.697   5.238  10.807  0.7876 -0.5271 -1.8600
 6743TIP3   OH241643   2.871   4.819  12.290  0.2544 -0.0752 -0.5349
 6743TIP3    H141644   2.883   4.810  12.195  1.5672  0.2520 -0.3970
 6743TIP3    H241645   2.778   4.797  12.304  0.3495 -1.3337 -1.7409
 6744TIP3   OH241646   5.817   1.249   3.360 -0.1256  0.2323  0.0948
 6744TIP3    H141647   5.733   1.223   3.322 -0.7945  2.4624 -0.0733
 6744TIP3    H241648   5.876   1.255   3.285 -0.0734 -0.3831  0.0852
 6745TIP3   OH241649   5.079   5.244   3.642  0.2116  0.2850 -0.4564
 6745TIP3    H141650   5.055   5.224   3.732  0.5265 -0.2102 -0.4823
 6745TIP3    H241651   5.083   5.159   3.599  2.0154  0.3728 -0.4679
 6746TIP3   OH241652   2.621   0.191  13.526 -0.1212 -0.7052 -0.4985
 6746TIP3    H141653   2.590   0.100  13.529  1.7233 -1.4694 -2.9049
 6746TIP3    H241654   2.557   0.237  13.472 -0.1958 -0.9614 -0.6290
 6747TIP3   OH241655   5.869   4.808  16.103 -0.0171  0.1982 -0.5965
 6747TIP3    H141656   5.818   4.734  16.070 -1.1571  0.5385  0.4004
 6747TIP3    H241657   5.805   4.873  16.130  0.9017  0.3382  1.3520
 6748TIP3   OH241658   5.885   5.016  14.708  0.2027 -0.0318  0.0634
 6748TIP3    H141659   5.804   5.062  14.686  1.1987  1.4445 -0.6130
 6748TIP3    H241660   5.875   4.930  14.669  0.2608  1.1979 -2.7639
 6749TIP3   OH241661   1.898   3.925   3.375 -0.2055 -0.5943  0.3023
 6749TIP3    H141662   1.911   3.860   3.444  0.1795 -2.5496 -1.5428
 6749TIP3    H241663   1.819   3.895   3.329 -0.4209  0.6397 -0.1475
 6750TIP3   OH241664   2.906   5.472  14.223 -0.4161  0.8670 -0.0900
 6750TIP3    H141665   2.881   5.384  14.252  1.1954  0.0582 -1.0561
 6750TIP3    H241666   2.864   5.483  14.139 -0.6199  1.0188  0.0322
 6751TIP3   OH241667   2.219   0.780  10.665  0.5682  0.0530  0.1387
 6751TIP3    H141668   2.263   0.709  10.711  3.1760 -0.8136 -3.4718
 6751TIP3    H241669   2.131   0.747  10.647  1.0686 -1.4118  0.3558
 6752TIP3   OH241670   1.603   1.573   6.319 -0.6350  0.3468 -0.2825
 6752TIP3    H141671   1.670   1.506   6.306 -1.0667 -0.0809 -0.3358
 6752TIP3    H241672   1.523   1.534   6.282 -0.9033  0.8616 -0.2468
 6753TIP3   OH241673   2.260   1.253   5.180  0.2080  0.1691 -0.1994
 6753TIP3    H141674   2.169   1.268   5.203  0.4514  1.7440 -0.2285
 6753TIP3    H241675   2.263   1.265   5.085  0.8065  2.1558  0.0417
 6754TIP3   OH241676   1.135   5.754   0.998 -0.0683  0.4025  0.5416
 6754TIP3    H141677   1.098   5.744   0.910  0.2937 -0.2650  0.4599
 6754TIP3    H241678   1.118   5.669   1.041 -1.0622  1.0308  1.4266
 6755TIP3   OH241679   5.713   4.663   6.088  0.8194  0.1744 -0.2625
 6755TIP3    H141680   5.696   4.648   6.181  1.1741 -2.0291 -0.5256
 6755TIP3    H241681   5.800   4.627   6.074  0.7096  0.3653 -1.4729
 6756TIP3   OH241682   1.320   1.896   2.608 -0.1074  0.0309  0.1238
 6756TIP3    H141683   1.288   1.971   2.659 -3.6032 -2.4213  1.7906
 6756TIP3    H241684   1.318   1.823   2.670 -3.3782 -2.8123 -3.0819
 6757TIP3   OH241685   2.567   2.078   1.785 -0.1554  0.0899  0.1054
 6757TIP3    H141686   2.520   2.053   1.864  1.0435 -0.2019  0.7360
 6757TIP3    H241687   2.648   2.119   1.817  0.5936 -0.5282 -0.9585
 6758TIP3   OH241688   4.139   4.111   2.050 -0.8433  0.5954 -0.0851
 6758TIP3    H141689   4.134   4.206   2.064  0.4933  0.6991 -0.2283
 6758TIP3    H241690   4.228   4.088   2.076 -0.4122 -0.2604 -2.1935
 6759TIP3   OH241691   4.864   6.094  12.459  0.4346 -0.2195 -0.0231
 6759TIP3    H141692   4.850   6.141  12.377 -0.9657 -0.7643 -0.1043
 6759TIP3    H241693   4.930   6.028  12.437  0.8937  0.3632 -0.4210
 6760TIP3   OH241694   3.033   1.517  17.090 -0.3476 -0.4866 -0.0995
 6760TIP3    H141695   3.059   1.433  17.129 -0.4504 -1.5212 -2.2202
 6760TIP3    H241696   2.952   1.498  17.043 -0.7453  0.9622 -0.0136
 6761TIP3   OH241697   2.902   0.586   2.826 -0.6160  0.5734  0.1863
 6761TIP3    H141698   2.821   0.614   2.784 -0.9526 -0.3176  0.2108
 6761TIP3    H241699   2.971   0.621   2.771 -1.0466 -0.9690 -1.4140
 6762TIP3   OH241700   4.627   6.175  15.516  0.3116  0.5641  0.1452
 6762TIP3    H141701   4.544   6.132  15.536  0.4494  0.4751  0.5158
 6762TIP3    H241702   4.694   6.112  15.543  0.5152  1.0274  0.7305
 6763TIP3   OH241703   0.824   4.611   3.533  0.7705 -0.0182  0.1470
 6763TIP3    H141704   0.914   4.595   3.560  0.7771  1.2010  0.8414
 6763TIP3    H241705   0.773   4.608   3.614  0.3424  0.3912 -0.1029
 6764TIP3   OH241706   3.023   4.170   5.678  0.6453  0.1533 -0.2654
 6764TIP3    H141707   2.998   4.077   5.669  0.1002 -0.0477  2.8805
 6764TIP3    H241708   2.976   4.213   5.607 -1.9048 -1.5163  0.3157
 6765TIP3   OH241709   0.147   2.929  14.566 -0.1488 -0.0201 -0.3536
 6765TIP3    H141710   0.117   2.855  14.514  0.9153 -0.6474 -0.1000
 6765TIP3    H241711   0.209   2.974  14.509 -0.0163  0.0812 -0.1271
 6766TIP3   OH241712   5.594   2.018   6.703 -0.6181  0.7069  0.5829
 6766TIP3    H141713   5.565   1.954   6.769 -1.0827 -0.3839 -0.6436
 6766TIP3    H241714   5.682   2.042   6.730 -0.7784  0.2160  1.5700
 6767TIP3   OH241715   2.128   4.766  11.980  0.1589  0.2576 -0.2295
 6767TIP3    H141716   2.130   4.733  11.891 -2.9419 -0.1079 -0.2059
 6767TIP3    H241717   2.215   4.804  11.993  0.1825  1.6946 -3.9088
 6768TIP3   OH241718   1.656   3.757  13.479 -0.8068  0.0044  0.0635
 6768TIP3    H141719   1.731   3.780  13.424 -0.2229  0.6616  1.1428
 6768TIP3    H241720   1.624   3.840  13.512 -0.1981 -0.5058  1.9829
 6769TIP3   OH241721   4.874   1.702   4.632 -0.0694  0.3748 -0.2849
 6769TIP3    H141722   4.794   1.723   4.680 -0.7003  0.1275 -1.2350
 6769TIP3    H241723   4.885   1.608   4.643  1.0864  0.6797  1.3692
 6770TIP3   OH241724   1.927   4.902  16.805  0.2545  0.3283 -0.3794
 6770TIP3    H141725   1.999   4.932  16.749  0.1015 -0.0750 -0.7961
 6770TIP3    H241726   1.868   4.856  16.745 -0.5711  1.0377 -0.1199
 6771TIP3   OH241727   5.960   1.247  10.794 -0.6642 -1.0976  0.2925
 6771TIP3    H141728   5.916   1.298  10.726 -0.1389 -1.2260 -0.1596
 6771TIP3    H241729   5.892   1.224  10.856 -1.5108 -2.4612 -1.1081
 6772TIP3   OH241730   1.864   2.306   2.483 -0.1424 -0.2815  0.1651
 6772TIP3    H141731   1.832   2.393   2.508 -0.3726  0.8911 -3.8308
 6772TIP3    H241732   1.959   2.312   2.490 -0.0543  0.9041 -1.7824
 6773TIP3   OH241733   1.023   0.091   1.950 -0.6142  1.1576  0.0159
 6773TIP3    H141734   0.996   0.091   1.858 -1.3275 -1.2749  0.1947
 6773TIP3    H241735   1.054   0.002   1.966  1.6777  2.1737  1.5360
 6774TIP3   OH241736   5.892   4.918   3.061 -0.0598  0.4882  0.3003
 6774TIP3    H141737   5.803   4.904   3.094  0.3979 -0.2477  1.2042
 6774TIP3    H241738   5.884   4.996   3.006 -1.9195 -1.3289 -2.1333
 6775TIP3   OH241739   6.772   0.026  11.461 -0.4092  0.6063  0.3402
 6775TIP3    H141740   6.856   0.005  11.419 -0.9116  0.6172 -0.6869
 6775TIP3    H241741   6.796   0.056  11.548  0.4486 -2.2798  1.1468
 6776TIP3   OH241742   3.775   4.648   3.077 -0.5711  0.2002  0.5425
 6776TIP3    H141743   3.682   4.666   3.087 -0.7203 -0.6000  0.6025
 6776TIP3    H241744   3.815   4.685   3.155 -0.9968 -0.5905  1.1407
 6777TIP3   OH241745   5.146   1.335  13.884  0.1719  0.0771 -0.0989
 6777TIP3    H141746   5.109   1.292  13.961  1.5766 -2.4320 -0.7602
 6777TIP3    H241747   5.200   1.406  13.919 -0.9377  0.3395  1.1035
 6778TIP3   OH241748   1.220   6.256   5.021  0.1621  0.0971 -0.0709
 6778TIP3    H141749   1.286   6.313   5.060 -1.8730  2.2632  0.3403
 6778TIP3    H241750   1.222   6.278   4.928 -0.6226  0.8390  0.0876
 6779TIP3   OH241751   2.218   1.534   4.053 -0.3077 -0.0387  0.5015
 6779TIP3    H141752   2.181   1.526   3.965  1.5906  1.2395 -0.4301
 6779TIP3    H241753   2.280   1.461   4.059  0.3666  0.5276  0.3796
 6780TIP3   OH241754   1.164   1.170  12.193 -0.6903 -0.3341  0.3303
 6780TIP3    H141755   1.092   1.232  12.182 -0.6936 -0.4817 -0.5109
 6780TIP3    H241756   1.213   1.204  12.268 -0.2188  1.1410 -0.6241
 6781TIP3   OH241757   0.191   0.029   1.062 -0.7849  0.0612  0.2452
 6781TIP3    H141758   0.158   0.111   1.099  0.4400  2.2197 -3.2119
 6781TIP3    H241759   0.283   0.026   1.088 -0.3721  0.7141 -1.0851
 6782TIP3   OH241760   1.121   3.066  16.066 -0.6224 -0.4584 -0.0475
 6782TIP3    H141761   1.163   3.076  15.981  1.0152 -0.0698  0.7780
 6782TIP3    H241762   1.172   3.123  16.124 -0.4602 -2.2620  1.6030
 6783TIP3   OH241763   0.483   3.958  13.926  0.4074 -0.2366 -0.3586
 6783TIP3    H141764   0.421   3.885  13.923 -0.8896  0.7101  2.1657
 6783TIP3    H241765   0.479   3.997  13.839 -1.6621 -0.8866 -0.5739
 6784TIP3   OH241766   5.390   4.468  11.602 -0.0993 -0.3707 -0.0444
 6784TIP3    H141767   5.472   4.429  11.632  0.3570  1.2098  0.8041
 6784TIP3    H241768   5.393   4.461  11.506  2.2074  1.9409 -0.1954
 6785TIP3   OH241769   0.609   0.536  13.972  0.1635  0.1050 -0.5650
 6785TIP3    H141770   0.622   0.441  13.975  0.1393  0.1106 -0.3332
 6785TIP3    H241771   0.548   0.550  13.899 -0.2212 -0.0949 -0.2791
 6786TIP3   OH241772   3.621   0.413   3.762 -0.1733  1.0881 -0.4551
 6786TIP3    H141773   3.545   0.469   3.748 -0.8773 -0.3941 -2.6738
 6786TIP3    H241774   3.659   0.400   3.675  1.6928  0.4777  0.4110
 6787TIP3   OH241775   5.166   2.450   1.712 -0.5903 -0.1226 -0.2714
 6787TIP3    H141776   5.089   2.420   1.664 -0.2831  0.3986 -1.0871
 6787TIP3    H241777   5.223   2.489   1.646  0.6706 -1.0799  0.2285
 6788TIP3   OH241778   6.068   2.793   1.108 -0.0227  0.5587  0.3667
 6788TIP3    H141779   6.011   2.736   1.160  1.9661 -1.2754  0.6176
 6788TIP3    H241780   6.142   2.811   1.166  1.7988 -0.7937 -1.4708
 6789TIP3   OH241781   6.143   1.740   1.868  0.0504 -0.4958  0.0712
 6789TIP3    H141782   6.109   1.822   1.834 -2.0989 -1.0058  0.9181
 6789TIP3    H241783   6.190   1.764   1.948  2.0912  0.2540 -1.3031
 6790TIP3   OH241784   4.440   5.670  14.480  0.6348 -0.8343  0.5993
 6790TIP3    H141785   4.474   5.635  14.397 -0.3801 -0.0030 -0.1803
 6790TIP3    H241786   4.489   5.750  14.495  0.0969 -0.4349  0.2548
 6791TIP3   OH241787   1.583   3.418  14.733  0.8396 -0.4199 -0.0402
 6791TIP3    H141788   1.493   3.389  14.752  1.0642 -0.7685  0.5108
 6791TIP3    H241789   1.577   3.459  14.647  0.3268 -1.2769 -0.4264
 6792TIP3   OH241790   1.432   0.888   2.775  0.4407 -0.1249 -0.2455
 6792TIP3    H141791   1.400   0.841   2.851  0.0848  0.0547 -0.2839
 6792TIP3    H241792   1.500   0.947   2.809  0.3233 -0.0869 -0.0785
 6793TIP3   OH241793   0.978   4.580  13.032  0.1051 -0.0717  0.1635
 6793TIP3    H141794   1.014   4.658  13.075 -1.1990  0.0326  1.0834
 6793TIP3    H241795   1.051   4.518  13.029  0.8601  0.8003  0.3689
 6794TIP3   OH241796   2.700   1.591  11.945 -0.1961 -0.0581 -0.2349
 6794TIP3    H141797   2.625   1.642  11.977 -0.2769  0.4703 -1.2377
 6794TIP3    H241798   2.747   1.565  12.024  0.3803  2.4184  0.2795
 6795TIP3   OH241799   4.277   1.678  13.199  0.3005 -0.5132 -0.2450
 6795TIP3    H141800   4.283   1.693  13.293  1.1693  0.1985 -0.4111
 6795TIP3    H241801   4.281   1.765  13.160  2.2262 -0.9374 -1.0461
 6796TIP3   OH241802   2.547   1.422   0.036 -0.3193 -0.2897  0.0694
 6796TIP3    H141803   2.578   1.344   0.081 -0.3017 -0.6764 -0.6087
 6796TIP3    H241804   2.542   1.396  -0.056 -1.5757  0.0937  0.0142
 6797TIP3   OH241805   3.576   5.352   3.325 -0.0247 -0.2717  0.2448
 6797TIP3    H141806   3.631   5.333   3.402  0.8677  1.6441  0.1108
 6797TIP3    H241807   3.513   5.417   3.356 -1.5155 -1.6089  0.0861
 6798TIP3   OH241808   4.250   2.127  16.181  0.1359  0.7066 -0.2050
 6798TIP3    H141809   4.332   2.091  16.213  0.1725  0.7612 -0.2352
 6798TIP3    H241810   4.198   2.143  16.260  0.9956  2.7443 -0.0275
 6799TIP3   OH241811   2.699   0.047   6.324 -0.6074 -0.2163 -0.0335
 6799TIP3    H141812   2.629   0.112   6.308  1.1189  1.8189  0.4131
 6799TIP3    H241813   2.688   0.023   6.415 -0.5006  0.4103  0.1513
 6800TIP3   OH241814   5.125   5.268   5.238  0.1631 -0.5626  0.1186
 6800TIP3    H141815   5.038   5.258   5.277  0.8931 -1.0330  1.6721
 6800TIP3    H241816   5.183   5.282   5.312  1.8709 -3.2971 -0.6184
 6801TIP3   OH241817   2.666   2.726   0.899 -0.1519  0.7916  0.5713
 6801TIP3    H141818   2.650   2.632   0.900 -0.8870  0.9237  1.2221
 6801TIP3    H241819   2.668   2.749   0.806  0.6603  0.0297  0.3910
 6802TIP3   OH241820   1.239   2.471  11.657 -0.1643  0.0551 -0.0354
 6802TIP3    H141821   1.320   2.427  11.633 -0.4117  0.4816 -1.7471
 6802TIP3    H241822   1.187   2.403  11.700  0.9586 -0.3043  0.7708
 6803TIP3   OH241823   6.458   2.732  17.000 -0.0461 -0.1865  0.0426
 6803TIP3    H141824   6.518   2.663  16.971 -0.0455 -0.3382  0.3965
 6803TIP3    H241825   6.493   2.761  17.084 -0.8120 -0.7073  0.5514
 6804TIP3   OH241826   0.831   0.101   2.863  0.2070 -0.2374 -0.1391
 6804TIP3    H141827   0.893   0.173   2.869 -0.5463  0.4476 -0.5216
 6804TIP3    H241828   0.827   0.065   2.951  2.0462 -1.0518 -0.3518
 6805TIP3   OH241829   3.998   3.852  16.447 -0.4031  0.5259 -0.8338
 6805TIP3    H141830   4.012   3.831  16.354  0.4483  0.1105 -0.6193
 6805TIP3    H241831   4.068   3.806  16.492 -0.2674  1.4666 -0.0671
 6806TIP3   OH241832   5.981   1.780  12.643  0.6366 -0.1973 -0.3254
 6806TIP3    H141833   5.956   1.744  12.558 -0.0253 -1.1167  0.2597
 6806TIP3    H241834   5.907   1.836  12.668  0.6850 -0.1876 -0.2018
 6807TIP3   OH241835   3.356   3.126  12.063  0.2605 -0.1437 -0.3687
 6807TIP3    H141836   3.436   3.177  12.051  0.8451 -0.4833  1.8336
 6807TIP3    H241837   3.295   3.161  11.999  2.5010 -0.5903 -2.8626
 6808TIP3   OH241838   3.752   1.290  10.867  0.2469 -0.1579 -0.0045
 6808TIP3    H141839   3.835   1.256  10.901  0.3397  0.4707  0.4065
 6808TIP3    H241840   3.711   1.215  10.825  0.8328 -0.5767  0.1656
 6809TIP3   OH241841   5.947   4.773  11.480 -0.0660  0.5949  0.1354
 6809TIP3    H141842   5.988   4.778  11.393  0.3354  1.2069  0.3562
 6809TIP3    H241843   6.019   4.751  11.539 -0.2282  0.7673  0.3959
 6810TIP3   OH241844   2.212   2.663   3.755  0.4529  0.2625 -0.1941
 6810TIP3    H141845   2.149   2.592   3.767  1.6899 -1.1806 -1.9422
 6810TIP3    H241846   2.200   2.690   3.664  1.2638  1.0679 -0.0659
 6811TIP3   OH241847   2.539   3.871   4.795 -0.4955 -0.2165 -0.0214
 6811TIP3    H141848   2.634   3.876   4.787 -0.3447 -0.9182  1.2181
 6811TIP3    H241849   2.524   3.834   4.882 -1.9407  1.9044  0.6670
 6812TIP3   OH241850   1.697   4.900  13.268 -0.9850 -0.7556  0.1976
 6812TIP3    H141851   1.639   4.827  13.289 -0.7956 -0.8132  0.5187
 6812TIP3    H241852   1.769   4.893  13.331 -0.3341 -1.0223 -0.5627
 6813TIP3   OH241853   3.847   2.718  13.136 -0.2433 -0.2062  0.0685
 6813TIP3    H141854   3.767   2.698  13.089  0.6395  2.2727 -2.6184
 6813TIP3    H241855   3.822   2.785  13.200 -0.3604  0.3697 -0.5839
 6814TIP3   OH241856   5.918   0.752  15.957  0.0317 -0.1058  0.0479
 6814TIP3    H141857   6.001   0.794  15.933  0.0327 -0.4666 -0.5943
 6814TIP3    H241858   5.920   0.668  15.910 -1.8293  0.9606 -2.0257
 6815TIP3   OH241859   6.247   1.360   4.514  0.3405  0.3174  0.6310
 6815TIP3    H141860   6.247   1.453   4.492 -0.9068 -0.0282 -0.9198
 6815TIP3    H241861   6.324   1.325   4.468  0.7126  0.5393  1.0769
 6816TIP3   OH241862   2.407   2.466  13.086  0.4226 -0.3618 -0.1809
 6816TIP3    H141863   2.465   2.405  13.040  0.1608 -0.4702 -0.3715
 6816TIP3    H241864   2.409   2.438  13.177  1.6386  0.3949  0.0353
 6817TIP3   OH241865   6.294   0.612   1.908  0.2144 -0.2202  0.3608
 6817TIP3    H141866   6.240   0.606   1.830  0.2244  0.3550  0.3060
 6817TIP3    H241867   6.234   0.597   1.981 -0.0006  0.3263  0.2956
 6818TIP3   OH241868   1.845   1.470   3.241 -0.7619 -0.0520 -0.4418
 6818TIP3    H141869   1.776   1.536   3.245 -0.2224  0.4815  0.1565
 6818TIP3    H241870   1.905   1.503   3.174 -0.7897 -0.2248 -0.5513
 6819TIP3   OH241871   0.687   5.247   3.421  0.0678  0.6777  0.0739
 6819TIP3    H141872   0.687   5.315   3.355  0.4176  0.1285 -0.5014
 6819TIP3    H241873   0.672   5.166   3.373  0.0037  0.3060  0.7035
 6820TIP3   OH241874   0.255   2.209   5.144  0.4064  0.2536  0.3029
 6820TIP3    H141875   0.295   2.188   5.228  1.3753 -4.1477 -1.1229
 6820TIP3    H241876   0.170   2.166   5.146  1.1837 -1.4548 -1.6229
 6821TIP3   OH241877   4.936   0.652  11.948 -0.2080 -0.1047  0.3551
 6821TIP3    H141878   4.914   0.700  11.868  2.1731  3.0155  1.4715
 6821TIP3    H241879   5.000   0.707  11.992  1.3075 -3.5209  2.6424
 6822TIP3   OH241880   4.498   1.433   5.852  0.1873  0.0947 -0.1876
 6822TIP3    H141881   4.586   1.446   5.889  0.0646  0.5765 -0.0650
 6822TIP3    H241882   4.444   1.499   5.896  0.4752  2.1706 -2.8114
 6823TIP3   OH241883   5.205   0.015   4.693  0.0276 -0.0684 -0.2115
 6823TIP3    H141884   5.206  -0.081   4.691 -1.2220 -0.0837 -0.8827
 6823TIP3    H241885   5.123   0.036   4.738 -0.5466  0.6843 -1.5912
 6824TIP3   OH241886   4.987   6.573  13.132 -0.4668  0.0219 -0.0534
 6824TIP3    H141887   4.919   6.536  13.075 -0.0910 -0.2962 -0.2981
 6824TIP3    H241888   4.958   6.551  13.221 -0.3206 -0.7436 -0.1890
 6825TIP3   OH241889   3.170   1.050   1.077 -0.1363  0.6325  0.1717
 6825TIP3    H141890   3.085   1.087   1.053  0.3469  1.4707 -0.2579
 6825TIP3    H241891   3.206   1.110   1.141  0.2044  0.3558  0.2443
 6826TIP3   OH241892   5.708   1.142  10.639  0.1259  0.4474  0.1038
 6826TIP3    H141893   5.678   1.231  10.659  1.9626  0.5740  2.6780
 6826TIP3    H241894   5.656   1.086  10.696  1.0888  0.1958  0.7537
 6827TIP3   OH241895   2.102   1.329  15.566  0.3697 -0.3581  0.2282
 6827TIP3    H141896   2.181   1.365  15.525  1.1723 -1.3675  0.8475
 6827TIP3    H241897   2.120   1.235  15.575 -0.8202 -0.5670  0.5717
 6828TIP3   OH241898   3.308   1.007  10.266 -0.1255  0.1408  0.1284
 6828TIP3    H141899   3.396   1.043  10.255  0.0210 -0.4133 -0.6241
 6828TIP3    H241900   3.285   1.025  10.357 -0.3447  2.7022 -0.4152
 6829TIP3   OH241901   1.235   6.030   4.767 -0.2063 -0.6559 -0.0579
 6829TIP3    H141902   1.302   5.998   4.706 -0.6664  1.9646 -2.0442
 6829TIP3    H241903   1.285   6.068   4.839  0.4138 -1.1100 -0.2428
 6830TIP3   OH241904   3.644   1.209   6.070  0.0386  0.5749 -0.5501
 6830TIP3    H141905   3.596   1.225   6.151 -0.6801 -2.7000 -0.2630
 6830TIP3    H241906   3.634   1.290   6.019 -1.5670  1.7512  1.5661
 6831TIP3   OH241907   2.275   5.713   0.216 -0.0688  0.3161 -0.2072
 6831TIP3    H141908   2.227   5.796   0.224  0.6479  0.5339  1.9874
 6831TIP3    H241909   2.271   5.693   0.122 -1.9109  1.8319 -0.4996
 6832TIP3   OH241910   1.838   6.451  15.320 -0.3761 -0.5580 -0.3722
 6832TIP3    H141911   1.866   6.417  15.404  0.4463  1.7939  0.3449
 6832TIP3    H241912   1.900   6.521  15.300 -1.4848 -0.0479 -2.2029
 6833TIP3   OH241913   2.828   4.858   6.269  0.3371 -0.1418 -0.4174
 6833TIP3    H141914   2.751   4.801   6.274 -0.6465  1.0942 -0.9750
 6833TIP3    H241915   2.873   4.846   6.352  0.8867 -2.7336 -1.0664
 6834TIP3   OH241916   4.358   6.492   4.905  1.0954 -0.6554 -0.3131
 6834TIP3    H141917   4.300   6.546   4.959  0.2773 -0.4802 -1.3610
 6834TIP3    H241918   4.431   6.471   4.963  0.0118 -0.8509  1.0109
 6835TIP3   OH241919   0.812   0.681   0.230 -0.4874  0.4292 -0.0662
 6835TIP3    H141920   0.841   0.675   0.139  0.2457 -3.7526  0.3768
 6835TIP3    H241921   0.717   0.692   0.224 -0.3397  1.1649 -1.3306
 6836TIP3   OH241922   2.924   0.898  11.708 -0.5142  0.2089  0.4773
 6836TIP3    H141923   3.009   0.854  11.715  0.0257  0.9114 -1.3657
 6836TIP3    H241924   2.861   0.826  11.701  0.1496 -0.3129 -0.2775
 6837TIP3   OH241925   4.587   3.081   1.587 -0.4345 -0.2412 -0.3971
 6837TIP3    H141926   4.540   3.144   1.532  0.5894  1.1758  0.3295
 6837TIP3    H241927   4.540   3.082   1.670 -0.4144 -0.4334 -0.3836
 6838TIP3   OH241928   1.349   2.254  13.216 -0.3947 -0.3545  0.2570
 6838TIP3    H141929   1.401   2.235  13.138  1.2809  0.3635  1.1686
 6838TIP3    H241930   1.364   2.178  13.273  1.9574  1.1015  1.6699
 6839TIP3   OH241931   6.746   1.265  12.699 -0.1899 -0.7719 -0.0086
 6839TIP3    H141932   6.833   1.265  12.739  0.5249  0.4806 -1.5100
 6839TIP3    H241933   6.761   1.294  12.609 -2.2424 -0.0045 -0.1273
 6840TIP3   OH241934   6.228   5.368  14.896 -0.4940  0.1089 -0.4995
 6840TIP3    H141935   6.208   5.356  14.989 -1.1828 -0.0753 -0.6694
 6840TIP3    H241936   6.193   5.290  14.853 -0.2535  0.2330 -0.9263
 6841TIP3   OH241937   4.292   4.500   6.265 -0.6985 -0.1908  0.1447
 6841TIP3    H141938   4.238   4.578   6.255 -0.6494 -0.1837 -0.0895
 6841TIP3    H241939   4.331   4.508   6.352  2.0500  1.8219 -1.1833
 6842TIP3   OH241940   3.111   3.570  11.190  0.3796  0.0858  0.6938
 6842TIP3    H141941   3.028   3.616  11.202  0.2380 -0.3169  1.2342
 6842TIP3    H241942   3.087   3.481  11.166  0.6591  0.1501  0.1491
 6843TIP3   OH241943   3.720   4.028  16.778  0.6134  0.1718 -0.0308
 6843TIP3    H141944   3.785   4.035  16.708 -0.5550 -0.0140 -1.1627
 6843TIP3    H241945   3.636   4.042  16.734 -0.1243  0.3533  1.3942
 6844TIP3   OH241946   2.368   4.591  13.780  0.0125 -0.3017  0.3820
 6844TIP3    H141947   2.414   4.657  13.729 -0.1109 -0.7948 -0.3809
 6844TIP3    H241948   2.371   4.512  13.725 -3.1955  0.0853 -0.4306
 6845TIP3   OH241949   4.009   2.974   5.119  0.4427  0.1496 -0.3631
 6845TIP3    H141950   3.961   2.893   5.136 -0.8052  0.9978  0.2468
 6845TIP3    H241951   4.095   2.959   5.157  0.0039 -0.6385  0.3410
 6846TIP3   OH241952   5.361   5.280   6.542  0.0962  0.1672  0.2296
 6846TIP3    H141953   5.337   5.255   6.452 -0.6504 -0.1758  0.5183
 6846TIP3    H241954   5.283   5.321   6.577  1.2594  2.8484 -0.1765
 6847TIP3   OH241955   4.878   2.356   6.095 -0.4204  0.2610 -0.1734
 6847TIP3    H141956   4.851   2.444   6.123  0.0680  0.1566  0.6103
 6847TIP3    H241957   4.956   2.337   6.147  0.5703  0.1182 -1.6865
 6848TIP3   OH241958   4.796   4.740   0.216 -0.5283  0.3884  0.4047
 6848TIP3    H141959   4.763   4.750   0.127  2.5624 -3.5050 -1.3179
 6848TIP3    H241960   4.741   4.671   0.254  0.9539 -1.0466 -0.0242
 6849TIP3   OH241961   4.624   4.117   6.051 -0.0872  0.1656  0.4684
 6849TIP3    H141962   4.653   4.148   6.137 -2.2953  0.6932  1.0599
 6849TIP3    H241963   4.629   4.194   5.995 -1.3544  0.5211  0.8375
 6850TIP3   OH241964   3.627   5.802  11.723 -0.3316  0.3181 -0.0960
 6850TIP3    H141965   3.565   5.873  11.708 -1.2368 -0.1293  1.4649
 6850TIP3    H241966   3.611   5.774  11.813  1.1585 -0.7589 -0.1428
 6851TIP3   OH241967   5.539   3.712   4.946  0.2051  0.1062  0.2944
 6851TIP3    H141968   5.593   3.665   5.010  0.4043  0.4963  0.4155
 6851TIP3    H241969   5.532   3.653   4.872  3.3390  1.2407 -0.9818
 6852TIP3   OH241970   0.605   6.776   0.828 -0.4932 -0.1710 -0.1958
 6852TIP3    H141971   0.678   6.741   0.778 -0.1540 -0.7143  0.6579
 6852TIP3    H241972   0.534   6.713   0.813  0.2466 -1.5046  1.6858
 6853TIP3   OH241973   3.493   4.063  11.447  0.1393  0.4632  0.1212
 6853TIP3    H141974   3.528   4.133  11.392 -1.1847  1.5136  0.5792
 6853TIP3    H241975   3.528   3.982  11.409  1.2263  1.3392 -0.7565
 6854TIP3   OH241976   2.310   4.990   4.048 -0.1535 -0.1149  0.0515
 6854TIP3    H141977   2.358   5.051   3.992 -1.9847  0.3930 -1.0001
 6854TIP3    H241978   2.306   4.909   3.998 -0.1572 -0.2333  0.2435
 6855TIP3   OH241979   5.679   2.540   0.086 -0.5311 -0.3886  0.0928
 6855TIP3    H141980   5.766   2.512   0.114 -0.6005 -0.7321 -0.0236
 6855TIP3    H241981   5.622   2.522   0.161 -0.0994  2.0390  1.0349
 6856TIP3   OH241982   6.730   3.609  15.873  0.6659 -0.1538 -0.0685
 6856TIP3    H141983   6.753   3.698  15.900  0.1362  0.3270 -1.1741
 6856TIP3    H241984   6.776   3.552  15.935  2.9540  0.8257 -0.8345
 6857TIP3   OH241985   2.083   1.687  12.785 -0.6782  0.3443  0.3991
 6857TIP3    H141986   2.094   1.625  12.857  0.4669  1.0952  0.8786
 6857TIP3    H241987   1.989   1.708  12.785 -0.7343  0.1156  1.4882
 6858TIP3   OH241988   5.624   2.612   2.391 -0.2555 -0.3941 -0.2776
 6858TIP3    H141989   5.579   2.529   2.376 -0.4501 -0.4123  0.3853
 6858TIP3    H241990   5.608   2.663   2.311 -2.4901  0.0620  0.4138
 6859TIP3   OH241991   2.262   0.257  11.758 -0.1583 -0.4663 -0.0499
 6859TIP3    H141992   2.309   0.204  11.822 -0.9009  0.5756  1.3957
 6859TIP3    H241993   2.268   0.347  11.793 -0.5554  0.1191 -1.4600
 6860TIP3   OH241994   0.686   6.631   5.174  0.0168  0.2364 -0.3159
 6860TIP3    H141995   0.682   6.549   5.223  0.0409  0.1641 -0.4349
 6860TIP3    H241996   0.731   6.692   5.232 -0.6922  0.3830  0.0834
 6861TIP3   OH241997   0.348   5.640   5.573 -0.4205  1.0878 -0.5998
 6861TIP3    H141998   0.421   5.702   5.569 -1.2770  2.1035 -0.4131
 6861TIP3    H241999   0.271   5.690   5.549 -1.0473 -0.0349 -0.9934
 6862TIP3   OH242000   0.620   1.388   3.740  0.3428  0.3100 -0.5288
 6862TIP3    H142001   0.668   1.350   3.666 -2.0187 -1.2166 -1.3355
 6862TIP3    H242002   0.601   1.313   3.797  1.4585  1.3536  1.2835
 6863TIP3   OH242003   3.556   4.184   1.121  0.5841 -0.0319  0.0742
 6863TIP3    H142004   3.607   4.103   1.130  0.5626 -0.0279  0.2237
 6863TIP3    H242005   3.607   4.237   1.060  0.2250 -0.4613 -0.6017
 6864TIP3   OH242006   2.176   2.770   5.973 -0.1249  0.4670  0.0610
 6864TIP3    H142007   2.124   2.699   5.936  0.3962 -0.1941  0.5723
 6864TIP3    H242008   2.146   2.777   6.064  0.3949  0.3531  0.2428
 6865TIP3   OH242009   5.361   4.385  12.757 -0.1167 -0.1168 -0.1135
 6865TIP3    H142010   5.389   4.351  12.842 -0.4038 -0.5415 -0.1843
 6865TIP3    H242011   5.267   4.400  12.766  0.0236  0.7602 -0.0567
 6866TIP3   OH242012   4.487   2.293   2.094 -1.1462  0.6111 -0.6370
 6866TIP3    H142013   4.541   2.304   2.016 -0.1797  1.6585  0.1722
 6866TIP3    H242014   4.435   2.373   2.098 -2.8021 -0.3885 -1.4180
 6867TIP3   OH242015   4.895   2.045  14.685  0.2887 -0.7863  0.0327
 6867TIP3    H142016   4.893   2.077  14.595 -0.3344 -2.1179 -0.4277
 6867TIP3    H242017   4.877   2.123  14.738  0.9558  0.0576 -0.9714
 6868TIP3   OH242018   5.816   6.244   3.547 -0.3031 -0.1493 -0.0117
 6868TIP3    H142019   5.825   6.276   3.457 -0.2310 -2.5410 -0.8873
 6868TIP3    H242020   5.891   6.282   3.594 -0.4870  1.3159 -0.8956
 6869TIP3   OH242021   2.337   3.098   0.795  0.0968  0.5850  0.4629
 6869TIP3    H142022   2.350   3.158   0.721  0.5831  0.6033  0.5658
 6869TIP3    H242023   2.242   3.089   0.801  0.0601  0.4081 -0.3100
 6870TIP3   OH242024   6.075   3.566   5.695 -0.1402  0.6675  0.0971
 6870TIP3    H142025   6.144   3.505   5.672 -0.8225  0.3910 -1.2811
 6870TIP3    H242026   6.088   3.641   5.636 -0.2206  1.1836  0.7258
 6871TIP3   OH242027   3.630   3.569   0.506 -0.0738  0.2039 -0.2198
 6871TIP3    H142028   3.609   3.548   0.597 -0.2190  2.3272  0.2550
 6871TIP3    H242029   3.566   3.519   0.454 -0.5663 -0.3035  0.8707
 6872TIP3   OH242030   4.764   3.660  16.384 -0.2403  0.1148  0.8626
 6872TIP3    H142031   4.788   3.641  16.294  0.4089  0.2655  1.0004
 6872TIP3    H242032   4.679   3.703  16.379  0.0498  0.6140  0.2873
 6873TIP3   OH242033   2.413   1.164  17.229 -0.0505 -0.5055  0.0381
 6873TIP3    H142034   2.419   1.072  17.201  1.2348 -0.7522  1.0591
 6873TIP3    H242035   2.325   1.192  17.204 -0.1754 -1.7874 -0.9879
 6874TIP3   OH242036   1.740   4.158  15.389  0.0015 -0.1835  0.3238
 6874TIP3    H142037   1.797   4.227  15.355  0.6438 -0.2528  1.2345
 6874TIP3    H242038   1.766   4.079  15.343 -1.1746  0.2870 -1.2007
 6875TIP3   OH242039   5.846   0.924   3.102  0.1223  0.2436  0.6137
 6875TIP3    H142040   5.814   1.004   3.059  0.8607  1.5898  2.4624
 6875TIP3    H242041   5.786   0.912   3.176  0.3826 -0.5753  0.6960
 6876TIP3   OH242042   2.078   3.484   0.508  0.3871 -0.1659  0.3054
 6876TIP3    H142043   2.054   3.542   0.435 -3.5660 -0.7738  1.0157
 6876TIP3    H242044   2.079   3.541   0.585  1.1328 -0.1835  0.3138
 6877TIP3   OH242045   4.136   2.152  10.918  0.3233  0.3582 -0.2282
 6877TIP3    H142046   4.203   2.090  10.887  1.3320  0.7709  1.0813
 6877TIP3    H242047   4.185   2.215  10.971 -0.6335  2.4927 -1.8065
 6878TIP3   OH242048   5.192   2.607   3.751 -0.0632 -0.0746  0.0992
 6878TIP3    H142049   5.133   2.678   3.778 -1.7885 -1.9664  1.4979
 6878TIP3    H242050   5.266   2.652   3.711 -1.4525  2.4865  0.2429
 6879TIP3   OH242051   4.878   1.219  10.586  0.1769  0.1772  0.0937
 6879TIP3    H142052   4.909   1.296  10.540  1.5949 -1.2453 -1.3771
 6879TIP3    H242053   4.946   1.154  10.573 -2.1225 -2.1324 -0.8114
 6880TIP3   OH242054   0.456   0.979  12.544 -0.3267 -0.7766 -0.0083
 6880TIP3    H142055   0.375   0.933  12.568 -2.9087  3.3728 -0.2185
 6880TIP3    H242056   0.465   0.962  12.450 -1.9845  0.1275 -0.3606
 6881TIP3   OH242057   3.204   3.796   5.926  0.2746  0.2556  0.6105
 6881TIP3    H142058   3.298   3.792   5.945  0.6396 -0.9392 -1.3311
 6881TIP3    H242059   3.167   3.722   5.975  0.7449 -0.8557 -0.6703
 6882TIP3   OH242060   3.814   3.149   4.745  0.3831  0.2840  0.1268
 6882TIP3    H142061   3.777   3.095   4.675  2.4168  0.0627 -0.8188
 6882TIP3    H242062   3.746   3.151   4.813 -0.8618 -1.0545 -1.0459
 6883TIP3   OH242063   1.943   5.389  13.730  0.5257 -0.1498 -0.0918
 6883TIP3    H142064   1.850   5.411  13.739  0.7367  1.5315 -1.7404
 6883TIP3    H242065   1.943   5.298  13.703 -0.6801  0.0444 -0.8101
 6884TIP3   OH242066   1.075   1.113  11.175 -0.0045  0.0094 -0.0033
 6884TIP3    H142067   1.148   1.073  11.128  0.3440 -1.3311  1.6236
 6884TIP3    H242068   1.116   1.176  11.234 -0.3986  1.3484 -1.1496
 6885TIP3   OH242069   3.584   2.975  14.796  0.1395 -0.0804  0.6269
 6885TIP3    H142070   3.595   2.887  14.761  0.3001 -0.3425  1.3366
 6885TIP3    H242071   3.622   3.032  14.729 -0.6756 -0.4845 -0.1957
 6886TIP3   OH242072   5.967   4.079   2.781  0.7020 -0.2089  0.2173
 6886TIP3    H142073   6.041   4.074   2.720  0.8386  1.3421  0.2434
 6886TIP3    H242074   6.007   4.086   2.868  0.6112  3.5248  0.0322
 6887TIP3   OH242075   3.414   0.214   5.799 -0.9819  0.1655  0.1376
 6887TIP3    H142076   3.392   0.179   5.712 -0.9404 -1.6073  0.8136
 6887TIP3    H242077   3.331   0.216   5.846 -0.8899  0.4390  0.2888
 6888TIP3   OH242078   4.936   1.774  11.562  0.1584 -0.0566  0.0636
 6888TIP3    H142079   4.944   1.693  11.612 -0.5368  0.6727  1.3881
 6888TIP3    H242080   4.886   1.749  11.484  3.0135 -1.6465 -1.3676
 6889TIP3   OH242081   3.954   2.068   1.058 -0.0031  0.6956 -0.5238
 6889TIP3    H142082   3.895   2.003   1.019 -0.2879  0.9286 -0.4837
 6889TIP3    H242083   4.040   2.047   1.021  0.4379 -1.4282  1.5980
 6890TIP3   OH242084   0.997   0.338  10.909  0.0367 -0.3485 -0.7147
 6890TIP3    H142085   1.013   0.323  10.816  0.3627 -1.3937 -0.4897
 6890TIP3    H242086   0.916   0.293  10.928  0.1293 -0.3952 -0.4211
 6891TIP3   OH242087   3.272   5.090  14.220  0.2642  0.0068 -0.8788
 6891TIP3    H142088   3.247   4.999  14.204  1.0758 -0.6521  1.4623
 6891TIP3    H242089   3.197   5.141  14.187 -1.6388 -1.6512  0.7270
 6892TIP3   OH242090   4.822   2.913  10.840 -0.1799 -0.2045  0.2006
 6892TIP3    H142091   4.913   2.941  10.847  0.3418 -1.6625 -0.4374
 6892TIP3    H242092   4.773   2.994  10.828  1.0490  0.5806  0.3129
 6893TIP3   OH242093   1.923   0.890  16.342  0.2436  0.2185  0.4420
 6893TIP3    H142094   1.987   0.823  16.319 -0.4752 -0.0652 -0.7740
 6893TIP3    H242095   1.959   0.932  16.420  1.2850 -0.7787  0.5121
 6894TIP3   OH242096   2.920   1.445   5.584 -0.5753  0.6971  0.0105
 6894TIP3    H142097   2.843   1.497   5.560  0.3820  2.6728  1.1320
 6894TIP3    H242098   2.951   1.484   5.666  1.0331 -0.7188  0.0965
 6895TIP3   OH242099   4.557   2.420   5.664  0.6183 -0.2830  0.3287
 6895TIP3    H142100   4.552   2.509   5.701 -1.3095  0.1035 -0.7513
 6895TIP3    H242101   4.634   2.381   5.704  0.6662  1.3912  1.9348
 6896TIP3   OH242102   2.630   3.319   3.318 -0.0867 -0.4789 -0.2635
 6896TIP3    H142103   2.667   3.304   3.230 -1.3040  3.9684 -1.6535
 6896TIP3    H242104   2.705   3.338   3.373  0.3284  1.4901 -1.4731
 6897TIP3   OH242105   5.095   6.033  13.463 -0.0726 -0.5515  0.2926
 6897TIP3    H142106   5.177   6.027  13.513 -0.5814 -0.9751  1.0938
 6897TIP3    H242107   5.056   5.945  13.470  0.2260 -0.8339 -1.5185
 6898TIP3   OH242108   2.848   1.679  15.474  0.2443 -0.0802  0.0005
 6898TIP3    H142109   2.930   1.633  15.492  0.4876 -0.4145 -1.8643
 6898TIP3    H242110   2.864   1.769  15.502  1.3325 -0.0977 -0.5416
 6899TIP3   OH242111   1.724   2.083  11.310 -0.7038 -0.2391  0.1934
 6899TIP3    H142112   1.742   1.991  11.287  2.4856  0.1434  0.8691
 6899TIP3    H242113   1.752   2.091  11.401 -1.1249  1.3678  0.1936
 6900TIP3   OH242114   6.649   1.622   1.955  0.1664  0.1850  0.6819
 6900TIP3    H142115   6.654   1.527   1.966  0.8420  0.0886 -0.4175
 6900TIP3    H242116   6.734   1.647   1.919  0.0869  1.2420  1.2127
 6901TIP3   OH242117   1.564   3.987  14.574 -0.1556 -0.1024 -0.1454
 6901TIP3    H142118   1.563   4.080  14.598  0.1538 -0.4239  1.1622
 6901TIP3    H242119   1.628   3.980  14.504  0.1598  0.5952  0.0765
 6902TIP3   OH242120   2.317   2.132  13.910 -0.2251  0.1492 -0.3407
 6902TIP3    H142121   2.312   2.084  13.827 -2.3983  2.3097 -1.5559
 6902TIP3    H242122   2.286   2.070  13.976 -1.0285 -0.7919 -1.5646
 6903TIP3   OH242123   5.553   2.583  11.858 -0.0474  0.1787  0.0409
 6903TIP3    H142124   5.639   2.620  11.879 -0.5371  0.3402  1.8111
 6903TIP3    H242125   5.532   2.619  11.772  1.1774  0.9886  0.0731
 6904TIP3   OH242126   1.769   5.379   4.752 -0.4314  0.0981  0.4963
 6904TIP3    H142127   1.694   5.328   4.782 -1.8196  2.1144  0.5496
 6904TIP3    H242128   1.828   5.381   4.827 -1.6423  0.9080  1.4602
 6905TIP3   OH242129   3.810   6.433  10.809 -0.1573 -0.0060 -0.3939
 6905TIP3    H142130   3.752   6.505  10.786  1.0651  1.6102  1.3717
 6905TIP3    H242131   3.878   6.433  10.742  0.4147  1.1584  0.1899
 6906TIP3   OH242132   3.967   6.220  10.582  0.0723  0.7025  0.6415
 6906TIP3    H142133   3.982   6.313  10.602  0.3091  0.8908 -0.3818
 6906TIP3    H242134   4.055   6.181  10.581 -0.0021  0.5308  0.7541
 6907TIP3   OH242135   0.793   4.853  14.605  0.2462 -0.2730 -0.2530
 6907TIP3    H142136   0.730   4.787  14.635  0.0622  0.9776  2.2504
 6907TIP3    H242137   0.856   4.803  14.552 -1.3604 -1.9847 -0.6085
 6908TIP3   OH242138   0.409   1.237  14.112  0.7485 -0.3627 -0.0786
 6908TIP3    H142139   0.341   1.262  14.049  1.0968 -1.2734 -0.8219
 6908TIP3    H242140   0.453   1.320  14.133  1.3212 -0.1891 -1.8467
 6909TIP3   OH242141   1.533   1.960   2.460  0.0425  1.0382  0.2844
 6909TIP3    H142142   1.501   1.992   2.376  1.0239  2.7427  0.5330
 6909TIP3    H242143   1.456   1.960   2.517 -0.2576  1.5830 -0.1207
 6910TIP3   OH242144   6.704   0.737  16.856 -0.4357  0.3697 -0.2706
 6910TIP3    H142145   6.725   0.807  16.795  0.5284  1.6575  1.5065
 6910TIP3    H242146   6.639   0.775  16.915 -1.3364 -0.8477 -0.4516
 6911TIP3   OH242147   6.378   5.674   2.334 -0.0348 -0.1674  0.0016
 6911TIP3    H142148   6.439   5.601   2.320  0.7624  0.5032 -0.0332
 6911TIP3    H242149   6.291   5.633   2.328  0.3939 -1.0297 -0.5111
 6912TIP3   OH242150   1.783   4.388  16.611 -0.0845 -1.1790  0.2052
 6912TIP3    H142151   1.710   4.428  16.658 -0.9302 -0.6364 -1.5183
 6912TIP3    H242152   1.851   4.376  16.678 -1.0413  0.0784  1.4392
 6913TIP3   OH242153   6.414   0.346   1.012  0.3306  0.4967 -0.1846
 6913TIP3    H142154   6.412   0.264   1.063  0.0765  0.0069 -0.9750
 6913TIP3    H242155   6.472   0.327   0.939  1.8897  1.6794  0.7087
 6914TIP3   OH242156   4.922   2.323   2.394  0.7130 -0.1272 -0.1168
 6914TIP3    H142157   4.959   2.411   2.395  1.6095 -0.4585 -1.7140
 6914TIP3    H242158   4.939   2.291   2.305 -1.4183 -1.1387 -0.1949
 6915TIP3   OH242159   4.229   1.816  15.745  0.5276 -0.2432 -0.4523
 6915TIP3    H142160   4.316   1.787  15.771  0.6285  0.4406 -0.0012
 6915TIP3    H242161   4.207   1.884  15.809 -1.1970 -1.8569  0.7021
 6916TIP3   OH242162   4.492   6.142   5.252  0.2269  0.3231  0.3955
 6916TIP3    H142163   4.494   6.122   5.346  1.4314 -1.0410  0.0890
 6916TIP3    H242164   4.516   6.060   5.209 -1.3473  0.6378 -1.1705
 6917TIP3   OH242165   1.671   0.328   0.316  0.5516  0.6992 -0.2653
 6917TIP3    H142166   1.732   0.291   0.252  1.4637  1.3870  0.1833
 6917TIP3    H242167   1.646   0.413   0.279 -0.6310  0.1481 -0.7458
 6918TIP3   OH242168   3.572   3.405   1.100 -0.2985 -0.1310  0.4668
 6918TIP3    H142169   3.643   3.346   1.078 -2.0242 -3.5949  3.6451
 6918TIP3    H242170   3.504   3.386   1.035  0.8590  1.8086 -1.3817
 6919TIP3   OH242171   2.066   4.104  16.510 -0.7868  0.1408 -0.4176
 6919TIP3    H142172   2.118   4.157  16.571 -1.1381  0.8619 -0.7419
 6919TIP3    H242173   2.085   4.142  16.424 -2.0180  0.5519 -0.5111
 6920TIP3   OH242174   0.066   0.349   0.185  0.0468  0.4608  0.5926
 6920TIP3    H142175   0.001   0.400   0.235  2.0155  2.0653  1.5888
 6920TIP3    H242176   0.051   0.374   0.094 -1.6496 -0.2406  0.6664
 6921TIP3   OH242177   4.182   4.952   1.792 -0.0739 -0.1381 -0.0960
 6921TIP3    H142178   4.225   4.923   1.873  0.7527  1.1906 -0.0250
 6921TIP3    H242179   4.191   4.878   1.732  1.8718 -0.1088  0.1054
 6922TIP3   OH242180   1.370   4.331  11.237 -0.1521  0.3253 -0.1516
 6922TIP3    H142181   1.411   4.341  11.150 -2.2241 -1.2826 -1.3438
 6922TIP3    H242182   1.443   4.309  11.295  1.5862  3.4676 -1.0436
 6923TIP3   OH242183   4.271   5.415  12.375 -1.0629  0.5587 -0.5277
 6923TIP3    H142184   4.347   5.419  12.317 -0.2885  1.6829  0.5352
 6923TIP3    H242185   4.248   5.507  12.391 -1.0058  0.2750  1.2713
 6924TIP3   OH242186   5.442   0.991  16.048  0.1150  0.9443  0.1816
 6924TIP3    H142187   5.534   1.001  16.073  0.3397 -0.5034 -0.0355
 6924TIP3    H242188   5.444   0.947  15.963 -0.7710  1.6390 -0.2138
 6925TIP3   OH242189   3.810   5.828   4.591 -0.0946 -0.1072  0.2064
 6925TIP3    H142190   3.779   5.866   4.673  1.9281 -0.4566  1.1812
 6925TIP3    H242191   3.796   5.734   4.603  0.5535 -0.1913  0.3195
 6926TIP3   OH242192   5.634   6.509   2.619 -0.6004 -0.1987 -0.5367
 6926TIP3    H142193   5.602   6.435   2.671  1.4880 -1.0565 -0.4389
 6926TIP3    H242194   5.697   6.552   2.676  0.3676 -0.0754 -1.6862
 6927TIP3   OH242195   4.374   5.843   0.796 -0.8933  0.4870 -0.0919
 6927TIP3    H142196   4.364   5.904   0.870 -3.4539 -0.1745  0.1381
 6927TIP3    H242197   4.465   5.854   0.769 -0.0529  1.1586  2.8119
 6928TIP3   OH242198   3.666   1.467   0.578 -0.3301 -0.0180 -0.1686
 6928TIP3    H142199   3.686   1.447   0.486  0.6854  0.4205 -0.0539
 6928TIP3    H242200   3.752   1.480   0.618 -0.8315  1.1438  0.5321
 6929TIP3   OH242201   1.236   5.104   3.029  0.1573  0.5199  0.0261
 6929TIP3    H142202   1.163   5.121   3.089  0.3214  0.9721  0.0945
 6929TIP3    H242203   1.293   5.044   3.077 -0.9634 -1.1085 -0.6317
 6930TIP3   OH242204   3.311   3.326   4.222  0.2094 -0.2282 -0.1195
 6930TIP3    H142205   3.328   3.382   4.146  0.8980  1.7142  1.4328
 6930TIP3    H242206   3.396   3.318   4.265  0.1716 -2.6452 -0.3713
 6931TIP3   OH242207   1.372   4.096  16.393 -0.2576  0.5034  0.4570
 6931TIP3    H142208   1.428   4.058  16.460 -0.7387 -0.1940  0.4627
 6931TIP3    H242209   1.360   4.187  16.421  4.8080  2.0847 -2.0657
 6932TIP3   OH242210   6.135   3.808  14.198  0.1064 -0.4008  0.2205
 6932TIP3    H142211   6.151   3.884  14.142 -2.2124  0.0469  0.0910
 6932TIP3    H242212   6.143   3.841  14.287  2.3158 -0.7710  0.1810
 6933TIP3   OH242213   2.946   0.150  13.304 -0.2321  0.3371 -0.2178
 6933TIP3    H142214   2.889   0.174  13.231 -0.9985 -0.8021 -0.0159
 6933TIP3    H242215   2.920   0.060  13.326 -0.1551  0.7290  1.5844
 6934TIP3   OH242216   5.863   6.175  14.884 -0.5613  0.3712  0.0418
 6934TIP3    H142217   5.904   6.121  14.816  1.4879  0.9673  0.7840
 6934TIP3    H242218   5.800   6.116  14.925  0.4897 -0.9956 -0.2481
 6935TIP3   OH242219   5.988   1.548   2.035  0.2945 -0.2216 -0.5675
 6935TIP3    H142220   6.011   1.526   1.944 -0.7942 -0.8029 -0.7015
 6935TIP3    H242221   6.003   1.643   2.041  0.3974 -0.1850 -1.3467
 6936TIP3   OH242222   1.411   4.784  13.747  0.0066 -0.3627 -0.1404
 6936TIP3    H142223   1.485   4.802  13.689 -1.2729 -1.9364 -2.3657
 6936TIP3    H242224   1.415   4.689  13.761 -0.1704 -0.1021  1.7182
 6937TIP3   OH242225   2.578   4.669   3.435  0.1634  0.0310  0.1145
 6937TIP3    H142226   2.559   4.610   3.362 -1.3929 -0.0643  0.5848
 6937TIP3    H242227   2.493   4.686   3.475  0.9562  0.3676  1.6952
 6938TIP3   OH242228   4.850   5.068   0.143 -0.4067  0.1514 -0.1722
 6938TIP3    H142229   4.856   5.142   0.082  2.0893  1.8086  1.9442
 6938TIP3    H242230   4.778   5.092   0.202 -2.1603 -0.9780 -1.8211
 6939TIP3   OH242231   6.112   2.454  15.076  0.6944 -0.0837  0.0432
 6939TIP3    H142232   6.094   2.537  15.121 -1.1116  0.2219 -1.1714
 6939TIP3    H242233   6.067   2.388  15.129  1.1614 -0.1355  0.3777
 6940TIP3   OH242234   6.393   2.343   0.291  0.2773 -0.4932 -0.0020
 6940TIP3    H142235   6.464   2.293   0.251  1.1426  0.5188  0.2402
 6940TIP3    H242236   6.378   2.301   0.376  0.5677 -0.7197 -0.0624
 6941TIP3   OH242237   3.193   5.198   1.055  0.8771 -0.1739  0.2537
 6941TIP3    H142238   3.266   5.169   1.110  1.4351  0.1249 -0.3307
 6941TIP3    H242239   3.226   5.191   0.966 -0.2676 -1.3176 -0.0877
 6942TIP3   OH242240   1.515   5.113  13.299 -0.1226 -0.0632 -0.5863
 6942TIP3    H142241   1.606   5.084  13.286 -0.4741 -0.5803 -2.0026
 6942TIP3    H242242   1.498   5.172  13.225 -0.1033  2.1109  1.1207
 6943TIP3   OH242243   0.245   5.334   4.486  0.2216 -0.2781 -0.4245
 6943TIP3    H142244   0.237   5.422   4.449  1.7595 -0.4232 -1.1441
 6943TIP3    H242245   0.297   5.285   4.422 -3.4809 -2.7040 -1.6899
 6944TIP3   OH242246   4.626   6.368  16.901  0.0229 -0.2314  0.0112
 6944TIP3    H142247   4.699   6.331  16.949  2.7497  2.0211 -2.2528
 6944TIP3    H242248   4.582   6.426  16.964  1.9921  0.7158  0.5335
 6945TIP3   OH242249   6.277   2.653  11.316 -0.1152 -0.5368 -0.3419
 6945TIP3    H142250   6.303   2.594  11.246 -1.4398 -0.0136 -1.3018
 6945TIP3    H242251   6.217   2.601  11.369  0.1650 -0.6391 -0.1255
 6946TIP3   OH242252   1.554   0.275  12.987  0.4941  0.0114  0.0576
 6946TIP3    H142253   1.502   0.352  12.965 -0.0904 -0.3315  0.2148
 6946TIP3    H242254   1.514   0.204  12.937  1.0995 -0.1656 -0.1715
 6947TIP3   OH242255   2.099   5.367   0.904  0.2757 -0.4544  0.5829
 6947TIP3    H142256   2.073   5.440   0.848  0.4079 -0.4674  0.5047
 6947TIP3    H242257   2.047   5.293   0.873  1.0442 -0.6906 -0.1423
 6948TIP3   OH242258   2.291   5.014  17.008  0.1523 -0.7086 -0.2080
 6948TIP3    H142259   2.296   4.977  16.920  0.5244 -1.8735  0.2917
 6948TIP3    H242260   2.202   4.997  17.037  0.7463 -2.5831  0.5941
 6949TIP3   OH242261   1.184   1.786   5.159 -0.8458 -0.0145  0.5414
 6949TIP3    H142262   1.277   1.790   5.182 -0.1952 -1.1572 -1.7495
 6949TIP3    H242263   1.156   1.877   5.153 -0.0769  0.3237  2.0162
 6950TIP3   OH242264   0.345   6.452  16.787 -0.2995  0.0006  0.2072
 6950TIP3    H142265   0.428   6.488  16.820  0.1725 -0.1281 -0.8194
 6950TIP3    H242266   0.322   6.385  16.850  0.7353 -0.4273  0.1496
 6951TIP3   OH242267   2.647   5.577   3.182  0.1712  0.4839 -1.1069
 6951TIP3    H142268   2.584   5.506   3.195  0.2912  0.3251 -1.3820
 6951TIP3    H242269   2.633   5.606   3.092 -0.3780  1.3019 -0.7638
 6952TIP3   OH242270   3.303   5.312   1.828  0.0193  0.1060  0.0887
 6952TIP3    H142271   3.214   5.279   1.842  0.0715 -0.7947 -1.5364
 6952TIP3    H242272   3.360   5.243   1.863  0.0843  0.1292  0.0309
 6953TIP3   OH242273   2.293   0.421  14.824  0.0917 -0.3164  0.2193
 6953TIP3    H142274   2.342   0.428  14.743 -1.1897 -2.4654 -0.7951
 6953TIP3    H242275   2.209   0.462  14.806  0.2612  0.3339  0.8770
 6954TIP3   OH242276   0.387   4.510  12.187 -0.1664  0.5338 -0.0721
 6954TIP3    H142277   0.319   4.573  12.163 -0.5842  0.3754  0.6944
 6954TIP3    H242278   0.464   4.563  12.204 -0.1146  0.7213 -0.8562
 6955TIP3   OH242279   1.724   3.463  14.970 -0.4919  0.0035  0.6848
 6955TIP3    H142280   1.687   3.433  14.886 -0.8485  1.3675  0.3406
 6955TIP3    H242281   1.667   3.536  14.996  0.7865  0.8553  1.1311
 6956TIP3   OH242282   2.667   5.957  10.608 -0.7301 -0.0455  0.4623
 6956TIP3    H142283   2.641   6.044  10.577 -0.3444 -0.4723 -1.0509
 6956TIP3    H242284   2.589   5.903  10.596 -0.1318 -0.5700 -1.1770
 6957TIP3   OH242285   1.716   2.549  13.362 -0.0044 -0.1414 -0.6365
 6957TIP3    H142286   1.667   2.549  13.444 -0.4796  0.4499 -0.9225
 6957TIP3    H242287   1.704   2.461  13.327 -0.4378 -0.1561 -0.4550
 6958TIP3   OH242288   0.920   3.407   1.503 -0.2975 -0.2573  0.4864
 6958TIP3    H142289   0.968   3.373   1.428  0.2192 -0.6409  0.9848
 6958TIP3    H242290   0.965   3.488   1.526 -0.0311 -0.4954  0.8071
 6959TIP3   OH242291   2.813   0.510   3.954 -0.1218  0.0396  0.0372
 6959TIP3    H142292   2.815   0.584   4.015  2.5781  1.5552 -1.7756
 6959TIP3    H242293   2.751   0.536   3.887 -0.0621  0.1295  0.0169
 6960TIP3   OH242294   2.642   5.321  12.119  0.4270 -0.4480 -0.4970
 6960TIP3    H142295   2.604   5.338  12.033  0.2089  3.1104  0.2523
 6960TIP3    H242296   2.604   5.388  12.176  4.1356  0.2046  1.3439
 6961TIP3   OH242297   3.878   4.352   6.361  0.2210 -0.1327 -0.4082
 6961TIP3    H142298   3.847   4.439   6.388 -0.5991  0.4815 -3.2265
 6961TIP3    H242299   3.799   4.303   6.341  0.8113 -0.2824 -2.4790
 6962TIP3   OH242300   5.726   1.445  11.178 -0.1451  0.3053  0.5038
 6962TIP3    H142301   5.807   1.488  11.150 -0.9228  0.7216 -1.1596
 6962TIP3    H242302   5.689   1.408  11.097 -1.8108  0.4544  1.1725
 6963TIP3   OH242303   3.349   0.662   4.168 -0.2262  0.3499 -0.5755
 6963TIP3    H142304   3.255   0.654   4.186 -0.1656 -1.5627 -0.9526
 6963TIP3    H242305   3.392   0.627   4.246  0.1720  1.3475 -0.3482
 6964TIP3   OH242306   5.541   6.753  12.658  0.4732  0.0888  0.1259
 6964TIP3    H142307   5.563   6.760  12.565  0.2777  0.4946  0.1119
 6964TIP3    H242308   5.450   6.782  12.663 -0.4383 -2.6102  0.0095
 6965TIP3   OH242309   5.826   6.088  15.853 -0.3863  0.3745  0.3828
 6965TIP3    H142310   5.880   6.133  15.919 -1.2487  1.3256  0.4586
 6965TIP3    H242311   5.859   5.998  15.852  1.8107  1.1693 -0.2364
 6966TIP3   OH242312   3.775   4.457   3.426 -0.0931  0.3017  0.1593
 6966TIP3    H142313   3.692   4.428   3.464  0.3908  1.9290  2.5356
 6966TIP3    H242314   3.755   4.542   3.386 -0.0116 -0.2139 -0.9933
 6967TIP3   OH242315   1.704   1.861  15.714 -0.5750 -0.2683 -0.2662
 6967TIP3    H142316   1.640   1.888  15.781 -0.8173 -1.6788  0.0850
 6967TIP3    H242317   1.788   1.868  15.758 -0.6898 -0.6854  0.0215
 6968TIP3   OH242318   3.597   5.652  13.113 -0.2884  0.3339 -0.2799
 6968TIP3    H142319   3.624   5.575  13.063 -1.6068 -1.5736  1.8309
 6968TIP3    H242320   3.619   5.630  13.204 -2.8315  1.4530  0.6502
 6969TIP3   OH242321   5.617   1.788   6.277 -0.1264 -0.0256 -0.3622
 6969TIP3    H142322   5.616   1.710   6.334  1.0354 -0.3452 -0.7727
 6969TIP3    H242323   5.580   1.757   6.194  1.0668 -0.3451 -0.7810
 6970TIP3   OH242324   1.788   3.633  16.155 -0.0667 -0.2211 -0.0535
 6970TIP3    H142325   1.806   3.723  16.129  2.0233  0.0310  2.0766
 6970TIP3    H242326   1.778   3.585  16.073 -0.9203  1.8846 -1.2101
 6971TIP3   OH242327   3.162   4.668  11.313 -0.0280  0.0459  0.0274
 6971TIP3    H142328   3.221   4.723  11.365  0.7422 -0.1148 -0.6753
 6971TIP3    H242329   3.106   4.730  11.267  0.7173  0.2316 -0.6204
 6972TIP3   OH242330   4.438   0.835  16.673  0.2455 -0.0163 -0.7716
 6972TIP3    H142331   4.500   0.787  16.619 -0.5049  1.2675 -2.8401
 6972TIP3    H242332   4.384   0.767  16.714  1.1972 -1.0284 -1.1711
 6973TIP3   OH242333   6.740   3.099   5.783  0.2086 -0.1644 -0.1933
 6973TIP3    H142334   6.680   3.121   5.854 -0.6769 -1.5517 -0.5031
 6973TIP3    H242335   6.685   3.099   5.704  0.9753  0.3271 -0.7379
 6974TIP3   OH242336   0.691   3.370   2.941 -0.5320  0.0650  0.0735
 6974TIP3    H142337   0.688   3.299   3.006 -0.9490  0.4574  0.4823
 6974TIP3    H242338   0.645   3.442   2.983  0.3343  0.7493 -0.1335
 6975TIP3   OH242339   1.918   5.593  15.589 -0.2955  0.0410  0.0682
 6975TIP3    H142340   1.993   5.536  15.602  2.1141  2.8865 -0.7013
 6975TIP3    H242341   1.909   5.600  15.494 -0.7421  0.6984  0.1562
 6976TIP3   OH242342   2.427   3.757  13.988 -0.1326  0.5621 -0.4195
 6976TIP3    H142343   2.520   3.769  14.007 -0.0895  1.0099 -0.9078
 6976TIP3    H242344   2.424   3.683  13.928 -0.1013  0.4927 -0.3355
 6977TIP3   OH242345   3.805   4.761  16.263  1.0325  0.6235 -0.5711
 6977TIP3    H142346   3.863   4.801  16.328  0.8444  0.3451 -0.2271
 6977TIP3    H242347   3.736   4.826  16.250 -0.2003 -0.2535  1.2487
 6978TIP3   OH242348   1.912   0.692  12.576 -0.4506 -0.1050 -0.1951
 6978TIP3    H142349   1.952   0.619  12.623  0.6673  1.7300  1.8113
 6978TIP3    H242350   1.925   0.672  12.483 -0.1370 -2.3972  0.3201
 6979TIP3   OH242351   6.723   5.052   3.127  0.0455 -0.2310 -0.0523
 6979TIP3    H142352   6.654   5.096   3.177  0.0321  0.3066 -0.5388
 6979TIP3    H242353   6.773   5.124   3.087  1.2535 -0.5904  0.7875
 6980TIP3   OH242354   5.417   5.190  13.148  0.0002 -0.1617 -0.5621
 6980TIP3    H142355   5.326   5.216  13.132 -0.3346  1.1405  3.0552
 6980TIP3    H242356   5.410   5.103  13.189  0.3295  0.3532  0.5864
 6981TIP3   OH242357   2.728   3.566   3.513  0.4348 -0.4262  0.2366
 6981TIP3    H142358   2.784   3.643   3.503 -1.1920  0.9589  1.6486
 6981TIP3    H242359   2.659   3.578   3.448  1.0604 -1.5150 -0.6479
 6982TIP3   OH242360   3.357   1.638  13.450 -0.2831  0.1071 -0.3088
 6982TIP3    H142361   3.387   1.729  13.455  1.7043 -0.5342 -0.0231
 6982TIP3    H242362   3.427   1.591  13.406 -1.1075 -1.3704 -0.1088
 6983TIP3   OH242363   2.480   2.178   1.234 -0.7502 -0.0450  0.0085
 6983TIP3    H142364   2.496   2.264   1.273 -0.1519 -0.3159  0.3508
 6983TIP3    H242365   2.389   2.183   1.205 -0.5891  0.8623 -0.3729
 6984TIP3   OH242366   2.666   1.506   1.197  0.7932 -0.2707 -0.8364
 6984TIP3    H142367   2.620   1.555   1.129 -0.0370  0.8905  0.5418
 6984TIP3    H242368   2.704   1.573   1.254 -1.0747 -1.1930  1.5622
 6985TIP3   OH242369   5.665   6.678   1.073  0.2908 -0.3787 -0.1197
 6985TIP3    H142370   5.619   6.712   1.150  1.4085  0.1788  0.3019
 6985TIP3    H242371   5.719   6.607   1.108  0.3164 -0.5437 -0.4999
 6986TIP3   OH242372   3.015   1.130  10.326  0.7442  0.1891 -0.1856
 6986TIP3    H142373   3.084   1.153  10.388 -0.8054 -0.4790  1.8208
 6986TIP3    H242374   2.947   1.196  10.340  1.1089  1.0845 -2.4315
 6987TIP3   OH242375   6.760   5.113  14.937  0.2770  0.0876 -1.0312
 6987TIP3    H142376   6.695   5.148  14.998 -0.0425  1.2154 -1.9999
 6987TIP3    H242377   6.774   5.184  14.874  2.5648 -0.0750 -0.7526
 6988TIP3   OH242378   2.863   2.390   5.789  0.0552 -0.1399 -0.2215
 6988TIP3    H142379   2.805   2.464   5.808  0.8580  0.9735 -1.9696
 6988TIP3    H242380   2.806   2.327   5.744  0.1482  0.9109 -1.8548
 6989TIP3   OH242381   6.659   1.893  13.176 -0.4343 -0.1244  0.0591
 6989TIP3    H142382   6.650   1.893  13.080 -1.9865 -1.3657  0.1840
 6989TIP3    H242383   6.633   1.981  13.202 -1.0890 -0.1232 -0.5799
 6990TIP3   OH242384   1.231   0.034   4.474  0.4996  0.3872 -0.3910
 6990TIP3    H142385   1.183   0.039   4.556  0.3682 -1.3613 -0.3412
 6990TIP3    H242386   1.247  -0.060   4.461 -0.6059  0.5243 -3.0081
 6991TIP3   OH242387   1.578   3.300  13.634 -0.4001  0.1551  0.6407
 6991TIP3    H142388   1.577   3.205  13.645 -1.2549  0.1109  0.2255
 6991TIP3    H242389   1.562   3.314  13.541 -1.4334  0.7351  0.8996
 6992TIP3   OH242390   4.861   5.550   1.290  0.1161  0.1550  0.1047
 6992TIP3    H142391   4.819   5.622   1.336  1.0592  2.3636 -2.3522
 6992TIP3    H242392   4.824   5.553   1.202 -0.4905 -2.9725  0.1882
 6993TIP3   OH242393   2.042   2.303   3.134 -0.3562 -0.5781  0.3358
 6993TIP3    H142394   2.090   2.222   3.149 -1.0759 -0.9208  0.8307
 6993TIP3    H242395   1.985   2.283   3.060  1.3300  0.2983 -1.2330
 6994TIP3   OH242396   3.013   4.144   1.724  0.3267  0.1674 -0.3420
 6994TIP3    H142397   3.018   4.048   1.719 -0.9975 -0.0210  1.5720
 6994TIP3    H242398   3.096   4.174   1.686  0.0025 -1.6648 -2.6344
 6995TIP3   OH242399   1.789   3.491  10.922  0.1550  0.9576 -0.0577
 6995TIP3    H142400   1.872   3.522  10.887  0.2766  1.0709  0.3272
 6995TIP3    H242401   1.741   3.459  10.845  1.6661 -1.7109  0.0477
 6996TIP3   OH242402   1.013   3.427   1.022  0.7273  0.2273  0.5152
 6996TIP3    H142403   1.017   3.522   1.036  1.9538  0.1346  0.8522
 6996TIP3    H242404   1.088   3.408   0.966  0.5931 -0.5667  0.6003
 6997TIP3   OH242405   2.195   1.146   4.209 -0.4071  0.6652 -0.2439
 6997TIP3    H142406   2.238   1.118   4.290 -0.3403 -0.3329 -0.6148
 6997TIP3    H242407   2.187   1.066   4.157  2.5540  1.8042 -2.6261
 6998TIP3   OH242408   4.525   0.857  13.118  0.6690 -0.0265  0.1964
 6998TIP3    H142409   4.525   0.943  13.076  0.2817  0.2289  0.7079
 6998TIP3    H242410   4.434   0.828  13.111  0.7135 -0.2104  0.3989
 6999TIP3   OH242411   0.381   1.310  15.993  0.2078  0.2146 -0.0781
 6999TIP3    H142412   0.465   1.268  15.976  0.4203  0.3612  0.6197
 6999TIP3    H242413   0.356   1.349  15.909  0.7370 -0.0028 -0.3336
 7000TIP3   OH242414   1.859   3.234   4.085 -0.3085  0.3087 -0.1882
 7000TIP3    H142415   1.816   3.216   4.169 -0.6298  2.3853  0.1381
 7000TIP3    H242416   1.948   3.260   4.109  0.0081 -0.3876 -0.5976
 7001TIP3   OH242417   5.926   1.944  13.451  0.3957 -0.3660  0.4780
 7001TIP3    H142418   5.915   1.875  13.386 -2.1181  1.5509 -1.2540
 7001TIP3    H242419   5.861   1.925  13.518 -1.3075  1.0237 -0.7172
 7002TIP3   OH242420   0.695   1.626  14.987 -0.5363 -0.0223 -0.4162
 7002TIP3    H142421   0.610   1.651  15.024 -0.6150 -1.2409  0.2571
 7002TIP3    H242422   0.759   1.674  15.038 -0.6116 -2.0913  1.7203
 7003TIP3   OH242423   3.289   4.024   3.934  0.3572 -0.3026 -0.8049
 7003TIP3    H142424   3.217   4.016   3.998 -0.8546 -0.3380 -2.1588
 7003TIP3    H242425   3.257   4.087   3.870  0.9693 -1.3943 -2.1950
 7004TIP3   OH242426   6.301   4.602  12.703 -0.3626 -0.1412 -0.4730
 7004TIP3    H142427   6.279   4.662  12.774 -0.3768 -1.3875  0.6031
 7004TIP3    H242428   6.383   4.636  12.667  0.7011 -0.6176  1.4472
 7005TIP3   OH242429   1.339   2.682   6.773 -0.0351  0.0956  0.0008
 7005TIP3    H142430   1.308   2.772   6.779  0.2914  0.1669  0.5623
 7005TIP3    H242431   1.278   2.641   6.711 -1.6835  0.0718  1.5793
 7006TIP3   OH242432   0.329   5.642  15.134 -0.5081  0.7478  0.3143
 7006TIP3    H142433   0.363   5.667  15.049 -0.4855 -0.6460 -0.0990
 7006TIP3    H242434   0.378   5.563  15.158 -0.9890  0.7347  1.2883
 7007TIP3   OH242435   3.685   4.065   5.132 -0.5969 -0.2216 -0.1971
 7007TIP3    H142436   3.773   4.098   5.152 -1.1863  0.9647  0.4145
 7007TIP3    H242437   3.676   3.987   5.186  1.0792 -1.8853 -2.1878
 7008TIP3   OH242438   5.515   4.185   6.525  0.3260  0.0128 -0.3022
 7008TIP3    H142439   5.498   4.269   6.568  0.5110 -0.0866 -0.0340
 7008TIP3    H242440   5.526   4.123   6.596 -2.8773 -0.8717 -0.5097
 7009TIP3   OH242441   3.036   3.404  15.407 -0.2563 -0.8628 -0.0367
 7009TIP3    H142442   3.094   3.348  15.459 -1.4989 -1.6786  0.5339
 7009TIP3    H242443   3.080   3.413  15.323  0.0391 -2.6428 -0.1110
 7010TIP3   OH242444   3.378   0.090  17.233  0.5118  0.0195  0.0342
 7010TIP3    H142445   3.439   0.156  17.267  1.0534 -1.4701  2.0721
 7010TIP3    H242446   3.387   0.095  17.138  4.2580 -0.5715  0.2965
 7011TIP3   OH242447   0.104   3.022  10.479  0.2144  0.1467  0.2196
 7011TIP3    H142448   0.092   3.111  10.513  0.6354  0.2014  0.2373
 7011TIP3    H242449   0.197   3.018  10.457  0.1808 -0.2674  0.1513
 7012TIP3   OH242450   0.566   4.679  12.299 -0.0236 -0.0635  0.2674
 7012TIP3    H142451   0.577   4.656  12.391  1.5317 -1.3908 -0.2313
 7012TIP3    H242452   0.631   4.747  12.283  0.6509 -0.8177 -0.1982
 7013TIP3   OH242453   5.627   3.834  14.089 -0.0682  0.0605 -0.1156
 7013TIP3    H142454   5.566   3.762  14.070  0.2188  0.1315 -1.3524
 7013TIP3    H242455   5.638   3.832  14.184 -2.0899  0.1291  0.1329
 7014TIP3   OH242456   2.285   2.415  14.448  0.2061  0.2450  0.1259
 7014TIP3    H142457   2.201   2.442  14.410  0.6138  0.2054 -0.8178
 7014TIP3    H242458   2.277   2.435  14.541 -1.1757 -0.5385  0.1934
 7015TIP3   OH242459   0.447   3.676  14.731  0.6218 -0.6111 -0.5727
 7015TIP3    H142460   0.375   3.736  14.714  0.3859 -1.5238 -3.1048
 7015TIP3    H242461   0.456   3.627  14.649  2.8329 -1.8554  0.3828
 7016TIP3   OH242462   2.273   1.672  11.956 -0.3516  0.5548  0.3260
 7016TIP3    H142463   2.300   1.598  11.902  2.3216  0.4739  1.7174
 7016TIP3    H242464   2.234   1.733  11.893 -1.5142 -1.4695 -1.0080
 7017TIP3   OH242465   2.363   2.293   6.567 -0.3435  0.2161 -0.5041
 7017TIP3    H142466   2.354   2.289   6.471  0.4906 -2.5482 -0.5169
 7017TIP3    H242467   2.289   2.241   6.600  2.2291 -3.2363  0.1160
 7018TIP3   OH242468   3.250   1.541  14.603 -0.5036  0.2328 -0.2668
 7018TIP3    H142469   3.246   1.453  14.565  1.8338  0.9056 -2.1873
 7018TIP3    H242470   3.320   1.585  14.554  0.8868  1.9757  3.1353
 7019TIP3   OH242471   6.405   6.085   1.617  0.1202  0.5673  0.0726
 7019TIP3    H142472   6.357   6.116   1.540 -0.1909 -2.2873 -0.9262
 7019TIP3    H242473   6.429   6.166   1.664 -1.4688  2.2582 -1.9065
 7020TIP3   OH242474   6.528   1.968   5.424  0.0906 -0.2302  0.6790
 7020TIP3    H142475   6.465   1.901   5.451 -1.9099  1.1114 -0.4880
 7020TIP3    H242476   6.585   1.924   5.362 -1.1139 -0.9138  0.0296
 7021TIP3   OH242477   0.665   2.835  13.944  0.3039 -0.5774 -0.5907
 7021TIP3    H142478   0.619   2.806  13.865  0.9646 -1.1956 -0.7589
 7021TIP3    H242479   0.623   2.917  13.968 -1.2102 -1.3696 -0.4714
 7022TIP3   OH242480   5.475   4.809   0.616  0.2351  0.3618  0.1655
 7022TIP3    H142481   5.401   4.812   0.677 -0.3288 -0.6810 -0.4506
 7022TIP3    H242482   5.494   4.901   0.597 -2.1433  0.6420 -1.1235
 7023TIP3   OH242483   6.624   3.641   2.787  0.3222  0.0222  0.2592
 7023TIP3    H142484   6.595   3.625   2.698 -1.8972 -0.9845  1.1404
 7023TIP3    H242485   6.688   3.572   2.805  0.2181 -0.2167 -0.2905
 7024TIP3   OH242486   1.310   4.888   0.696 -0.1504 -0.6570 -0.5480
 7024TIP3    H142487   1.328   4.806   0.742 -1.1000  0.7261  2.3504
 7024TIP3    H242488   1.234   4.868   0.641 -0.5995 -1.6140  0.4148
 7025TIP3   OH242489   2.105   6.418   3.319 -0.1980  0.3462 -0.0926
 7025TIP3    H142490   2.112   6.492   3.379  1.0770  0.7371 -0.6937
 7025TIP3    H242491   2.112   6.341   3.375  1.2475  0.7125  0.2555
 7026TIP3   OH242492   5.252   5.055  10.808 -0.0877 -0.3141  0.4434
 7026TIP3    H142493   5.277   4.976  10.760  2.2913  1.0155 -0.6426
 7026TIP3    H242494   5.169   5.033  10.850 -0.9491 -2.3900 -2.2146
 7027TIP3   OH242495   5.928   2.007  14.737 -0.2018  0.3738  0.7133
 7027TIP3    H142496   5.944   1.952  14.661 -0.4047  2.7223 -1.0983
 7027TIP3    H242497   5.868   1.957  14.792  0.3950 -1.5849 -0.3919
 7028TIP3   OH242498   2.480   2.659   5.999 -0.2189 -0.4094 -0.5706
 7028TIP3    H142499   2.472   2.631   6.090 -0.0771 -1.5845 -0.9080
 7028TIP3    H242500   2.411   2.725   5.987 -0.3228 -0.3504  0.3420
 7029TIP3   OH242501   0.947   0.235   2.165 -0.0048 -0.4228  0.0298
 7029TIP3    H142502   0.950   0.165   2.100 -1.8601 -1.3425  0.8816
 7029TIP3    H242503   1.017   0.213   2.227  1.2117 -0.0033 -1.1657
 7030TIP3   OH242504   5.106   4.801  10.744 -0.4941  0.1904 -0.5014
 7030TIP3    H142505   5.053   4.738  10.695  0.3328  0.3566 -1.6379
 7030TIP3    H242506   5.084   4.786  10.836  0.6975 -2.6872 -0.6600
 7031TIP3   OH242507   0.471   3.221  15.807 -0.1211  1.0583  0.6737
 7031TIP3    H142508   0.448   3.264  15.889 -0.7424  0.9661  0.5502
 7031TIP3    H242509   0.566   3.233  15.799  0.0327  0.4894  1.7167
 7032TIP3   OH242510   2.877   4.562  17.223 -0.6154  0.6356  0.4262
 7032TIP3    H142511   2.861   4.656  17.220 -1.5593  0.4859  0.5132
 7032TIP3    H242512   2.861   4.532  17.134 -0.5962  0.5096  0.4647
 7033TIP3   OH242513   4.200   5.240  14.775  0.1824 -0.2687 -0.6381
 7033TIP3    H142514   4.274   5.295  14.749 -0.4183  0.8515 -0.0322
 7033TIP3    H242515   4.238   5.154  14.791  1.4390  0.4111  0.1313
 7034TIP3   OH242516   1.119   3.007   1.273  0.2625 -0.0331 -0.3702
 7034TIP3    H142517   1.037   2.958   1.270  0.1794  0.1942 -2.1042
 7034TIP3    H242518   1.091   3.099   1.271  0.5017  0.0847  0.9155
 7035TIP3   OH242519   3.000   6.107   2.439 -0.4716 -0.4687 -0.2405
 7035TIP3    H142520   3.076   6.072   2.484  0.4085  2.7160  0.9354
 7035TIP3    H242521   3.028   6.194   2.409 -3.8317  1.1110  0.9223
 7036TIP3   OH242522   1.831   2.184  13.977 -0.5068 -0.2390  0.6344
 7036TIP3    H142523   1.864   2.096  13.996 -1.1060 -0.4072  0.8968
 7036TIP3    H242524   1.897   2.243  14.015 -0.1341 -0.5708  0.5083
 7037TIP3   OH242525   4.887   0.867   2.433  1.0627 -0.1260  0.0406
 7037TIP3    H142526   4.934   0.803   2.486 -2.0074 -1.7402  0.8915
 7037TIP3    H242527   4.908   0.951   2.474  1.3313 -1.0465  1.8416
 7038TIP3   OH242528   6.584   2.349  11.313 -0.3464  0.4567 -0.7537
 7038TIP3    H142529   6.521   2.280  11.332 -0.3176  0.7037  0.2384
 7038TIP3    H242530   6.670   2.307  11.323 -0.3329  0.4287 -0.9656
 7039TIP3   OH242531   2.662   0.573  11.359 -0.3269  0.1692  0.1765
 7039TIP3    H142532   2.579   0.603  11.395  0.2007  3.3949 -1.0901
 7039TIP3    H242533   2.663   0.607  11.269  1.9889 -0.5234 -0.0997
 7040TIP3   OH242534   5.293   0.730  11.220 -0.2795  0.4114 -0.1153
 7040TIP3    H142535   5.353   0.796  11.255 -0.1457 -0.4405  1.3320
 7040TIP3    H242536   5.255   0.689  11.298 -1.1153 -0.5252 -0.9995
 7041TIP3   OH242537   4.983   0.865  14.524  0.4057 -0.3042  0.3244
 7041TIP3    H142538   5.003   0.815  14.604  3.2251  0.6938  0.3333
 7041TIP3    H242539   5.047   0.833  14.460  0.3899  1.2639 -0.4991
 7042TIP3   OH242540   3.249   2.109  16.637  0.1748 -0.4512 -0.6480
 7042TIP3    H142541   3.281   2.199  16.632  1.9135 -1.0097 -0.0041
 7042TIP3    H242542   3.293   2.063  16.565 -1.0391 -0.6986 -1.2483
 7043TIP3   OH242543   5.182   4.064   0.613  0.0595 -0.3085 -0.1219
 7043TIP3    H142544   5.249   4.129   0.633 -0.8677  0.9379 -1.0308
 7043TIP3    H242545   5.137   4.049   0.697  0.3151  0.1588  0.0962
 7044TIP3   OH242546   6.062   4.308  11.177  0.1210  0.3731  0.6429
 7044TIP3    H142547   6.030   4.244  11.242 -2.2663  0.0791 -0.7707
 7044TIP3    H242548   6.027   4.392  11.208 -1.2647  0.1902 -0.3905
 7045TIP3   OH242549   0.584   1.901   3.305 -0.0985  0.2273 -0.3320
 7045TIP3    H142550   0.498   1.860   3.313 -1.2106  2.6220  0.5137
 7045TIP3    H242551   0.638   1.857   3.370 -1.0116 -0.4818 -0.0375
 7046TIP3   OH242552   4.970   1.766   0.642 -0.1924  0.1350 -0.3056
 7046TIP3    H142553   5.053   1.749   0.598 -0.2097  2.2692 -1.1861
 7046TIP3    H242554   4.986   1.845   0.694 -1.8672  0.9446 -1.0049
 7047TIP3   OH242555   2.922   2.159   2.296  0.5083  0.1701  0.5474
 7047TIP3    H142556   2.905   2.069   2.324  0.8105  0.0779  0.4373
 7047TIP3    H242557   3.000   2.153   2.241 -3.3091 -0.5607 -5.2009
 7048TIP3   OH242558   6.255   3.978  10.790  0.0555  0.1289  0.5209
 7048TIP3    H142559   6.337   3.977  10.839  0.1492 -0.4372  0.3624
 7048TIP3    H242560   6.278   4.017  10.705  0.2923 -0.5626  0.2621
 7049TIP3   OH242561   6.549   3.005   1.763  0.2871  0.3236 -0.1976
 7049TIP3    H142562   6.601   2.962   1.695 -0.0532 -0.4786  0.0515
 7049TIP3    H242563   6.490   2.937   1.794 -0.3021  0.9959  0.1432
 7050TIP3   OH242564   3.992   5.991  11.678 -0.7023  0.5536 -0.3981
 7050TIP3    H142565   3.950   5.920  11.629  0.9235 -0.3215 -0.5651
 7050TIP3    H242566   3.919   6.040  11.716 -1.8756 -0.7934 -0.8440
 7051TIP3   OH242567   3.692   0.212  16.338 -0.0723 -0.2871 -0.3726
 7051TIP3    H142568   3.752   0.217  16.264 -0.2514  1.0591 -0.4518
 7051TIP3    H242569   3.743   0.242  16.413 -0.9459  2.1153 -0.6639
 7052TIP3   OH242570   3.895   1.789   5.408  0.2329  0.5002  0.2710
 7052TIP3    H142571   3.856   1.796   5.495 -0.5465 -0.5620  0.0281
 7052TIP3    H242572   3.844   1.850   5.354  1.7571  2.3626  0.8846
 7053TIP3   OH242573   4.822   2.991  12.129 -0.4234  0.2468  0.1187
 7053TIP3    H142574   4.889   2.959  12.190 -0.6877 -0.0957  0.2280
 7053TIP3    H242575   4.799   2.915  12.076 -1.2456  0.1830  0.5575
 7054TIP3   OH242576   6.343   4.989  13.826  0.2362  0.4244 -0.4903
 7054TIP3    H142577   6.416   5.037  13.786  0.0769  0.0388 -1.2512
 7054TIP3    H242578   6.306   4.939  13.754  0.1146 -0.4952  0.2106
 7055TIP3   OH242579   6.775   3.372   0.292 -0.3961 -0.6472 -0.6993
 7055TIP3    H142580   6.685   3.395   0.313 -0.1384 -1.3519  1.3276
 7055TIP3    H242581   6.827   3.445   0.324 -0.0196 -1.6284  1.0423
 7056TIP3   OH242582   0.507   3.956  15.297 -0.2164 -0.4831  0.0378
 7056TIP3    H142583   0.512   3.863  15.273  2.7933 -0.5717  0.7964
 7056TIP3    H242584   0.599   3.985  15.297 -1.0144  2.1189  1.2651
 7057TIP3   OH242585   5.444   3.635  14.120  0.4035 -0.2055  0.4888
 7057TIP3    H142586   5.494   3.579  14.179  0.1120  0.4698  1.3871
 7057TIP3    H242587   5.411   3.576  14.052 -1.3141 -1.4246  2.3399
 7058TIP3   OH242588   3.756   2.275  14.033  0.2695  0.4111 -0.2211
 7058TIP3    H142589   3.706   2.357  14.029  1.0302  0.9021  0.1243
 7058TIP3    H242590   3.817   2.280  13.959 -1.9540 -1.3818 -2.2397
 7059TIP3   OH242591   3.100   1.854   1.533 -0.0352 -0.1690  0.2168
 7059TIP3    H142592   3.171   1.912   1.507 -0.7372 -0.0715 -1.5273
 7059TIP3    H242593   3.021   1.897   1.502 -0.8326 -0.4826  1.7765
 7060TIP3   OH242594   1.398   6.121   4.330 -0.9057  0.3297  0.2564
 7060TIP3    H142595   1.425   6.172   4.254  0.3480 -0.5985  0.0669
 7060TIP3    H242596   1.373   6.036   4.295 -1.1620  0.1853  0.7873
 7061TIP3   OH242597   6.162   2.043  17.234 -0.0392  0.1754  0.0316
 7061TIP3    H142598   6.135   2.045  17.142 -0.8524 -0.4591  0.2504
 7061TIP3    H242599   6.225   2.115  17.242 -1.6907  1.7204 -0.4965
 7062TIP3   OH242600   4.184   3.777  11.638 -0.0843 -0.3839  0.4129
 7062TIP3    H142601   4.238   3.853  11.616  2.9858 -2.4374  0.5911
 7062TIP3    H242602   4.185   3.723  11.558 -0.7044 -1.1395  0.9039
 7063TIP3   OH242603   6.681   1.099   1.204 -0.4035 -0.3850  0.2895
 7063TIP3    H142604   6.745   1.028   1.203 -0.0773 -0.1705  2.6847
 7063TIP3    H242605   6.727   1.172   1.246 -2.0000 -0.0261  1.4778
 7064TIP3   OH242606   0.315   6.718   2.866 -0.1845  0.2656 -0.1465
 7064TIP3    H142607   0.267   6.773   2.927  1.1272  0.3369  0.8642
 7064TIP3    H242608   0.250   6.657   2.832 -1.3665  1.5778 -0.2709
 7065TIP3   OH242609   4.791   0.754  11.743  0.6798  0.1699  0.5792
 7065TIP3    H142610   4.783   0.823  11.678  3.7704  0.1901  0.1459
 7065TIP3    H242611   4.707   0.755  11.791  0.4093  3.6812  0.1116
 7066TIP3   OH242612   6.030   0.906  11.171  0.0712  0.6431 -0.0762
 7066TIP3    H142613   6.086   0.948  11.236 -0.9327  1.0302  0.5584
 7066TIP3    H242614   6.046   0.954  11.090  2.8306 -1.1217 -0.6289
 7067TIP3   OH242615   1.076   4.302   5.138  0.2853 -0.0376  0.1774
 7067TIP3    H142616   1.113   4.221   5.173  0.6925 -1.3590 -3.1564
 7067TIP3    H242617   1.019   4.334   5.208 -0.0719 -3.2946  1.4658
 7068TIP3   OH242618   6.387   1.559  15.016  0.0908  0.2265 -0.2130
 7068TIP3    H142619   6.425   1.634  14.969  0.4083  1.2014  1.5400
 7068TIP3    H242620   6.460   1.521  15.064  0.1871 -1.9927 -2.0255
 7069TIP3   OH242621   4.283   1.183  13.676 -0.0555  0.2839 -0.0450
 7069TIP3    H142622   4.337   1.108  13.652 -0.4062 -0.2163  0.7022
 7069TIP3    H242623   4.194   1.148  13.680 -0.0597  0.4321  1.5686
 7070TIP3   OH242624   1.218   6.675   2.869  0.2546  0.0693 -0.3389
 7070TIP3    H142625   1.211   6.729   2.789  0.8429  0.4532 -0.1320
 7070TIP3    H242626   1.234   6.738   2.939 -0.1622 -0.2801  0.0743
 7071TIP3   OH242627   0.904   5.576  14.112 -0.0982 -0.0395  0.1080
 7071TIP3    H142628   0.990   5.618  14.118 -0.3555  0.3207  1.4003
 7071TIP3    H242629   0.900   5.518  14.188 -1.1102  0.1640  0.2257
 7072TIP3   OH242630   3.304   5.099   1.602  0.0299  0.2682  0.0343
 7072TIP3    H142631   3.279   5.007   1.594  0.1082  0.2031  0.5511
 7072TIP3    H242632   3.249   5.132   1.673 -1.9066  1.2788 -1.8646
 7073TIP3   OH242633   5.981   3.238   2.092 -0.2300 -0.0091  0.1540
 7073TIP3    H142634   5.992   3.216   1.999  0.7187  0.2615  0.1925
 7073TIP3    H242635   6.018   3.163   2.138 -0.8204 -0.2001  0.3109
 7074TIP3   OH242636   4.696   1.212  12.639 -0.0971 -0.5530 -0.6326
 7074TIP3    H142637   4.679   1.128  12.596  1.5825 -0.3626 -1.7281
 7074TIP3    H242638   4.791   1.213  12.652 -0.0903  1.2229 -0.7168
 7075TIP3   OH242639   5.316   5.599   4.626  0.6631  0.0385 -0.1635
 7075TIP3    H142640   5.399   5.594   4.578  1.2807  0.2195  0.8800
 7075TIP3    H242641   5.264   5.663   4.577  0.8459 -0.6333 -1.2527
 7076TIP3   OH242642   5.741   1.744   0.354  0.0647 -0.4346 -0.6218
 7076TIP3    H142643   5.760   1.837   0.367  0.4552 -0.9340  2.9003
 7076TIP3    H242644   5.809   1.714   0.293  2.1770  0.8562  1.0121
 7077TIP3   OH242645   3.676   1.103   2.438 -0.1771  0.4610 -0.8440
 7077TIP3    H142646   3.712   1.039   2.377  1.9319 -0.0654  0.9004
 7077TIP3    H242647   3.744   1.170   2.445  0.3052 -0.2818  2.1101
 7078TIP3   OH242648   2.591   0.547  11.916 -0.3388  0.6500 -0.1293
 7078TIP3    H142649   2.677   0.582  11.895 -0.5083  0.5326 -1.0353
 7078TIP3    H242650   2.584   0.557  12.011  0.6922  0.5978 -0.0421
 7079TIP3   OH242651   5.373   1.507  10.799  0.5345 -0.3854  0.1242
 7079TIP3    H142652   5.426   1.543  10.728  2.0605 -1.8594  0.4791
 7079TIP3    H242653   5.283   1.511  10.766  1.0845  0.1567 -1.3628
 7080TIP3   OH242654   1.633   0.491  13.429 -0.5561 -0.6261 -0.2550
 7080TIP3    H142655   1.639   0.577  13.470 -0.2450 -0.8840  0.2492
 7080TIP3    H242656   1.584   0.506  13.348  0.9767  0.3280 -1.0266
 7081TIP3   OH242657   4.741   1.756   3.570  0.0394  0.2543 -0.3823
 7081TIP3    H142658   4.752   1.850   3.584  1.7556  0.1707 -1.0756
 7081TIP3    H242659   4.827   1.719   3.588 -0.9258 -1.3403  1.0709
 7082TIP3   OH242660   0.974   3.730   5.183  0.1816 -0.3299  0.4252
 7082TIP3    H142661   0.978   3.822   5.157 -0.2123 -0.0470  1.3670
 7082TIP3    H242662   1.061   3.710   5.216 -0.5948  0.5612  3.0897
 7083TIP3   OH242663   3.358   1.654   5.897 -0.1759 -0.2464 -0.0762
 7083TIP3    H142664   3.279   1.690   5.937 -0.0749  0.2446 -0.3137
 7083TIP3    H242665   3.416   1.634   5.971 -1.0481 -1.9061  0.1969
 7084TIP3   OH242666   1.459   6.552   0.063 -0.2524 -0.4341  0.7913
 7084TIP3    H142667   1.406   6.631   0.048 -0.1219 -0.2111  1.4871
 7084TIP3    H242668   1.458   6.541   0.158 -0.3538 -1.3315  0.6901
 7085TIP3   OH242669   4.066   5.298   0.993 -0.0114  0.1189  0.2014
 7085TIP3    H142670   4.025   5.215   0.971 -0.5059  0.4408 -0.1047
 7085TIP3    H242671   3.994   5.352   1.026  0.3254  0.3931  0.4927
 7086TIP3   OH242672   3.703   4.474  11.731 -0.0272  0.2720  0.8055
 7086TIP3    H142673   3.645   4.426  11.791  0.7439 -1.2809  0.3162
 7086TIP3    H242674   3.729   4.410  11.665 -0.6822  1.9045 -1.0966
 7087TIP3   OH242675   1.004   5.774   0.325  0.1779 -0.0901  0.1781
 7087TIP3    H142676   1.057   5.846   0.288  0.5198 -0.0951  0.6582
 7087TIP3    H242677   1.067   5.722   0.375  0.1486 -1.3659 -1.0954
 7088TIP3   OH242678   2.628   1.327   0.434  0.4017 -0.4635 -0.1172
 7088TIP3    H142679   2.590   1.273   0.364  1.2564 -1.1992 -0.0263
 7088TIP3    H242680   2.707   1.280   0.460  1.2535  0.9268 -0.1543
 7089TIP3   OH242681   3.976   1.264   4.844  0.1052  0.2175  0.0165
 7089TIP3    H142682   3.885   1.250   4.869 -0.2021  0.0669 -1.1709
 7089TIP3    H242683   4.005   1.338   4.897 -0.9282  0.7263 -0.1290
 7090TIP3   OH242684   5.540   2.082   3.631 -0.0470 -0.4774 -0.2191
 7090TIP3    H142685   5.572   2.098   3.542  0.5036 -1.4063 -0.1931
 7090TIP3    H242686   5.553   1.988   3.645  2.1034  0.0667  1.6996
 7091TIP3   OH242687   5.354   6.305  12.770 -0.0561  0.6392 -0.7162
 7091TIP3    H142688   5.316   6.223  12.738  1.7439  0.4744 -2.5218
 7091TIP3    H242689   5.307   6.323  12.851 -0.7967 -1.9321 -0.5388
 7092TIP3   OH242690   0.481   6.540  15.676 -0.0464  0.1438 -0.4739
 7092TIP3    H142691   0.439   6.572  15.596 -0.5412  1.0912  0.1593
 7092TIP3    H242692   0.471   6.612  15.739  0.8400 -0.3732  0.2660
 7093TIP3   OH242693   2.123   3.446   0.915  0.3935 -0.0888  0.2106
 7093TIP3    H142694   2.198   3.387   0.921  0.7801  0.4134  0.3089
 7093TIP3    H242695   2.135   3.508   0.986 -0.6305 -0.5862  0.8408
 7094TIP3   OH242696   2.819   5.747  14.342 -1.1426 -0.1449 -0.5215
 7094TIP3    H142697   2.885   5.815  14.326 -2.2584  1.3147  0.8758
 7094TIP3    H242698   2.865   5.665  14.324  0.9081  0.8512 -0.1058
 7095TIP3   OH242699   1.455   3.547  14.530 -0.2225 -0.5767 -0.0290
 7095TIP3    H142700   1.459   3.640  14.549  0.8402 -0.3736 -1.1648
 7095TIP3    H242701   1.370   3.534  14.488 -0.2019 -0.0495 -0.2325
 7096TIP3   OH242702   6.414   6.346  11.403 -0.1756 -0.0864  0.3339
 7096TIP3    H142703   6.320   6.347  11.386  0.2540  1.3669 -2.2613
 7096TIP3    H242704   6.432   6.430  11.444  0.5333  1.3204 -2.7346
 7097TIP3   OH242705   0.283   5.160   3.343  0.3553  0.2767  0.1006
 7097TIP3    H142706   0.339   5.188   3.270 -1.2594 -2.5268 -2.2784
 7097TIP3    H242707   0.213   5.226   3.346  0.7325  0.7133 -0.4939
 7098TIP3   OH242708   0.998   3.772   4.274  0.4879  0.3436  0.8598
 7098TIP3    H142709   0.919   3.792   4.324  0.0021 -0.9055  0.5796
 7098TIP3    H242710   1.034   3.694   4.316  0.9210  0.2035  0.2379
 7099TIP3   OH242711   4.524   1.998  12.415 -0.3825 -0.5343 -0.0482
 7099TIP3    H142712   4.546   1.948  12.337  1.2790  1.1009 -0.6510
 7099TIP3    H242713   4.481   2.077  12.382 -2.6538 -1.3382  0.8786
 7100TIP3   OH242714   1.112   4.974   4.450  0.4155  0.8164 -0.4176
 7100TIP3    H142715   1.029   4.946   4.490  0.5884  2.2190  0.9725
 7100TIP3    H242716   1.112   4.933   4.364 -1.0594 -0.3791  0.1200
 7101TIP3   OH242717   2.294   4.746   0.203  0.4334 -0.4857  0.4906
 7101TIP3    H142718   2.361   4.780   0.143 -0.0134 -0.7021 -0.1353
 7101TIP3    H242719   2.228   4.815   0.208 -0.0152 -0.8738 -0.0471
 7102TIP3   OH242720   2.744   1.667   3.766  0.2480  0.3033 -0.3525
 7102TIP3    H142721   2.784   1.701   3.846  0.3819 -0.7223  0.0242
 7102TIP3    H242722   2.651   1.664   3.786  0.0332  2.0855 -1.0047
 7103TIP3   OH242723   2.476   5.617   2.204  0.2943  0.3490 -0.2672
 7103TIP3    H142724   2.544   5.682   2.221  0.2426  0.7459 -1.4960
 7103TIP3    H242725   2.407   5.637   2.267  0.8011  0.7251  0.1665
 7104TIP3   OH242726   4.577   4.548  13.241 -0.9392  0.4453  0.6796
 7104TIP3    H142727   4.657   4.561  13.292 -1.3874  1.3877  1.1483
 7104TIP3    H242728   4.522   4.623  13.263 -2.0420 -0.3176  0.5210
 7105TIP3   OH242729   2.558   3.496  15.874 -0.1456  0.2366 -0.3358
 7105TIP3    H142730   2.528   3.567  15.931 -0.9601  0.9274 -1.6015
 7105TIP3    H242731   2.502   3.502  15.797  0.6638 -0.9542 -1.0316
 7106TIP3   OH242732   0.819   4.591   2.175 -0.3994  0.5354  0.3219
 7106TIP3    H142733   0.863   4.572   2.258 -0.7870 -1.7425  0.0446
 7106TIP3    H242734   0.738   4.541   2.179  0.3360 -0.9341 -2.0856
 7107TIP3   OH242735   6.485   4.350  13.964 -0.2411  0.5665  0.2493
 7107TIP3    H142736   6.558   4.303  13.922  1.1836 -0.7390  3.9558
 7107TIP3    H242737   6.416   4.284  13.971 -0.0652  0.4433  0.8972
 7108TIP3   OH242738   2.700   0.178  12.066  0.3933  0.0802 -0.4574
 7108TIP3    H142739   2.608   0.200  12.053 -0.1670 -1.0647  1.3799
 7108TIP3    H242740   2.732   0.244  12.127  0.5490 -0.0531 -0.3941
 7109TIP3   OH242741   6.638   5.164   1.157  0.2856  0.3944 -0.0922
 7109TIP3    H142742   6.629   5.248   1.201 -0.7119  0.4060 -0.3048
 7109TIP3    H242743   6.673   5.105   1.225 -0.3966  0.6306  0.4710
 7110TIP3   OH242744   2.110   0.529  11.509  0.2126  0.5703 -0.4923
 7110TIP3    H142745   2.156   0.487  11.582  0.0384 -1.3937 -1.5015
 7110TIP3    H242746   2.139   0.482  11.431 -2.9246 -0.2762 -1.2371
 7111TIP3   OH242747   1.769   5.937  12.657 -0.3366 -0.1664 -0.4927
 7111TIP3    H142748   1.778   6.031  12.671 -3.6823  0.4926 -2.2386
 7111TIP3    H242749   1.804   5.922  12.568 -0.1806 -0.5219 -0.3745
 7112TIP3   OH242750   1.051   0.963  16.193 -0.3749  0.1348  0.2102
 7112TIP3    H142751   1.146   0.960  16.207  0.0225 -0.6898 -2.3425
 7112TIP3    H242752   1.017   0.887  16.239  0.2791  0.1229  0.6779
 7113TIP3   OH242753   6.351   2.547  17.164 -0.2178  0.0996 -0.4696
 7113TIP3    H142754   6.357   2.627  17.112 -1.8739  0.5778  0.0616
 7113TIP3    H242755   6.324   2.577  17.251 -0.1861 -0.9703 -0.0864
 7114TIP3   OH242756   1.031   4.046  15.164 -0.1406  0.1643  0.0766
 7114TIP3    H142757   1.098   4.079  15.224  0.3336  0.0911 -0.3983
 7114TIP3    H242758   1.020   4.116  15.099  2.1775 -1.2677 -1.9691
 7115TIP3   OH242759   1.782   1.847  11.581 -0.0297 -0.4070  0.1792
 7115TIP3    H142760   1.847   1.918  11.579 -0.3800 -0.0117  2.0350
 7115TIP3    H242761   1.726   1.869  11.655 -0.5320 -2.2891  0.3580
 7116TIP3   OH242762   3.654   6.177   1.399  0.2570 -0.3213  0.1210
 7116TIP3    H142763   3.714   6.130   1.456  0.8234  0.3315  0.0644
 7116TIP3    H242764   3.567   6.153   1.431  0.5542 -0.6323  0.7075
 7117TIP3   OH242765   1.975   0.106  15.323 -0.0472 -0.3328  0.1038
 7117TIP3    H142766   1.880   0.104  15.330 -0.0846  1.6738  0.2564
 7117TIP3    H242767   2.006   0.113  15.414  0.3241 -2.6825  0.1942
 7118TIP3   OH242768   0.155   2.329   5.496  0.8179  0.6939  0.2857
 7118TIP3    H142769   0.153   2.297   5.586  0.4213 -0.3535 -0.0865
 7118TIP3    H242770   0.228   2.283   5.455  0.5322  0.6036 -0.1284
 7119TIP3   OH242771   0.292   2.268   1.377  0.1612 -0.2039 -0.4659
 7119TIP3    H142772   0.286   2.209   1.453  0.5305  0.3835  0.0244
 7119TIP3    H242773   0.274   2.212   1.302 -0.0203 -0.8339  0.0427
 7120TIP3   OH242774   5.469   2.820  17.089 -0.4603 -0.1738 -0.0015
 7120TIP3    H142775   5.508   2.771  17.016  1.6785  1.9252 -0.3320
 7120TIP3    H242776   5.498   2.910  17.076 -1.3832  0.5454  2.5612
 7121TIP3   OH242777   6.335   2.952  12.814 -0.2323 -0.1959  0.6166
 7121TIP3    H142778   6.396   2.931  12.884  0.2579  2.1684  0.9652
 7121TIP3    H242779   6.391   2.975  12.740 -0.7363 -0.8980  0.0051
 7122TIP3   OH242780   5.277   2.195   5.463  0.6318 -0.1267  0.3933
 7122TIP3    H142781   5.288   2.250   5.541  0.7164  0.0914  0.2262
 7122TIP3    H242782   5.345   2.225   5.402 -0.4628  0.7883 -0.3932
 7123TIP3   OH242783   3.509   1.215   1.844  0.2477 -0.4955 -0.1587
 7123TIP3    H142784   3.439   1.153   1.823 -1.7911  1.0204  1.9553
 7123TIP3    H242785   3.566   1.167   1.904 -0.8293 -0.6656  0.7511
 7124TIP3   OH242786   0.478   1.057   6.064 -0.1909  0.4164  0.0918
 7124TIP3    H142787   0.564   1.021   6.042 -0.7593 -0.5662 -0.5487
 7124TIP3    H242788   0.458   1.019   6.149 -0.1735  0.3280  0.0567
 7125TIP3   OH242789   5.518   2.337  13.664  0.5623 -0.3111  0.8535
 7125TIP3    H142790   5.479   2.270  13.608  1.0233  0.7697 -0.7870
 7125TIP3    H242791   5.561   2.288  13.734 -1.5409 -1.6164  1.2759
 7126TIP3   OH242792   0.621   2.533  12.319 -0.3872 -0.1575 -0.2376
 7126TIP3    H142793   0.577   2.524  12.404  0.5539 -0.0318  0.2706
 7126TIP3    H242794   0.647   2.625  12.315 -1.1783  0.0361 -1.0424
 7127TIP3   OH242795   2.875   4.789   2.689 -0.2912  0.4702 -0.1814
 7127TIP3    H142796   2.915   4.787   2.602 -1.6613 -0.7908 -0.7945
 7127TIP3    H242797   2.805   4.853   2.682  1.0056  2.0288  0.6524
 7128TIP3   OH242798   1.113   2.051  16.357  0.0957 -0.8094 -0.3902
 7128TIP3    H142799   1.040   2.021  16.412  1.3441 -3.8789 -0.3291
 7128TIP3    H242800   1.081   2.042  16.268 -0.3623 -0.0291 -0.3143
 7129TIP3   OH242801   3.265   1.780  12.634  0.2025 -0.0926 -0.9885
 7129TIP3    H142802   3.219   1.862  12.618  0.2297 -0.2907 -2.0648
 7129TIP3    H242803   3.328   1.802  12.703  0.2453  0.8020 -1.3075
 7130TIP3   OH242804   4.721   0.418   3.682 -0.4843  0.1762  0.3350
 7130TIP3    H142805   4.693   0.366   3.757  0.0012 -1.8607 -0.8264
 7130TIP3    H242806   4.814   0.398   3.673 -0.8495 -0.8269 -1.6764
 7131TIP3   OH242807   6.207   2.465   1.216  0.2568 -0.1099  0.3286
 7131TIP3    H142808   6.279   2.489   1.275 -0.3658  2.8493 -0.0624
 7131TIP3    H242809   6.224   2.514   1.136  0.6304 -3.4644 -1.7063
 7132TIP3   OH242810   4.448   4.824  13.173 -0.1047  0.8849 -0.1133
 7132TIP3    H142811   4.410   4.911  13.182  1.3370  1.4182  1.1746
 7132TIP3    H242812   4.385   4.766  13.215 -1.2806  1.2276 -1.3537
 7133TIP3   OH242813   5.352   3.958  13.981  0.2407  0.2510 -0.5494
 7133TIP3    H142814   5.392   3.899  13.917 -0.7748 -2.1583  0.9752
 7133TIP3    H242815   5.388   3.929  14.065 -1.0365  1.1688  0.3208
 7134TIP3   OH242816   3.106   2.007  12.655  0.2735 -0.2524  0.4109
 7134TIP3    H142817   3.049   2.074  12.616  0.0639  0.4268  1.8782
 7134TIP3    H242818   3.062   1.983  12.737  0.8682 -1.4626  0.3847
 7135TIP3   OH242819   2.278   0.625  16.862 -0.2122  0.4604 -0.3078
 7135TIP3    H142820   2.224   0.605  16.938 -0.0059  0.1690 -0.2378
 7135TIP3    H242821   2.247   0.710  16.832  0.1653  0.8904  0.5063
 7136TIP3   OH242822   4.269   0.903   3.016 -0.0436 -0.4417  0.4915
 7136TIP3    H142823   4.207   0.894   2.943 -1.4602  1.4904  1.3777
 7136TIP3    H242824   4.339   0.958   2.980  0.5770 -1.6289 -0.1547
 7137TIP3   OH242825   1.973   0.787   5.394  0.2028  0.4912 -0.2187
 7137TIP3    H142826   2.018   0.872   5.396 -0.1638  0.6496  1.3979
 7137TIP3    H242827   2.006   0.745   5.314  2.1878  1.1562  0.2169
 7138TIP3   OH242828   0.987   5.034  12.320  0.1982  0.8438 -0.5919
 7138TIP3    H142829   1.077   5.008  12.302 -0.2529  0.1176 -1.8433
 7138TIP3    H242830   0.966   5.098  12.252 -0.3663  0.7087 -0.5477
 7139TIP3   OH242831   0.591   2.914   6.204  0.0486 -0.2334 -0.2860
 7139TIP3    H142832   0.600   2.877   6.116  1.3921 -0.6936  0.0210
 7139TIP3    H242833   0.594   2.838   6.262  0.3136  0.1556  0.2122
 7140TIP3   OH242834   2.835   4.585   2.905  0.6617 -0.6253  1.0966
 7140TIP3    H142835   2.846   4.662   2.848 -1.0523  0.0794  1.6690
 7140TIP3    H242836   2.804   4.621   2.988 -0.8793 -1.9877  1.1384
 7141TIP3   OH242837   4.141   6.756  12.490 -0.8529  0.0478  0.4029
 7141TIP3    H142838   4.119   6.676  12.537  1.4247 -1.1358 -0.4727
 7141TIP3    H242839   4.079   6.758  12.417  0.2554 -1.9017 -0.6263
 7142TIP3   OH242840   5.033   0.556   4.319  0.8005  0.5914 -0.3492
 7142TIP3    H142841   5.040   0.461   4.308  1.7766  0.6581 -0.3879
 7142TIP3    H242842   4.943   0.571   4.347 -0.0793 -0.1257 -2.6844
 7143TIP3   OH242843   5.756   3.519  16.760  0.0539  0.4091 -0.4676
 7143TIP3    H142844   5.695   3.518  16.833  0.9821 -1.8491  0.3066
 7143TIP3    H242845   5.823   3.583  16.785  0.8463 -0.9872  1.1038
 7144TIP3   OH242846   3.734   6.225   5.601 -0.6971  0.3007  0.0124
 7144TIP3    H142847   3.816   6.201   5.644 -0.2019  0.0446 -1.0554
 7144TIP3    H242848   3.669   6.166   5.640 -0.3064  0.2373  0.5815
 7145TIP3   OH242849   5.767   6.353   5.069  0.4313 -0.1526 -0.1084
 7145TIP3    H142850   5.684   6.317   5.038  1.3391 -1.1956 -1.3932
 7145TIP3    H242851   5.813   6.278   5.108  0.3676  0.6272  1.5347
 7146TIP3   OH242852   5.179   4.767  12.620 -0.0150 -0.4726  0.3376
 7146TIP3    H142853   5.114   4.721  12.567 -0.0305 -1.4696  1.2094
 7146TIP3    H242854   5.210   4.838  12.564 -1.0300 -0.6820 -0.4988
 7147TIP3   OH242855   1.594   3.597  16.890  0.3532 -0.3703  0.3701
 7147TIP3    H142856   1.615   3.536  16.819  1.6119  0.5430 -0.0732
 7147TIP3    H242857   1.662   3.582  16.955 -1.1943 -1.6894  1.7304
 7148TIP3   OH242858   0.672   4.443  15.227  0.6288 -0.2303 -0.0411
 7148TIP3    H142859   0.602   4.498  15.191 -1.2186 -2.9539 -0.7374
 7148TIP3    H242860   0.658   4.447  15.322  0.0039 -0.1256 -0.1343
 7149TIP3   OH242861   4.048   3.416   5.025 -0.3464 -0.5935  0.3631
 7149TIP3    H142862   4.062   3.326   4.998 -1.5436 -1.3992  2.2730
 7149TIP3    H242863   4.097   3.424   5.107  2.3990  1.4733 -1.4131
 7150TIP3   OH242864   5.510   2.872  12.981 -0.1613  0.2926 -0.0651
 7150TIP3    H142865   5.434   2.828  12.943  0.5054  0.4622 -1.6434
 7150TIP3    H242866   5.585   2.827  12.942  0.5454  0.7345  0.7759
 7151TIP3   OH242867   1.308   3.377  15.035  0.0169 -0.1659  0.1577
 7151TIP3    H142868   1.256   3.339  15.105 -0.3123 -1.5794 -0.8290
 7151TIP3    H242869   1.386   3.321  15.029  0.9856  1.1072  0.6934
 7152TIP3   OH242870   5.199   1.842  14.036 -0.1257 -0.0489 -0.4181
 7152TIP3    H142871   5.111   1.817  14.065  0.9224 -1.6034  1.5657
 7152TIP3    H242872   5.229   1.767  13.985 -0.5787  1.2011 -2.5954
 7153TIP3   OH242873   5.703   0.194   6.348  0.4918  0.1912  0.1989
 7153TIP3    H142874   5.611   0.206   6.322  0.5739  1.7855  0.6067
 7153TIP3    H242875   5.704   0.110   6.394 -1.0968  0.9459  1.6691
 7154TIP3   OH242876   6.192   3.064   6.582  0.0182  0.2036  0.3737
 7154TIP3    H142877   6.275   3.097   6.548 -0.9142  0.6866 -1.4503
 7154TIP3    H242878   6.205   2.969   6.588  0.7650  0.2987  0.2577
 7155TIP3   OH242879   5.138   5.912  15.323 -0.3043 -0.0021 -0.7996
 7155TIP3    H142880   5.150   6.004  15.346  1.2658  0.0039 -1.5231
 7155TIP3    H242881   5.074   5.879  15.386 -0.0027  1.2991  0.2115
 7156TIP3   OH242882   2.349   5.270  16.422 -0.0958  0.3062 -0.0840
 7156TIP3    H142883   2.359   5.181  16.456  1.6279  0.7039  0.5047
 7156TIP3    H242884   2.338   5.257  16.328 -0.1916 -0.5552  0.0357
 7157TIP3   OH242885   3.071   6.238   5.056 -0.0906 -0.5056 -0.0455
 7157TIP3    H142886   3.136   6.197   4.999 -1.7399 -1.4969 -1.2290
 7157TIP3    H242887   3.037   6.311   5.005  0.1908  0.1118  0.6397
 7158TIP3   OH242888   0.249   3.787  11.842  0.1011  0.6595  0.0526
 7158TIP3    H142889   0.306   3.723  11.801 -0.0070  1.2385 -1.0339
 7158TIP3    H242890   0.303   3.865  11.852  0.3781  0.2546  1.8273
 7159TIP3   OH242891   5.948   4.951  16.639  0.7758  0.3755 -0.0323
 7159TIP3    H142892   6.025   4.915  16.682  0.0109 -1.5222 -0.1757
 7159TIP3    H242893   5.965   4.941  16.545  0.9614  1.2484 -0.0855
 7160TIP3   OH242894   4.930   6.165   1.785 -0.1282 -0.0138  0.1174
 7160TIP3    H142895   4.995   6.234   1.769  0.9831 -1.1140 -0.1247
 7160TIP3    H242896   4.932   6.152   1.880 -0.5994  0.5201  0.2080
 7161TIP3   OH242897   4.569   0.834   3.058 -0.2462  0.5296  0.6026
 7161TIP3    H142898   4.579   0.741   3.079  1.3878  0.5916  0.2085
 7161TIP3    H242899   4.561   0.836   2.962 -1.3119  0.7293  0.6878
 7162TIP3   OH242900   6.448   4.277   5.344  0.3308  0.3507 -0.1822
 7162TIP3    H142901   6.541   4.257   5.354  0.2576  0.3222  0.4242
 7162TIP3    H242902   6.432   4.351   5.402 -0.0133  0.3960 -0.3312
 7163TIP3   OH242903   2.329   6.673   3.618  0.2582  0.0050 -0.1864
 7163TIP3    H142904   2.379   6.755   3.625  0.6260 -0.2334 -0.0468
 7163TIP3    H242905   2.385   6.607   3.659  0.2973 -0.4604 -0.9721
 7164TIP3   OH242906   6.634   2.765   3.216  0.3942  0.9015 -0.1763
 7164TIP3    H142907   6.551   2.768   3.169  0.3043 -0.5028 -0.1238
 7164TIP3    H242908   6.696   2.729   3.153  0.3019 -0.8766  0.7373
 7165TIP3   OH242909   0.214   3.234   5.791  0.0175 -0.0617  0.5869
 7165TIP3    H142910   0.256   3.155   5.756  1.4777  0.4185  1.2223
 7165TIP3    H242911   0.120   3.218   5.780  0.3078 -1.7516  0.4250
 7166TIP3   OH242912   6.153   5.900   2.617  0.2330  0.0485 -0.7099
 7166TIP3    H142913   6.106   5.933   2.540  0.0413  0.7106 -0.3203
 7166TIP3    H242914   6.112   5.946   2.691 -1.2235 -2.3572  0.0363
 7167TIP3   OH242915   6.707   2.464   0.542  0.5570  0.3479  0.3412
 7167TIP3    H142916   6.798   2.489   0.561  0.6610 -0.1284  0.4569
 7167TIP3    H242917   6.710   2.369   0.531  0.3087  0.4714 -0.9503
 7168TIP3   OH242918   4.197   2.011  13.516 -0.1353 -0.7450 -0.0806
 7168TIP3    H142919   4.250   2.053  13.449 -0.3870 -0.8283 -0.3336
 7168TIP3    H242920   4.206   1.917  13.498  0.5501 -0.8172  0.5705
 7169TIP3   OH242921   1.851   2.228   3.323  0.1763 -0.6853 -0.8237
 7169TIP3    H142922   1.918   2.224   3.255  1.6400 -0.4042  0.5829
 7169TIP3    H242923   1.878   2.298   3.381 -1.9945  0.2508 -0.8781
 7170TIP3   OH242924   3.078   4.100  12.680  0.0488 -0.1930 -0.0580
 7170TIP3    H142925   3.022   4.025  12.658  0.4987 -0.9529  1.3075
 7170TIP3    H242926   3.032   4.176  12.645 -1.3904 -0.9148  0.2293
 7171TIP3   OH242927   6.432   1.915   4.556  0.6726 -0.0024 -0.0920
 7171TIP3    H142928   6.444   1.915   4.651 -0.6634  0.1315  0.0817
 7171TIP3    H242929   6.403   1.827   4.534  0.9704 -0.0326 -0.3891
 7172TIP3   OH242930   4.139   1.662   0.666 -0.5547 -0.5490  0.1045
 7172TIP3    H142931   4.202   1.592   0.651 -1.3229 -1.2102 -0.1019
 7172TIP3    H242932   4.113   1.691   0.578  0.2503  0.4524  0.1859
 7173TIP3   OH242933   3.509   2.012  15.007 -0.0285  0.0789 -0.7565
 7173TIP3    H142934   3.569   2.032  15.079 -0.6275 -0.9348  0.0523
 7173TIP3    H242935   3.545   1.934  14.966 -0.7603 -0.5193 -0.2853
 7174TIP3   OH242936   3.433   6.004   4.532 -0.1452 -0.0754  0.0678
 7174TIP3    H142937   3.474   6.024   4.447  0.5428 -1.2388  0.1149
 7174TIP3    H242938   3.388   5.921   4.518  1.0045 -0.8968  1.1760
 7175TIP3   OH242939   1.583   0.714   3.172  0.3914  0.1865 -0.3692
 7175TIP3    H142940   1.583   0.619   3.176  1.1578  0.1457 -1.1229
 7175TIP3    H242941   1.634   0.742   3.248 -0.9111  0.0494  0.5790
 7176TIP3   OH242942   2.145   5.970  11.085 -0.0426  0.0592 -0.2169
 7176TIP3    H142943   2.134   5.921  11.003  0.9511 -1.0737  0.3222
 7176TIP3    H242944   2.222   6.025  11.069  0.5082 -0.6013  0.1717
 7177TIP3   OH242945   0.569   0.737   4.718 -0.2638  0.3930 -0.4173
 7177TIP3    H142946   0.652   0.727   4.671  0.4417 -0.9272  1.0580
 7177TIP3    H242947   0.512   0.670   4.681 -0.2037  0.3537 -0.4385
 7178TIP3   OH242948   3.546   0.153  14.497 -0.3989 -0.4632  0.0086
 7178TIP3    H142949   3.508   0.177  14.582  0.3174  1.6209 -0.2376
 7178TIP3    H242950   3.481   0.184  14.433  0.1400  0.0620 -0.2842
 7179TIP3   OH242951   3.483   5.921  16.588 -0.2820 -0.2570 -0.3488
 7179TIP3    H142952   3.433   5.840  16.598  0.2811 -0.5869 -0.1692
 7179TIP3    H242953   3.573   5.891  16.570 -0.0392  0.3264 -0.0957
 7180TIP3   OH242954   3.501   6.188   0.388 -0.8314  0.5412  0.1870
 7180TIP3    H142955   3.492   6.094   0.372 -1.4480  0.4143  1.2062
 7180TIP3    H242956   3.471   6.229   0.307 -0.8226 -0.1345 -0.1629
 7181TIP3   OH242957   2.835   4.444   2.630 -0.4408 -0.3968  0.2211
 7181TIP3    H142958   2.873   4.513   2.576  0.7123 -1.3092 -0.1690
 7181TIP3    H242959   2.865   4.463   2.719  1.5293 -1.4719 -0.1780
 7182TIP3   OH242960   4.858   0.795   2.985  0.0076  0.0016  0.1538
 7182TIP3    H142961   4.834   0.728   3.050 -0.3436  0.5167  0.5618
 7182TIP3    H242962   4.791   0.787   2.917 -0.1185  0.0265  0.2730
 7183TIP3   OH242963   4.767   5.994  15.679 -0.2290  1.0951  0.0216
 7183TIP3    H142964   4.690   5.962  15.726 -1.9360  2.9233 -1.4688
 7183TIP3    H242965   4.820   5.915  15.664 -1.4089 -0.0596  1.7700
 7184TIP3   OH242966   2.887   2.547   1.160  0.4825  0.1261  0.6977
 7184TIP3    H142967   2.949   2.587   1.100  0.4107 -0.9478 -0.0984
 7184TIP3    H242968   2.938   2.483   1.209  0.2704  0.1185  0.9103
 7185TIP3   OH242969   4.286   2.732   2.342 -0.0318  0.0791  0.2742
 7185TIP3    H142970   4.359   2.740   2.404  2.0891 -0.5858 -2.0938
 7185TIP3    H242971   4.218   2.790   2.378  1.6075  0.6605  2.5505
 7186TIP3   OH242972   2.494   4.960   0.785 -0.1873 -0.2785  0.5806
 7186TIP3    H142973   2.458   4.899   0.721  0.1836 -0.8442  0.9108
 7186TIP3    H242974   2.426   4.968   0.852 -0.5820  0.3278  0.1076
 7187TIP3   OH242975   3.811   5.846   3.326  0.5796  0.4530  0.0800
 7187TIP3    H142976   3.895   5.883   3.299  1.4440 -0.1983  1.7665
 7187TIP3    H242977   3.758   5.922   3.350  0.1438  0.9644 -2.4284
 7188TIP3   OH242978   1.159   6.325   0.202 -0.1838  0.2427 -0.0076
 7188TIP3    H142979   1.220   6.264   0.160  0.7421  1.3716 -0.3079
 7188TIP3    H242980   1.118   6.372   0.129  0.9426  1.7399  0.3018
 7189TIP3   OH242981   5.354   4.728   2.288  0.0624 -0.5770  0.4986
 7189TIP3    H142982   5.362   4.817   2.323 -1.5668  0.0080 -0.5203
 7189TIP3    H242983   5.441   4.691   2.296  1.2260  1.7778 -0.7039
 7190TIP3   OH242984   1.248   2.387   2.987  0.3123 -0.9120 -0.0639
 7190TIP3    H142985   1.293   2.303   2.994 -1.0781 -1.9285 -2.6986
 7190TIP3    H242986   1.176   2.381   3.049  0.7834 -1.2890  0.4467
 7191TIP3   OH242987   4.176   4.279   0.478  0.4060 -0.3095 -0.2180
 7191TIP3    H142988   4.264   4.245   0.461 -0.0346 -1.4385 -0.3133
 7191TIP3    H242989   4.185   4.330   0.559  1.4248  0.7330 -0.9663
 7192TIP3   OH242990   0.337   5.582   4.364  0.2240  0.8132  0.1224
 7192TIP3    H142991   0.385   5.542   4.291 -0.4298 -1.1514  0.7426
 7192TIP3    H242992   0.253   5.607   4.326  0.3094  0.8245 -0.0624
 7193TIP3   OH242993   0.708   1.135  11.464  0.0700  0.1056  0.1391
 7193TIP3    H142994   0.647   1.083  11.413  0.2090 -0.0111  0.0899
 7193TIP3    H242995   0.774   1.163  11.400  0.0569  0.2463  0.1867
 7194TIP3   OH242996   4.885   1.980   2.044 -0.6242 -1.0680  0.1184
 7194TIP3    H142997   4.800   2.010   2.073 -0.6879 -1.1652  0.0353
 7194TIP3    H242998   4.928   2.058   2.009 -0.5620 -0.9620  0.4373
 7195TIP3   OH242999   2.893   6.415   2.735 -0.2985 -0.0036  0.1985
 7195TIP3    H143000   2.885   6.367   2.818 -0.0923 -1.2139 -0.4708
 7195TIP3    H243001   2.910   6.505   2.761  2.0505 -0.7675  1.4891
 7196TIP3   OH243002   2.500   3.828   2.814 -0.2486 -0.5875  0.1337
 7196TIP3    H143003   2.522   3.914   2.852 -0.9699 -0.4008  0.1350
 7196TIP3    H243004   2.504   3.768   2.888  1.1886 -0.7272 -0.0396
 7197TIP3   OH243005   4.009   0.274  14.099 -0.0664  0.2243  0.0727
 7197TIP3    H143006   4.090   0.317  14.070 -0.6973  2.2235  1.1696
 7197TIP3    H243007   4.013   0.187  14.059  1.4915  1.1134 -1.8303
 7198TIP3   OH243008   6.390   5.651  10.674 -0.2185 -0.3442 -0.3425
 7198TIP3    H143009   6.307   5.688  10.704 -1.1023 -0.0643 -2.9449
 7198TIP3    H243010   6.397   5.680  10.583  3.0779  0.1877  0.0209
 7199TIP3   OH243011   6.043   4.715  13.988 -0.0368  0.2100 -0.1049
 7199TIP3    H143012   6.023   4.651  13.919 -1.1287  0.1367  0.2665
 7199TIP3    H243013   6.135   4.736  13.975  0.6571 -2.3382  0.4831
 7200TIP3   OH243014   4.185   5.244   1.275  0.0912  0.4308 -0.0981
 7200TIP3    H143015   4.166   5.153   1.296  0.1304  0.8054  1.6561
 7200TIP3    H243016   4.128   5.265   1.201  0.0202 -0.9780 -0.4540
 7201TIP3   OH243017   4.071   1.412  15.833  0.2249 -0.2570 -0.0847
 7201TIP3    H143018   4.008   1.340  15.842 -1.5466  1.2248 -0.2084
 7201TIP3    H243019   4.120   1.411  15.915 -1.6847  0.1182  1.1108
 7202TIP3   OH243020   4.551   2.067   4.836 -0.2612  0.3398  0.0632
 7202TIP3    H143021   4.547   1.977   4.803 -1.3317  0.1946  0.5529
 7202TIP3    H243022   4.467   2.080   4.880 -0.5093  1.8923 -0.8191
 7203TIP3   OH243023   0.608   4.390  10.554  0.2510 -0.2166  0.3704
 7203TIP3    H143024   0.597   4.384  10.649  0.2338  1.0154  0.4551
 7203TIP3    H243025   0.691   4.345  10.537  0.6898  0.3144  1.0739
 7204TIP3   OH243026   1.798   2.896  10.215  0.3200 -0.1708 -0.2058
 7204TIP3    H143027   1.707   2.877  10.239  0.3260  1.4485  1.2342
 7204TIP3    H243028   1.791   2.961  10.145  0.3683 -0.8205 -0.8199
 7205TIP3   OH243029   0.212   1.372   5.438 -0.3512 -0.3247  0.2048
 7205TIP3    H143030   0.173   1.380   5.351 -1.7297 -0.4638  0.7974
 7205TIP3    H243031   0.141   1.341   5.494  0.4779 -0.0958  1.4165
 7206TIP3   OH243032   4.068   0.260  16.533 -0.2630  0.7454 -0.0725
 7206TIP3    H143033   4.155   0.292  16.557  0.2742  0.0246 -1.0116
 7206TIP3    H243034   4.072   0.251  16.438 -1.3305  0.6161 -0.1014
 7207TIP3   OH243035   3.933   4.902   5.794 -0.4643  0.0086  0.4048
 7207TIP3    H143036   3.983   4.852   5.729  1.9694  0.9958  1.4518
 7207TIP3    H243037   3.890   4.835   5.847  0.1396 -0.8908 -0.2224
 7208TIP3   OH243038   3.896   3.002  13.698  1.2026  0.0918  0.1148
 7208TIP3    H143039   3.922   3.074  13.640  1.2951 -1.9449 -2.4824
 7208TIP3    H243040   3.802   2.992  13.684  0.9828  0.3809  1.2946
 7209TIP3   OH243041   1.933   2.493  12.180 -0.3133  0.1927  0.5431
 7209TIP3    H143042   1.975   2.471  12.263  0.8921  1.2213  0.2198
 7209TIP3    H243043   1.999   2.470  12.114 -0.1485  2.0494  0.0436
 7210TIP3   OH243044   3.939   0.563   3.571  0.0141  0.4198 -0.0141
 7210TIP3    H143045   3.941   0.470   3.593 -1.2366  0.5273  0.6093
 7210TIP3    H243046   4.007   0.602   3.625 -0.3155  0.0596  0.6675
 7211TIP3   OH243047   4.415   4.504  12.728 -0.2623  0.0531  0.2625
 7211TIP3    H143048   4.346   4.560  12.692  0.0426  0.1480 -0.1766
 7211TIP3    H243049   4.458   4.559  12.793 -0.5380  0.0258  0.4698
 7212TIP3   OH243050   6.233   5.559  14.239 -0.0294  1.1268 -0.0157
 7212TIP3    H143051   6.177   5.482  14.226  1.2382  0.2638 -0.4825
 7212TIP3    H243052   6.174   5.626  14.273 -0.9089 -0.4259  1.5800
 7213TIP3   OH243053   1.248   4.153   5.460  0.7249 -0.6124  0.5518
 7213TIP3    H143054   1.268   4.225   5.400  0.9513 -0.7609  0.4457
 7213TIP3    H243055   1.154   4.137   5.447  0.7244 -0.4949  0.3997
 7214TIP3   OH243056   0.090   3.857   2.415 -0.2833 -0.0608 -0.3329
 7214TIP3    H143057   0.008   3.895   2.385 -0.6939 -2.8658 -2.9677
 7214TIP3    H243058   0.150   3.867   2.340  0.6454 -1.3386  0.2142
 7215TIP3   OH243059   3.861   2.357  12.270  0.6466 -0.5030 -0.1639
 7215TIP3    H143060   3.873   2.357  12.365  0.6740  1.2980 -0.1506
 7215TIP3    H243061   3.927   2.295  12.238  0.1798 -1.6621  1.0265
 7216TIP3   OH243062   0.673   1.846   2.576 -0.1266  0.2693 -0.6554
 7216TIP3    H143063   0.598   1.893   2.539 -0.2190 -1.2513 -2.4710
 7216TIP3    H243064   0.748   1.879   2.528  0.0049 -0.2189 -0.7936
 7217TIP3   OH243065   0.540   4.612   2.362 -0.5530  0.5001 -0.2382
 7217TIP3    H143066   0.514   4.701   2.387 -0.8651  0.3020  0.1578
 7217TIP3    H243067   0.534   4.561   2.443  0.8089  0.3771 -0.2055
 7218TIP3   OH243068   0.777   3.056   0.236 -0.1245 -0.5997  0.2045
 7218TIP3    H143069   0.741   2.968   0.225  0.7018 -0.8849 -0.2846
 7218TIP3    H243070   0.851   3.044   0.295  0.4648 -0.3586 -0.4719
 7219TIP3   OH243071   2.555   3.266  16.377 -0.2520  0.3287 -0.1274
 7219TIP3    H143072   2.609   3.304  16.308 -0.7012 -0.5653 -0.9796
 7219TIP3    H243073   2.495   3.208  16.331 -0.7587 -0.0395  0.9890
 7220TIP3   OH243074   1.863   1.812   4.872  0.5213 -0.0478 -0.1483
 7220TIP3    H143075   1.953   1.783   4.892  0.1554 -0.7746  0.4746
 7220TIP3    H243076   1.807   1.742   4.907 -0.2579 -0.0351 -1.3499
 7221TIP3   OH243077   3.794   2.952  16.338  0.1302 -0.5699  0.9175
 7221TIP3    H143078   3.737   2.953  16.261 -1.4825 -1.0307  2.0790
 7221TIP3    H243079   3.769   2.873  16.385  1.8751 -0.8746  1.3572
 7222TIP3   OH243080   4.686   4.096   0.401  0.2996 -0.1297  0.2351
 7222TIP3    H143081   4.683   4.073   0.309 -0.0899 -0.5693  0.3556
 7222TIP3    H243082   4.779   4.097   0.423  0.5435  2.2076 -0.7014
 7223TIP3   OH243083   2.201   0.130  10.917 -0.4326 -0.0517  0.2828
 7223TIP3    H143084   2.156   0.181  10.851  2.2034  1.7590 -0.2086
 7223TIP3    H243085   2.195   0.040  10.887  2.4970  0.9288 -3.6038
 7224TIP3   OH243086   1.027   4.580   3.732 -0.4597  0.0213  0.0142
 7224TIP3    H143087   0.983   4.648   3.782  2.8373  0.6599  2.2115
 7224TIP3    H243088   1.017   4.501   3.785  1.8550  0.4087  1.1231
 7225TIP3   OH243089   1.048   3.709   0.971  0.1984 -0.3721 -0.7737
 7225TIP3    H143090   0.986   3.752   1.029  1.7765 -0.0033  0.6915
 7225TIP3    H243091   1.040   3.757   0.888  0.0134  1.0260  0.0303
 7226TIP3   OH243092   5.554   6.650   2.012  0.4996  0.2667 -0.4285
 7226TIP3    H143093   5.533   6.565   2.052  0.7960  1.0863  1.5369
 7226TIP3    H243094   5.492   6.711   2.052  1.0131  1.1681 -0.9976
 7227TIP3   OH243095   3.070   1.539  14.827 -0.2866 -0.2046  0.0614
 7227TIP3    H143096   3.141   1.517  14.766  1.2659 -1.3335  2.2368
 7227TIP3    H243097   3.074   1.635  14.834  2.5240 -0.4143  1.8942
 7228TIP3   OH243098   3.720   4.647   3.964  0.0797  0.4455 -0.1087
 7228TIP3    H143099   3.657   4.619   4.031 -0.3233  1.0413 -0.2322
 7228TIP3    H243100   3.681   4.619   3.881  0.0574  0.6676 -0.1731
 7229TIP3   OH243101   6.530   5.182   0.441 -0.3375  0.0092  0.3553
 7229TIP3    H143102   6.594   5.112   0.449  0.9192  1.2367  1.3350
 7229TIP3    H243103   6.505   5.181   0.349 -0.7486 -2.0550  0.4572
 7230TIP3   OH243104   3.417   1.503   4.489  0.5614 -0.9030  0.0402
 7230TIP3    H143105   3.381   1.464   4.568  2.0264 -1.1076  0.6142
 7230TIP3    H243106   3.486   1.443   4.461  1.0732 -0.0687 -0.5231
 7231TIP3   OH243107   0.229   1.250   3.799  0.4491 -0.1036  0.2597
 7231TIP3    H143108   0.237   1.249   3.704  0.1163 -1.9294  0.2389
 7231TIP3    H243109   0.311   1.213   3.831 -0.8342 -2.7526  0.5615
 7232TIP3   OH243110   5.315   5.074  14.551  0.2252 -0.1379  0.1478
 7232TIP3    H143111   5.312   5.170  14.545  0.9868 -0.1455 -0.6661
 7232TIP3    H243112   5.291   5.045  14.463 -0.3578 -0.7011  0.4971
 7233TIP3   OH243113   1.214   5.221   5.080 -0.1176 -0.5130 -0.6582
 7233TIP3    H143114   1.264   5.280   5.023  0.3044  0.6190  0.8683
 7233TIP3    H243115   1.263   5.139   5.077  1.9981  0.6512  0.9979
 7234TIP3   OH243116   3.317   0.905  14.171  0.0981 -0.1937 -0.0881
 7234TIP3    H143117   3.237   0.855  14.153 -0.1912  0.0340  0.5200
 7234TIP3    H243118   3.383   0.867  14.114 -0.1665 -1.1565  0.2437
 7235TIP3   OH243119   0.706   5.235  16.680  0.1400  0.5880  0.0355
 7235TIP3    H143120   0.767   5.166  16.655 -1.2769 -0.8865  0.5399
 7235TIP3    H243121   0.641   5.237  16.610 -1.0186 -0.0942  1.0551
 7236TIP3   OH243122   4.473   1.149   1.648  0.3259  0.1224  0.2878
 7236TIP3    H143123   4.431   1.160   1.563  0.5556  0.5890  0.2329
 7236TIP3    H243124   4.461   1.233   1.693  0.7299  0.0831  0.4796
 7237TIP3   OH243125   0.908   1.217  14.496 -0.4014  0.2033 -0.5064
 7237TIP3    H143126   0.940   1.275  14.426  0.5143  0.5706  0.2072
 7237TIP3    H243127   0.964   1.140  14.491 -0.5557  0.0818 -0.3875
 7238TIP3   OH243128   2.016   4.215  12.033 -0.2692  0.2001 -0.0107
 7238TIP3    H143129   2.005   4.303  12.067  1.1629  1.0471 -1.6363
 7238TIP3    H243130   2.073   4.171  12.096  1.6615  1.4717 -0.8408
 7239TIP3   OH243131   3.009   1.620   5.171  0.0419 -0.2983 -0.0415
 7239TIP3    H143132   3.007   1.526   5.188  1.2786 -0.4936 -0.8744
 7239TIP3    H243133   3.089   1.633   5.120 -1.2308  0.8786 -1.8092
 7240TIP3   OH243134   1.497   3.836   2.958  0.2320 -0.2504  0.7982
 7240TIP3    H143135   1.412   3.793   2.963  0.7082 -1.2968 -0.0809
 7240TIP3    H243136   1.476   3.928   2.943 -0.7784 -0.1861  2.4364
 7241TIP3   OH243137   3.061   3.395   5.946  0.1572  0.0294 -0.0348
 7241TIP3    H143138   3.038   3.433   5.860  1.4273 -1.2596 -0.9677
 7241TIP3    H243139   2.983   3.348   5.973 -0.1037  0.0784 -0.6980
 7242TIP3   OH243140   0.512   2.245  13.959  0.2910  0.0691 -1.3557
 7242TIP3    H143141   0.525   2.339  13.974 -0.2487 -0.3544  2.3655
 7242TIP3    H243142   0.600   2.212  13.939  1.0642  0.8823  0.5404
 7243TIP3   OH243143   2.745   2.328   2.468  0.0451  0.3267 -0.1359
 7243TIP3    H143144   2.818   2.367   2.516  0.0738  0.3700 -0.2151
 7243TIP3    H243145   2.787   2.272   2.403  0.0041 -1.2542  1.1542
 7244TIP3   OH243146   5.901   0.986   4.014  0.1090 -0.3215  0.1115
 7244TIP3    H143147   5.967   0.977   3.945 -2.0538 -0.5566 -1.9871
 7244TIP3    H243148   5.826   0.937   3.981 -3.3181  4.8836 -0.4246
 7245TIP3   OH243149   2.183   4.216  15.311  0.7593 -0.2069  0.3141
 7245TIP3    H143150   2.217   4.131  15.338  0.4137 -0.3573  0.2848
 7245TIP3    H243151   2.216   4.229  15.223  0.7946 -0.3229  0.3104
 7246TIP3   OH243152   4.647   6.286   0.631 -0.1826  0.2475 -0.6622
 7246TIP3    H143153   4.681   6.255   0.547 -0.4478 -0.7106 -0.4251
 7246TIP3    H243154   4.702   6.362   0.653 -0.0401  0.4300 -1.6387
 7247TIP3   OH243155   3.914   3.530  15.545 -0.3260  0.4649 -0.2707
 7247TIP3    H143156   3.869   3.523  15.461 -1.0727  0.0412  0.1551
 7247TIP3    H243157   3.889   3.617  15.577 -0.3267  0.4852 -0.3251
 7248TIP3   OH243158   6.184   6.771  11.069 -0.9038  0.7738  0.1650
 7248TIP3    H143159   6.149   6.849  11.026  0.1426  1.0794 -0.1395
 7248TIP3    H243160   6.107   6.717  11.086 -1.4010  0.8669 -1.6411
 7249TIP3   OH243161   6.414   0.468  13.986  0.2468  0.2116  0.2858
 7249TIP3    H143162   6.345   0.503  14.042  1.0208  2.6367 -0.2382
 7249TIP3    H243163   6.374   0.460  13.900 -0.5220 -2.1987  0.8051
 7250TIP3   OH243164   1.270   4.987  14.846  0.0342 -0.2593  0.6065
 7250TIP3    H143165   1.344   5.046  14.863  0.8661 -1.4679  1.2522
 7250TIP3    H243166   1.281   4.961  14.755  0.2210 -0.1693  0.6013
 7251TIP3   OH243167   0.472   4.653  11.693  0.3127  0.1162 -0.8620
 7251TIP3    H143168   0.407   4.612  11.637 -1.9836  0.7458  1.2082
 7251TIP3    H243169   0.484   4.741  11.656 -0.6053  0.2599 -0.8259
 7252TIP3   OH243170   5.238   2.351  14.634  0.3460 -0.0441  0.3153
 7252TIP3    H143171   5.331   2.363  14.655  0.3284 -1.5870  1.3294
 7252TIP3    H243172   5.210   2.278  14.688 -2.1287  1.9892  1.9089
 7253TIP3   OH243173   4.186   1.197   1.795 -0.3449 -0.7117  0.2942
 7253TIP3    H143174   4.225   1.235   1.873 -0.5489 -3.1738  1.6323
 7253TIP3    H243175   4.254   1.140   1.759 -0.8146 -0.8445 -0.3970
 7254TIP3   OH243176   3.019   1.394  12.757  0.0997 -0.1328 -0.2577
 7254TIP3    H143177   3.015   1.404  12.852  1.8115  0.0435 -0.1744
 7254TIP3    H243178   3.092   1.333  12.743 -1.1111 -1.3559 -1.3983
 7255TIP3   OH243179   2.688   1.369  11.248  0.1944 -0.6729  0.7484
 7255TIP3    H143180   2.714   1.455  11.280  1.3516 -0.5084 -0.5609
 7255TIP3    H243181   2.664   1.320  11.326 -1.7373  1.2469  1.3846
 7256TIP3   OH243182   5.151   3.766   6.492  0.2130 -0.3256  0.2874
 7256TIP3    H143183   5.087   3.700   6.464 -0.0561 -0.4465  1.1743
 7256TIP3    H243184   5.115   3.849   6.460  0.2541 -0.5344 -0.3149
 7257TIP3   OH243185   4.936   6.095   5.504 -0.1136  0.3856  0.2437
 7257TIP3    H143186   4.981   6.045   5.571 -0.7978  0.5670  0.8482
 7257TIP3    H243187   4.854   6.122   5.545 -1.2485 -0.8141 -1.1640
 7258TIP3   OH243188   5.240   1.532  15.915 -0.3009  0.2956 -0.3304
 7258TIP3    H143189   5.254   1.439  15.932  1.2107  0.4224 -0.8345
 7258TIP3    H243190   5.239   1.572  16.002 -0.9206 -0.1744 -0.1122
 7259TIP3   OH243191   3.438   5.125   5.593  0.1918 -0.0383 -0.4230
 7259TIP3    H143192   3.469   5.044   5.634 -0.3763 -0.2289 -0.3749
 7259TIP3    H243193   3.362   5.099   5.542  0.0224  0.4634 -0.4294
 7260TIP3   OH243194   3.320   5.399  14.400  0.2409  0.1140  0.1396
 7260TIP3    H143195   3.232   5.431  14.383  0.4751  0.8998  0.3805
 7260TIP3    H243196   3.377   5.461  14.355  0.6287 -1.0731 -1.0436
 7261TIP3   OH243197   0.293   4.547   5.061  0.1715  0.8560  0.3008
 7261TIP3    H143198   0.259   4.540   4.971  1.8335 -0.5523 -0.2406
 7261TIP3    H243199   0.371   4.492   5.061 -1.1424 -1.0977  3.2732
 7262TIP3   OH243200   6.645   5.900   3.055 -0.1274  0.2115 -0.0509
 7262TIP3    H143201   6.650   5.979   3.110  0.6123 -0.3087  0.6386
 7262TIP3    H243202   6.679   5.927   2.970  1.5685  0.2563  0.6187
 7263TIP3   OH243203   0.504   4.422  10.871 -0.0621 -0.3366  0.2864
 7263TIP3    H143204   0.548   4.504  10.896  2.3161 -2.1045  2.1824
 7263TIP3    H243205   0.470   4.388  10.953 -0.4192 -1.5833 -0.3794
 7264TIP3   OH243206   6.024   2.319   4.428  0.3385 -0.1161  0.1661
 7264TIP3    H143207   5.982   2.388   4.376  1.6784  1.1749  0.7910
 7264TIP3    H243208   6.034   2.246   4.366 -0.0505  0.6345 -0.7966
 7265TIP3   OH243209   0.385   4.129  10.877 -0.1208 -0.2406  0.2436
 7265TIP3    H143210   0.414   4.186  10.949 -1.7417 -0.6134  1.2122
 7265TIP3    H243211   0.466   4.104  10.833  1.0213 -0.9395  2.6524
 7266TIP3   OH243212   6.451   1.698   5.485 -0.5367 -0.6897  0.3836
 7266TIP3    H143213   6.501   1.705   5.566  0.6100 -1.6162 -0.2395
 7266TIP3    H243214   6.510   1.656   5.422 -1.9366 -1.4376 -0.4825
 7267TIP3   OH243215   6.355   0.916   1.236  0.3268  0.1941 -0.6396
 7267TIP3    H143216   6.423   0.884   1.296 -0.5565 -0.9990 -0.2459
 7267TIP3    H243217   6.382   0.884   1.150  0.0955 -0.5602 -0.4336
 7268TIP3   OH243218   4.223   5.166   6.528 -0.3370 -0.6713 -0.2627
 7268TIP3    H143219   4.143   5.131   6.568 -0.4687 -0.0938 -0.0197
 7268TIP3    H243220   4.292   5.106   6.556 -0.9218 -2.0641 -1.7399
 7269TIP3   OH243221   4.844   4.807   1.737 -0.2289 -0.8544 -0.1309
 7269TIP3    H143222   4.790   4.739   1.779  0.1665  0.2594  2.2373
 7269TIP3    H243223   4.902   4.838   1.806  0.6279  0.8772 -1.5870
 7270TIP3   OH243224   3.821   4.249   0.950  0.1134 -0.2893 -0.4171
 7270TIP3    H143225   3.820   4.218   0.859  0.0732  0.2364 -0.5999
 7270TIP3    H243226   3.898   4.208   0.988  0.0384 -0.6443 -0.6446
 7271TIP3   OH243227   1.852   5.483   5.189  0.2881 -0.7246  0.1283
 7271TIP3    H143228   1.864   5.414   5.124 -0.4257  0.2258 -1.0277
 7271TIP3    H243229   1.816   5.438   5.266 -0.1059 -1.6448 -0.5915
 7272TIP3   OH243230   6.542   2.701   4.108 -0.5200  0.5068 -0.2858
 7272TIP3    H143231   6.506   2.786   4.134  0.6372  1.1822 -0.8825
 7272TIP3    H243232   6.549   2.706   4.013  0.0679 -0.0540 -0.2742
 7273TIP3   OH243233   5.030   3.252  12.000 -0.0213  0.0789  0.4566
 7273TIP3    H143234   4.965   3.313  11.966  0.2290 -0.2970 -0.7365
 7273TIP3    H243235   4.979   3.186  12.048 -0.7687 -1.3949 -2.2380
 7274TIP3   OH243236   0.266   6.644   6.068  0.0880  0.5245  0.5311
 7274TIP3    H143237   0.213   6.625   6.145 -1.7026 -1.4740 -1.1372
 7274TIP3    H243238   0.232   6.586   6.001  1.6541  2.2017 -1.7742
 7275TIP3   OH243239   5.880   5.513  13.594 -0.1180 -0.0942 -0.4332
 7275TIP3    H143240   5.906   5.428  13.560  0.0611 -1.0223  1.9496
 7275TIP3    H243241   5.947   5.535  13.659 -2.2827  0.0011  1.8407
 7276TIP3   OH243242   0.603   6.232  13.842  0.0890  0.2099 -0.0330
 7276TIP3    H143243   0.518   6.266  13.868 -0.1358 -0.1021 -0.3635
 7276TIP3    H243244   0.665   6.279  13.898 -0.2752  0.6324  0.0225
 7277TIP3   OH243245   1.555   1.420   0.293  0.3342  0.1443  0.4857
 7277TIP3    H143246   1.591   1.506   0.315  2.0090 -0.3633 -0.1511
 7277TIP3    H243247   1.462   1.426   0.315  0.2652  2.3761 -0.3308
 7278TIP3   OH243248   0.494   6.531   4.037  0.2579  0.1752 -0.1353
 7278TIP3    H143249   0.463   6.459   3.981 -1.8924  0.3865  0.7384
 7278TIP3    H243250   0.493   6.608   3.980  2.0258 -0.3558 -0.9166
 7279TIP3   OH243251   3.587   0.897  11.422  0.7933  0.0087 -0.1693
 7279TIP3    H143252   3.553   0.812  11.394 -0.6311 -0.2573  2.2393
 7279TIP3    H243253   3.520   0.960  11.395 -0.7011 -0.2740  2.6530
 7280TIP3   OH243254   3.891   0.593  11.052 -0.6414  0.4005 -0.2352
 7280TIP3    H143255   3.941   0.573  11.131 -0.7176 -1.0578 -0.5368
 7280TIP3    H243256   3.822   0.652  11.081 -1.6735 -1.4228  1.1210
 7281TIP3   OH243257   4.626   6.092  16.013 -0.1143 -0.1023  0.2690
 7281TIP3    H143258   4.689   6.024  15.986 -1.3800 -0.8291 -0.9151
 7281TIP3    H243259   4.556   6.086  15.949 -2.2926 -0.5264  2.6371
 7282TIP3   OH243260   4.189   5.501  10.701 -0.0469 -0.4390 -0.5816
 7282TIP3    H143261   4.241   5.501  10.621 -0.5674 -1.3860 -0.9350
 7282TIP3    H243262   4.239   5.448  10.763  0.9458  1.3034  0.1279
 7283TIP3   OH243263   4.848   5.700  15.743  0.2751  0.2581 -0.4919
 7283TIP3    H143264   4.771   5.644  15.729  0.0998  0.5989 -0.9064
 7283TIP3    H243265   4.922   5.639  15.739  0.0058 -0.1237  0.2506
 7284TIP3   OH243266   3.866   4.202   0.618 -0.1545  0.0140  0.1434
 7284TIP3    H143267   3.776   4.190   0.588 -0.4755 -0.6664  1.3432
 7284TIP3    H243268   3.920   4.185   0.541 -1.0800  1.4301 -0.8585
 7285TIP3   OH243269   0.759   2.133   4.037 -0.1590 -0.5917  0.4640
 7285TIP3    H143270   0.833   2.105   3.984 -0.5357 -0.8354  0.0664
 7285TIP3    H243271   0.760   2.229   4.030 -1.2376 -0.6916 -1.4025
 7286TIP3   OH243272   6.378   0.021   1.729  0.3269 -0.7317  0.1555
 7286TIP3    H143273   6.299  -0.011   1.686 -0.7279 -0.5374  1.9104
 7286TIP3    H243274   6.355   0.108   1.760  1.1966 -0.7180  0.7707
 7287TIP3   OH243275   2.255   4.154  10.535 -0.3455 -0.3635 -0.0556
 7287TIP3    H143276   2.166   4.171  10.504 -0.1201  0.7079 -0.1385
 7287TIP3    H243277   2.306   4.138  10.455 -0.3110 -0.2606 -0.0537
 7288TIP3   OH243278   1.331   5.607   4.270  0.1218  0.2506 -0.6805
 7288TIP3    H143279   1.249   5.657   4.270  0.3238  0.6057 -1.7644
 7288TIP3    H243280   1.330   5.561   4.185  1.0520  0.2723 -0.6997
 7289TIP3   OH243281   3.370   5.072   1.979 -0.4913  0.0887  0.1123
 7289TIP3    H143282   3.390   4.980   1.960  0.1640  0.3308 -0.3840
 7289TIP3    H243283   3.311   5.068   2.054  0.3823 -0.6985  0.7793
 7290TIP3   OH243284   1.990   4.549  14.495 -1.0829 -0.3119 -0.5572
 7290TIP3    H143285   1.919   4.547  14.430 -1.2318  0.0882 -0.4055
 7290TIP3    H243286   2.067   4.522  14.445 -0.7701  2.0695 -1.4529
 7291TIP3   OH243287   1.446   3.487   6.177 -0.7811 -0.2143  0.5251
 7291TIP3    H143288   1.351   3.493   6.181 -0.8616 -1.5025  0.5882
 7291TIP3    H243289   1.469   3.417   6.238  0.1687 -0.1878  0.2086
 7292TIP3   OH243290   1.820   5.581   2.181  0.8892  0.2834 -0.4249
 7292TIP3    H143291   1.844   5.657   2.128  1.5215 -1.2121 -2.3210
 7292TIP3    H243292   1.732   5.559   2.153  1.3490 -0.7108 -1.0847
 7293TIP3   OH243293   0.133   3.205  14.681  0.3179 -0.0982  0.0620
 7293TIP3    H143294   0.109   3.119  14.645  2.4372 -1.1595  1.0854
 7293TIP3    H243295   0.101   3.203  14.771  0.1335  0.2997  0.0056
 7294TIP3   OH243296   6.768   0.974   5.253  0.6969  0.2416 -0.1728
 7294TIP3    H143297   6.762   1.042   5.320  1.5132  0.9357 -0.7955
 7294TIP3    H243298   6.824   0.906   5.292 -0.7463 -0.4493  0.7461
 7295TIP3   OH243299   0.869   1.021  15.814 -0.6078  0.1496 -0.1495
 7295TIP3    H143300   0.908   1.055  15.894 -1.4685 -0.0024  0.3360
 7295TIP3    H243301   0.824   1.097  15.776 -1.0988 -0.0457  0.0538
 7296TIP3   OH243302   0.608   1.353   4.735 -0.6946 -0.5238 -0.3993
 7296TIP3    H143303   0.597   1.445   4.708  2.6568  0.6415  1.8432
 7296TIP3    H243304   0.681   1.321   4.682  0.5016 -0.7568  1.3574
 7297TIP3   OH243305   2.715   6.042  17.010  0.1236  0.2825  0.1541
 7297TIP3    H143306   2.644   5.993  17.052  0.1321 -1.3292 -1.6471
 7297TIP3    H243307   2.786   5.978  17.003  1.5377  1.6958  1.3391
 7298TIP3   OH243308   5.444   5.662  12.040  0.3152 -0.1527  0.2064
 7298TIP3    H143309   5.528   5.654  11.996  0.9335 -1.8256  1.6824
 7298TIP3    H243310   5.391   5.591  12.004 -0.0410  0.0772  0.2709
 7299TIP3   OH243311   4.287   4.004   4.608 -0.6778  0.8056  0.3822
 7299TIP3    H143312   4.259   3.919   4.643 -1.8577  1.1354  0.2692
 7299TIP3    H243313   4.335   4.045   4.680  1.2603 -0.5946 -0.0789
 7300TIP3   OH243314   4.198   0.764  11.257  0.3343 -0.3938  0.1090
 7300TIP3    H143315   4.239   0.689  11.216  0.3829  0.5927 -1.6969
 7300TIP3    H243316   4.134   0.727  11.318 -0.3787 -1.8970 -1.5238
 7301TIP3   OH243317   1.852   2.878   3.476 -0.9526 -0.3791  0.1461
 7301TIP3    H143318   1.796   2.912   3.407  0.8637 -0.8807 -1.6074
 7301TIP3    H243319   1.908   2.952   3.501 -0.7592 -0.5476  0.2137
 7302TIP3   OH243320   5.431   1.081  11.088 -0.3474 -0.4810 -0.0947
 7302TIP3    H143321   5.448   1.056  11.179  2.0267  1.5148  0.0714
 7302TIP3    H243322   5.452   1.003  11.037  2.2479 -0.4213  0.7851
 7303TIP3   OH243323   2.431   2.571  15.181  0.5858 -0.8181 -0.4727
 7303TIP3    H143324   2.502   2.549  15.242  0.6479  0.8685  0.0907
 7303TIP3    H243325   2.413   2.490  15.135  1.0865 -1.9298  1.2529
 7304TIP3   OH243326   0.110   0.626  10.719 -0.4135 -0.2416 -0.1791
 7304TIP3    H143327   0.126   0.641  10.625  3.1644 -0.5469  0.3083
 7304TIP3    H243328   0.045   0.555  10.721  1.1120 -1.7829 -2.4716
 7305TIP3   OH243329   0.348   2.690  16.235 -0.4695 -0.3888 -0.3897
 7305TIP3    H143330   0.347   2.596  16.223 -0.0861 -0.7867  2.2994
 7305TIP3    H243331   0.258   2.713  16.259 -0.4333 -0.1664 -0.4588
 7306TIP3   OH243332   5.636   5.150  15.154  0.0160  0.0175 -0.1199
 7306TIP3    H143333   5.620   5.158  15.248  0.2036 -0.5718 -0.0347
 7306TIP3    H243334   5.693   5.224  15.133 -2.2148  1.7042 -0.2953
 7307TIP3   OH243335   6.299   4.194  11.097 -0.0065  0.1628 -1.0509
 7307TIP3    H143336   6.254   4.110  11.087 -1.0820  0.5455  0.4502
 7307TIP3    H243337   6.230   4.260  11.093  0.4344  0.7805  0.8758
 7308TIP3   OH243338   5.295   0.142   3.147  0.3850 -0.2853 -0.5312
 7308TIP3    H143339   5.267   0.068   3.093  1.2108 -3.1403  2.7737
 7308TIP3    H243340   5.384   0.161   3.118  0.4406 -1.0922 -0.8967
 7309TIP3   OH243341   5.742   1.298  16.579 -0.1580 -0.4427  0.0249
 7309TIP3    H143342   5.724   1.313  16.672  0.1389 -2.6313  0.4632
 7309TIP3    H243343   5.801   1.369  16.555  0.7919 -0.5671  1.8570
 7310TIP3   OH243344   6.335   4.279   3.444 -0.2664  0.1710 -0.0355
 7310TIP3    H143345   6.354   4.282   3.350 -1.2619 -3.0224 -0.4219
 7310TIP3    H243346   6.416   4.247   3.484 -0.9293 -1.9610 -0.2950
 7311TIP3   OH243347   0.823   0.297  12.120  0.0305  0.0139 -0.4780
 7311TIP3    H143348   0.897   0.272  12.176 -1.7755 -1.2009  1.4362
 7311TIP3    H243349   0.777   0.365  12.169 -0.4425  0.3524 -1.3869
 7312TIP3   OH243350   0.012   1.538   1.594 -0.5840 -0.0634 -0.1132
 7312TIP3    H143351  -0.081   1.523   1.578 -0.6869 -1.2315  1.3694
 7312TIP3    H243352   0.039   1.463   1.648  0.6876  1.4031  1.3501
 7313TIP3   OH243353   6.342   6.433  16.065  0.1021 -0.2899 -0.1165
 7313TIP3    H143354   6.353   6.448  16.159 -0.6964 -0.0803 -0.0536
 7313TIP3    H243355   6.415   6.376  16.041  1.4735  1.2938  0.2243
 7314TIP3   OH243356   5.474   1.103   3.871 -0.1629  0.6301 -0.3785
 7314TIP3    H143357   5.482   1.197   3.883  0.1563  0.7042 -1.1716
 7314TIP3    H243358   5.379   1.088   3.863 -0.1108  1.1350 -2.2048
 7315TIP3   OH243359   3.716   4.895   3.819  0.1657 -0.3570  0.0225
 7315TIP3    H143360   3.686   4.948   3.894  0.5023 -0.6811  0.3875
 7315TIP3    H243361   3.663   4.815   3.824 -2.0897  0.9465 -1.9531
 7316TIP3   OH243362   3.879   6.197   3.394  0.2098 -0.7953 -0.3754
 7316TIP3    H143363   3.966   6.233   3.377  0.2783 -0.9483 -0.3511
 7316TIP3    H243364   3.866   6.209   3.488 -0.4342  0.6408 -0.6418
 7317TIP3   OH243365   1.081   5.517   1.806  0.4736  0.1104 -0.1786
 7317TIP3    H143366   1.104   5.502   1.898  0.0630 -0.4360 -0.1610
 7317TIP3    H243367   0.989   5.492   1.800  1.0020 -1.6647 -1.1458
 7318TIP3   OH243368   3.402   3.567  17.033 -0.3837  0.3949  0.5302
 7318TIP3    H143369   3.340   3.496  17.019 -0.1714  0.5049 -1.0727
 7318TIP3    H243370   3.411   3.609  16.947  1.4411  0.7592  0.8692
 7319TIP3   OH243371   4.080   6.167  12.617 -0.1791 -0.5455 -0.0943
 7319TIP3    H143372   4.164   6.193  12.579 -0.5028  0.4673 -0.1401
 7319TIP3    H243373   4.091   6.182  12.711 -0.3679 -0.2385 -0.1210
 7320TIP3   OH243374   6.376   4.983   0.743 -0.0085  0.0747 -0.5277
 7320TIP3    H143375   6.408   5.066   0.709  1.0667 -0.7976 -1.6619
 7320TIP3    H243376   6.415   4.916   0.686 -2.1972 -1.1234 -0.6622
 7321TIP3   OH243377   1.467   5.317   4.676  0.0007  0.1105 -0.6910
 7321TIP3    H143378   1.433   5.330   4.587 -1.1197 -0.3490 -0.3342
 7321TIP3    H243379   1.468   5.405   4.715 -0.4466  0.1704 -0.8179
 7322TIP3   OH243380   3.867   2.279   3.889 -0.1769 -0.2036  0.1670
 7322TIP3    H143381   3.902   2.358   3.849 -0.4774 -1.1072 -1.9108
 7322TIP3    H243382   3.938   2.215   3.881 -0.7337 -0.7840 -0.1075
 7323TIP3   OH243383   1.905   4.614   3.370 -0.0963 -0.7649  0.2887
 7323TIP3    H143384   1.834   4.562   3.334  0.2134 -0.8094 -0.2616
 7323TIP3    H243385   1.983   4.559   3.360  0.0441 -0.6611  0.7549
 7324TIP3   OH243386   2.839   5.840  13.440  0.4509  0.3275  0.0725
 7324TIP3    H143387   2.765   5.870  13.492 -1.0558 -0.6930 -1.4238
 7324TIP3    H243388   2.913   5.842  13.500 -1.1617 -0.3917  2.1286
 7325TIP3   OH243389   6.100   1.768  11.984 -0.4248 -0.4904  0.2577
 7325TIP3    H143390   6.131   1.747  11.896  0.7192 -0.8336  0.7435
 7325TIP3    H243391   6.057   1.688  12.015  0.8421 -0.9921  0.7422
 7326TIP3   OH243392   4.138   3.512  14.569 -0.4360 -0.4883 -0.3221
 7326TIP3    H143393   4.088   3.482  14.644 -0.8393 -1.6558 -1.0436
 7326TIP3    H243394   4.193   3.583  14.603 -0.6577 -0.9658  1.0424
 7327TIP3   OH243395   3.253   5.811   1.973 -0.5062 -0.1081 -0.1314
 7327TIP3    H143396   3.315   5.745   2.004 -0.9945 -1.5120 -2.0978
 7327TIP3    H243397   3.171   5.763   1.961 -1.4162  1.2911  0.3677
 7328TIP3   OH243398   2.896   4.148   3.109 -0.3104 -0.0920  0.4708
 7328TIP3    H143399   2.931   4.174   3.024 -0.0026 -0.4837  0.4791
 7328TIP3    H243400   2.953   4.191   3.173  1.0195 -1.8646  0.4941
 7329TIP3   OH243401   1.439   1.255  13.937 -0.3474  0.4973 -0.4138
 7329TIP3    H143402   1.349   1.261  13.904  0.0091  2.6323 -1.0830
 7329TIP3    H243403   1.490   1.232  13.859 -0.4039 -1.5066  0.1304
 7330TIP3   OH243404   4.123   2.376  13.487 -0.1895 -0.0193 -0.3467
 7330TIP3    H143405   4.125   2.332  13.572 -1.9593  1.9318  0.7627
 7330TIP3    H243406   4.058   2.328  13.436  1.5925 -1.8113 -0.9936
 7331TIP3   OH243407   6.328   3.524  12.361 -0.3381 -0.7946  0.0950
 7331TIP3    H143408   6.365   3.552  12.278 -0.2436 -1.4507 -0.0787
 7331TIP3    H243409   6.390   3.556  12.427 -1.2038  1.1001  0.0219
 7332TIP3   OH243410   5.016   6.377  14.517 -0.0494 -0.4005  0.9237
 7332TIP3    H143411   4.998   6.414  14.431  0.0003  0.4118  1.2569
 7332TIP3    H243412   5.104   6.340  14.509  0.9532  1.7873  1.2922
 7333TIP3   OH243413   3.060   6.326  15.878  0.1762 -0.5323 -0.1142
 7333TIP3    H143414   3.117   6.252  15.897 -0.7645 -1.2902 -0.2133
 7333TIP3    H243415   2.986   6.316  15.938 -0.3701 -0.1531 -0.7146
 7334TIP3   OH243416   6.267   0.799   3.036  0.5508  0.3985 -0.4826
 7334TIP3    H143417   6.228   0.885   3.048  0.6481  0.2437  1.0059
 7334TIP3    H243418   6.252   0.754   3.119  0.5649 -0.9923 -1.2217
 7335TIP3   OH243419   0.515   5.510   4.179 -0.0369 -0.0626  0.8108
 7335TIP3    H143420   0.543   5.587   4.129 -1.1136 -0.8403 -1.0554
 7335TIP3    H243421   0.485   5.448   4.112 -0.2854 -1.6549  2.3601
 7336TIP3   OH243422   0.509   0.361  15.102 -0.0928 -0.1088 -0.3158
 7336TIP3    H143423   0.565   0.284  15.106  0.5626  0.3902  0.1617
 7336TIP3    H243424   0.500   0.390  15.192 -0.8012  0.0448 -0.4315
 7337TIP3   OH243425   4.249   0.107   2.293  0.0218  0.0799  0.7421
 7337TIP3    H143426   4.161   0.078   2.316  0.3174 -1.1074  0.4412
 7337TIP3    H243427   4.280   0.153   2.370  0.0664 -1.6874  1.8071
 7338TIP3   OH243428   6.611   2.287  14.285  0.0158 -0.3811  0.4595
 7338TIP3    H143429   6.686   2.234  14.258  0.7453  0.3635  0.9906
 7338TIP3    H243430   6.542   2.224  14.303  1.1537 -1.2400  1.9992
 7339TIP3   OH243431   3.280   2.618  10.601  0.5802 -0.4178 -0.1574
 7339TIP3    H143432   3.226   2.637  10.524  0.2184 -0.1724  0.1537
 7339TIP3    H243433   3.266   2.692  10.659  2.5321  0.4418 -0.7516
 7340TIP3   OH243434   4.558   0.825   2.759 -0.0372 -0.5035  0.1774
 7340TIP3    H143435   4.574   0.841   2.666  3.4612  2.1742  1.1513
 7340TIP3    H243436   4.592   0.737   2.774 -1.9164 -1.5292 -1.2984
 7341TIP3   OH243437   2.982   5.512  12.426 -0.3524 -0.2506  0.5035
 7341TIP3    H143438   2.918   5.445  12.403 -1.2431  1.1655 -1.3044
 7341TIP3    H243439   2.973   5.578  12.357  3.6915 -0.4387 -0.3692
 7342TIP3   OH243440   2.449   5.598   4.477  0.4350 -0.3423 -0.0743
 7342TIP3    H143441   2.357   5.575   4.485  0.4033  0.3212  1.4427
 7342TIP3    H243442   2.449   5.692   4.459  0.7872 -0.5231 -1.0679
 7343TIP3   OH243443   1.415   0.420  17.173  0.2040 -0.3814  0.1745
 7343TIP3    H143444   1.329   0.393  17.204  0.1741  0.2800  0.6689
 7343TIP3    H243445   1.473   0.407  17.249  0.2624  0.5606  0.3019
 7344TIP3   OH243446   1.971   2.042  13.693  0.1960  0.0087 -0.5254
 7344TIP3    H143447   1.949   2.031  13.600  0.5622 -0.8051 -0.5238
 7344TIP3    H243448   1.925   1.970  13.737  0.9529 -0.2987 -0.2276
 7345TIP3   OH243449   5.878   5.007   4.910  0.6020  0.2501  0.5609
 7345TIP3    H143450   5.943   4.972   4.849  0.1033 -0.1969  0.2807
 7345TIP3    H243451   5.908   4.977   4.996  0.3389 -0.6149  0.3528
 7346TIP3   OH243452   1.510   2.029   6.611 -0.1475  0.2881  0.3334
 7346TIP3    H143453   1.513   2.093   6.682 -1.4237  0.5938  0.1312
 7346TIP3    H243454   1.599   1.995   6.605  0.9038  2.9880 -0.3879
 7347TIP3   OH243455   1.128   1.177   3.781  0.2722 -0.7438  0.2099
 7347TIP3    H143456   1.102   1.118   3.852  0.4708  1.0308  1.8300
 7347TIP3    H243457   1.203   1.134   3.740 -0.4031 -2.2187  0.5017
 7348TIP3   OH243458   1.090   1.487  12.887  0.1865  0.2578  0.1175
 7348TIP3    H143459   1.127   1.576  12.884 -1.0511  0.7486 -1.0142
 7348TIP3    H243460   1.163   1.430  12.862  0.0292  1.2814 -2.8818
 7349TIP3   OH243461   5.015   1.175  16.160  0.3081 -0.1887  0.2582
 7349TIP3    H143462   5.058   1.108  16.107 -4.0995 -2.7152 -0.3809
 7349TIP3    H243463   4.977   1.235  16.096 -0.2867 -0.1019  0.6947
 7350TIP3   OH243464   0.445   2.430  14.912 -0.5272 -0.3092  0.3544
 7350TIP3    H143465   0.415   2.446  14.823  1.4875  0.0395 -0.2788
 7350TIP3    H243466   0.541   2.429  14.906 -0.3788 -1.4149  2.3111
 7351TIP3   OH243467   3.971   5.308   2.644  0.5630  0.1888  0.1568
 7351TIP3    H143468   3.897   5.260   2.607 -0.5174 -0.1258  2.6049
 7351TIP3    H243469   3.957   5.398   2.617 -1.0364  0.2230  1.0372
 7352TIP3   OH243470   1.074   5.916  16.831 -0.1595  0.2110 -0.4881
 7352TIP3    H143471   1.036   5.839  16.787  0.1661  0.2587 -0.8621
 7352TIP3    H243472   1.110   5.968  16.759 -0.3364  0.6892 -0.2281
 7353TIP3   OH243473   3.459   5.077   0.388  0.0152  0.0141  0.1209
 7353TIP3    H143474   3.530   5.041   0.335 -1.1415 -1.0540 -0.7202
 7353TIP3    H243475   3.492   5.074   0.477  1.5525  0.7857 -0.3970
 7354TIP3   OH243476   5.451   2.017   4.997 -0.0819  0.2192  0.7459
 7354TIP3    H143477   5.395   1.944   5.022 -2.3289  0.9612 -1.9478
 7354TIP3    H243478   5.533   1.975   4.969 -0.1914 -1.0457  2.2498
 7355TIP3   OH243479   0.915   0.448   5.736 -0.3867 -0.3583  0.0687
 7355TIP3    H143480   0.887   0.538   5.721 -1.4336 -0.2768  2.3307
 7355TIP3    H243481   0.943   0.417   5.650  2.6728  3.0124 -0.2738
 7356TIP3   OH243482   6.691   2.821   0.308  0.0755 -0.1085 -0.1622
 7356TIP3    H143483   6.627   2.782   0.249 -0.5872 -1.3888  1.3276
 7356TIP3    H243484   6.775   2.805   0.266 -0.3278 -1.6400 -0.4416
 7357TIP3   OH243485   4.082   0.865  13.591  0.3068 -0.0049 -0.0416
 7357TIP3    H143486   4.172   0.839  13.574 -0.0038 -0.8348 -0.4597
 7357TIP3    H243487   4.082   0.960  13.582  0.8379 -0.1312 -1.4558
 7358TIP3   OH243488   2.814   2.360   0.083  0.3471  0.3242  0.1134
 7358TIP3    H143489   2.724   2.337   0.106  0.7129 -2.1386 -0.7315
 7358TIP3    H243490   2.863   2.345   0.164  0.3454 -0.4756 -0.0305
 7359TIP3   OH243491   0.911   5.354   3.851  0.2871 -0.5014 -0.3038
 7359TIP3    H143492   0.913   5.304   3.933 -0.5004 -0.6077 -0.3475
 7359TIP3    H243493   0.834   5.321   3.805 -0.1294  0.6307 -0.4121
 7360TIP3   OH243494   3.085   3.072  14.320  0.0474 -0.4951 -0.0565
 7360TIP3    H143495   3.001   3.092  14.361 -0.2410 -1.3293 -0.2218
 7360TIP3    H243496   3.063   3.044  14.231  0.6188  0.6995 -0.5775
 7361TIP3   OH243497   5.945   4.148   0.628 -0.4719  0.0727 -0.4039
 7361TIP3    H143498   5.895   4.074   0.594 -0.4926 -0.1338  0.0693
 7361TIP3    H243499   5.879   4.216   0.644 -0.2152  0.8649 -2.6102
 7362TIP3   OH243500   5.812   2.726  11.940  0.3157  0.3813  0.6211
 7362TIP3    H143501   5.897   2.758  11.971  0.9849  0.2540 -1.0525
 7362TIP3    H243502   5.748   2.785  11.981  1.2640  1.1376  1.0426
 7363TIP3   OH243503   1.571   0.470   4.771 -0.6960  0.1791  0.0446
 7363TIP3    H143504   1.589   0.381   4.800  2.0287 -0.5061 -3.3816
 7363TIP3    H243505   1.585   0.524   4.848  0.3535 -2.0812  1.4876
 7364TIP3   OH243506   4.120   2.627  13.014  0.0108 -0.6721 -0.0726
 7364TIP3    H143507   4.186   2.682  12.971 -0.1101  0.5560  1.2740
 7364TIP3    H243508   4.041   2.681  13.014 -0.9367 -2.0229 -1.4134
 7365TIP3   OH243509   6.150   6.149   0.418 -0.1198 -0.0749  0.2140
 7365TIP3    H143510   6.059   6.131   0.439  0.0739 -1.4056 -0.0601
 7365TIP3    H243511   6.155   6.143   0.323  0.0252  1.1166  0.1360
 7366TIP3   OH243512   0.964   1.195  14.119 -0.2161  1.0435  0.0764
 7366TIP3    H143513   0.886   1.241  14.148 -0.9255 -0.5160  0.7144
 7366TIP3    H243514   1.024   1.198  14.194 -0.7223 -0.0564  0.5390
 7367TIP3   OH243515   2.194   0.954  15.923 -0.2163  0.2162 -0.8649
 7367TIP3    H143516   2.252   0.902  15.979  0.3563  0.9019 -0.8151
 7367TIP3    H243517   2.208   1.045  15.952 -0.4598  0.4984 -1.6219
 7368TIP3   OH243518   3.271   6.698  15.894  0.1708 -0.2023  0.0948
 7368TIP3    H143519   3.238   6.768  15.950  0.3853 -0.9710  1.1988
 7368TIP3    H243520   3.336   6.740  15.838 -0.3831  0.6710  0.0955
 7369TIP3   OH243521   2.504   1.065  12.227  0.1696 -0.4645 -0.1205
 7369TIP3    H143522   2.493   1.000  12.157  0.1504 -0.8057  0.1961
 7369TIP3    H243523   2.441   1.134  12.205 -0.1474 -0.7758 -0.2081
 7370TIP3   OH243524   0.872   0.005  11.026 -0.0218 -0.0186 -0.2675
 7370TIP3    H143525   0.931  -0.009  10.952  0.0941 -1.4524  0.0842
 7370TIP3    H243526   0.789   0.030  10.986 -0.2945 -1.9405 -0.9522
 7371TIP3   OH243527   0.532   3.507   4.041 -0.3711 -0.2587  0.2846
 7371TIP3    H143528   0.457   3.450   4.055  0.3490 -1.8956 -2.2516
 7371TIP3    H243529   0.533   3.525   3.947  3.2626 -1.5640 -0.0264
 7372TIP3   OH243530   0.529   4.290  13.249 -0.0639  0.1602 -0.1730
 7372TIP3    H143531   0.461   4.337  13.200 -0.4932  1.2305  1.4087
 7372TIP3    H243532   0.608   4.299  13.194 -0.6039  1.0706 -0.8142
 7373TIP3   OH243533   0.358   3.006  14.824  0.0949 -0.4545  0.2608
 7373TIP3    H143534   0.295   3.042  14.761  1.0917  2.4908  0.8759
 7373TIP3    H243535   0.436   3.059  14.814  1.5526 -2.2865  1.4665
 7374TIP3   OH243536   2.357   4.517   2.006  0.9976 -0.6827  0.0054
 7374TIP3    H143537   2.326   4.608   2.010  0.6951 -0.7734 -0.2137
 7374TIP3    H243538   2.338   4.482   2.093  1.1247 -0.5310  0.0942
 7375TIP3   OH243539   1.886   1.029   2.881  0.0019  0.0597  0.1450
 7375TIP3    H143540   1.866   0.990   2.967 -0.3230 -0.0945 -0.0006
 7375TIP3    H243541   1.933   1.110   2.902 -1.9518  1.1234  0.5431
 7376TIP3   OH243542   3.568   1.553  15.207  0.2890 -0.0438  0.2132
 7376TIP3    H143543   3.558   1.520  15.297  1.6493 -0.2202  0.3159
 7376TIP3    H243544   3.620   1.486  15.163  1.0468  0.8400 -0.2433
 7377TIP3   OH243545   2.604   2.237  13.040  0.5411  0.1716  0.2544
 7377TIP3    H143546   2.688   2.205  13.008  0.5877  2.2909 -1.9751
 7377TIP3    H243547   2.539   2.198  12.982 -0.0385 -1.3947  1.9171
 7378TIP3   OH243548   4.764   0.060  12.417  0.3260 -0.2934  0.4789
 7378TIP3    H143549   4.793  -0.002  12.350  0.6273 -0.5784  0.8692
 7378TIP3    H243550   4.833   0.126  12.420 -0.5106  0.6612 -0.6978
 7379TIP3   OH243551   3.033   5.843   1.193 -0.1302 -0.3214  0.2890
 7379TIP3    H143552   2.955   5.805   1.151 -1.0934 -0.7454  2.4000
 7379TIP3    H243553   3.072   5.770   1.241  1.0894  0.1042 -0.0508
 7380TIP3   OH243554   1.819   0.287  16.530  0.2335 -0.1478 -0.0830
 7380TIP3    H143555   1.814   0.197  16.564 -2.5650  0.6122  1.6046
 7380TIP3    H243556   1.869   0.335  16.596 -0.0378  0.0068  0.0091
 7381TIP3   OH243557   6.376   1.231  10.484 -0.3500  0.1675  0.2346
 7381TIP3    H143558   6.452   1.172  10.484  1.2762  2.1952 -0.5470
 7381TIP3    H243559   6.305   1.178  10.521  1.6309 -1.5466  1.7737
 7382TIP3   OH243560   2.176   2.008   1.680 -0.2897 -0.4291  0.4337
 7382TIP3    H143561   2.090   2.050   1.673 -0.0207 -0.0199 -0.6137
 7382TIP3    H243562   2.238   2.078   1.660  0.1533 -1.3579 -1.6483
 7383TIP3   OH243563   1.820   1.181   2.362 -0.1186 -0.2821 -0.1076
 7383TIP3    H143564   1.791   1.120   2.294 -0.4871  0.7574 -0.8894
 7383TIP3    H243565   1.846   1.260   2.314 -1.4149  0.8576  1.0407
 7384TIP3   OH243566   1.750   5.897   1.851  0.0211 -0.3593  0.2879
 7384TIP3    H143567   1.721   5.898   1.760 -1.3020  0.2440  0.7133
 7384TIP3    H243568   1.670   5.893   1.902  0.8171 -2.8790  1.4185
 7385TIP3   OH243569   5.510   2.142   4.444  0.4008  0.4539 -0.1471
 7385TIP3    H143570   5.603   2.155   4.463  0.0815 -0.7134  2.4537
 7385TIP3    H243571   5.466   2.214   4.488  0.0410  0.7918 -1.0551
 7386TIP3   OH243572   5.190   2.721   4.826  0.3670 -0.6846 -0.0245
 7386TIP3    H143573   5.260   2.759   4.773 -0.5093 -0.9837 -1.4221
 7386TIP3    H243574   5.233   2.650   4.874  1.0666 -0.7742 -0.7596
 7387TIP3   OH243575   4.709   1.372   0.368  0.3574 -0.2990  0.1451
 7387TIP3    H143576   4.755   1.411   0.442 -0.2040 -0.6758  0.7063
 7387TIP3    H243577   4.617   1.374   0.394  0.1666 -0.5293 -0.5012
 7388TIP3   OH243578   3.333   1.854   0.233  0.8034  0.2406  0.0247
 7388TIP3    H143579   3.336   1.893   0.146 -0.9854 -0.4712 -0.3782
 7388TIP3    H243580   3.261   1.900   0.278 -1.0558 -2.2143 -0.3147
 7389TIP3   OH243581   0.222   4.300  13.384 -0.6639 -0.0115  0.5016
 7389TIP3    H143582   0.314   4.322  13.391 -0.6468  0.2137 -0.4386
 7389TIP3    H243583   0.179   4.352  13.453 -0.1865  0.4061  0.4824
 7390TIP3   OH243584   2.571   2.278   4.291 -0.2485  0.1882  0.0240
 7390TIP3    H143585   2.588   2.189   4.321  0.9981  0.1229 -0.8434
 7390TIP3    H243586   2.551   2.327   4.371 -3.6070 -1.4136  0.2949
 7391TIP3   OH243587   6.698   0.495   1.059 -0.2971  0.0111 -0.0560
 7391TIP3    H143588   6.688   0.401   1.074  0.9374 -0.0329  0.5282
 7391TIP3    H243589   6.784   0.517   1.096 -0.4033  1.2940 -0.5318
 7392TIP3   OH243590   4.024   3.835  15.837  0.0044  0.4958 -0.0855
 7392TIP3    H143591   3.941   3.833  15.885 -0.1461  0.8242 -0.3368
 7392TIP3    H243592   3.999   3.819  15.746  0.3440 -0.7082  0.0129
 7393TIP3   OH243593   4.391   1.262   3.908  0.3774  0.1013  0.7414
 7393TIP3    H143594   4.344   1.341   3.935  1.9522  1.8994 -1.5851
 7393TIP3    H243595   4.470   1.262   3.961  1.0867  0.9241 -0.2966
 7394TIP3   OH243596   5.395   1.706  14.332 -0.3487 -0.8145  0.3459
 7394TIP3    H143597   5.414   1.738  14.244 -0.9934 -1.1798  0.0666
 7394TIP3    H243598   5.346   1.777  14.374  0.1442 -0.5561  0.4828
 7395TIP3   OH243599   2.188   4.237   1.120 -0.0020  0.2198 -0.6272
 7395TIP3    H143600   2.264   4.190   1.154 -0.5886 -0.7742 -0.6864
 7395TIP3    H243601   2.223   4.293   1.051  1.2136  2.2822  1.5822
 7396TIP3   OH243602   0.871   2.604  12.811 -0.4108 -0.6554  0.3262
 7396TIP3    H143603   0.887   2.581  12.719  1.0775  0.7035  0.2343
 7396TIP3    H243604   0.900   2.694  12.819 -1.5177 -0.4231  1.9010
 7397TIP3   OH243605   2.196   2.482  11.792  0.1086  1.0121  0.7860
 7397TIP3    H143606   2.281   2.503  11.754  0.1572 -1.6292 -0.7184
 7397TIP3    H243607   2.133   2.507  11.725 -0.0836  0.0828  0.6174
 7398TIP3   OH243608   6.338   4.756  13.965  0.2316  0.6264 -0.5427
 7398TIP3    H143609   6.376   4.704  13.894  0.1611  0.1450 -0.2286
 7398TIP3    H243610   6.357   4.847  13.941  2.4332  0.3602  0.0801
 7399TIP3   OH243611   0.225   5.789  11.480  0.0568  0.2330  0.0229
 7399TIP3    H143612   0.282   5.858  11.444  0.3211 -0.0056 -0.0180
 7399TIP3    H243613   0.137   5.817  11.456  0.2057  0.2523 -0.5240
 7400TIP3   OH243614   1.817   1.887  12.111 -0.6606  0.6572  0.2101
 7400TIP3    H143615   1.876   1.889  12.186  0.1845  0.2686 -0.4270
 7400TIP3    H243616   1.862   1.831  12.048 -1.1586  1.3318 -0.7531
 7401TIP3   OH243617   1.153   1.491  16.794 -0.4863 -0.6715 -0.8373
 7401TIP3    H143618   1.149   1.482  16.889 -0.1295 -3.0014 -1.0273
 7401TIP3    H243619   1.238   1.532  16.778  0.2850 -2.0105 -0.2568
 7402TIP3   OH243620   6.581   1.824   1.580 -0.2701 -0.2031  0.2158
 7402TIP3    H143621   6.492   1.826   1.546 -1.2112 -0.4777  2.6149
 7402TIP3    H243622   6.623   1.752   1.533 -1.0824  0.3916 -1.4492
 7403TIP3   OH243623   4.746   0.442   1.481 -0.0390  0.2643 -0.3433
 7403TIP3    H143624   4.802   0.517   1.499 -0.5961  0.3582  1.1409
 7403TIP3    H243625   4.795   0.389   1.419  1.6024  0.4448  0.7708
 7404TIP3   OH243626   0.370   0.876  15.197  0.4322  0.6722 -0.3435
 7404TIP3    H143627   0.409   0.891  15.111  0.0160 -1.4507 -0.9264
 7404TIP3    H243628   0.410   0.795  15.228 -0.9614  0.3018  0.5387
 7405TIP3   OH243629   4.267   1.967   3.558  0.1043  0.0570 -0.6583
 7405TIP3    H143630   4.234   2.024   3.489  0.5855  0.2939 -0.6978
 7405TIP3    H243631   4.310   2.027   3.619  0.0625 -0.1990 -0.3802
 7406TIP3   OH243632   3.430   2.382   2.986 -0.4732 -0.1936 -0.1457
 7406TIP3    H143633   3.446   2.473   2.964 -0.1334 -0.1797  0.1657
 7406TIP3    H243634   3.364   2.353   2.923 -0.1683  0.1058 -0.5955
 7407TIP3   OH243635   3.353   4.525  13.785 -0.1180 -0.3746  0.0732
 7407TIP3    H143636   3.265   4.562  13.773  0.3090  0.9166  0.7829
 7407TIP3    H243637   3.371   4.536  13.878 -0.1351 -2.7995  0.3846
 7408TIP3   OH243638   6.470   4.820   0.524  0.3736 -0.2082  0.5123
 7408TIP3    H143639   6.479   4.761   0.600  2.1787 -2.3946 -1.3095
 7408TIP3    H243640   6.555   4.813   0.479 -0.4109  1.6251 -1.3176
 7409TIP3   OH243641   2.562   5.792  15.675  0.1352  0.4106  0.4762
 7409TIP3    H143642   2.654   5.773  15.655 -0.3005  0.2918 -1.5728
 7409TIP3    H243643   2.523   5.706  15.688 -0.1003  0.3465 -0.6298
 7410TIP3   OH243644   4.243   0.094   5.304 -0.1100  0.5608 -0.0037
 7410TIP3    H143645   4.280   0.101   5.215 -0.2016  1.5154  0.0335
 7410TIP3    H243646   4.279   0.169   5.351  1.1088 -0.7640  1.2040
 7411TIP3   OH243647   5.479   6.494  11.011  0.1025 -0.5514  0.0004
 7411TIP3    H143648   5.392   6.534  11.019 -0.3320 -1.3015 -0.8037
 7411TIP3    H243649   5.532   6.539  11.077  0.4982  3.5955 -2.9365
 7412TIP3   OH243650   1.998   4.082  17.168  0.1130  0.2938  0.3487
 7412TIP3    H143651   1.915   4.130  17.165  0.1649  0.4050  0.6591
 7412TIP3    H243652   2.065   4.150  17.161  0.1899  0.2894  0.9976
 7413TIP3   OH243653   1.331   2.940  10.928  0.2777 -0.3596  0.1748
 7413TIP3    H143654   1.315   2.863  10.982 -1.5053 -1.3665 -1.7121
 7413TIP3    H243655   1.248   2.956  10.884  1.8177  0.0326 -2.7140
 7414TIP3   OH243656   4.561   3.464   5.475  0.1410 -0.2328 -0.5728
 7414TIP3    H143657   4.497   3.438   5.541  0.4728  2.0449  0.7277
 7414TIP3    H243658   4.568   3.559   5.485  2.4653 -0.2302 -1.8382
 7415TIP3   OH243659   3.797   1.330   5.094 -0.0883  0.1253  0.2839
 7415TIP3    H143660   3.881   1.376   5.098 -0.0263  0.0976 -0.7878
 7415TIP3    H243661   3.778   1.307   5.186  0.4462  1.2517  0.6841
 7416TIP3   OH243662   3.379   0.426  12.200 -0.0050 -0.5694  0.4766
 7416TIP3    H143663   3.350   0.497  12.142 -0.5015 -0.4469  0.8750
 7416TIP3    H243664   3.319   0.353  12.181 -1.6844  0.2264  2.5003
 7417TIP3   OH243665   5.264   1.248  16.519 -0.6218 -0.1211 -0.1648
 7417TIP3    H143666   5.310   1.207  16.445 -0.0130 -0.9206  0.6489
 7417TIP3    H243667   5.323   1.315  16.550 -0.6483 -0.1445 -0.0641
 7418TIP3   OH243668   4.152   0.445  16.166 -0.2076  0.2510  0.0875
 7418TIP3    H143669   4.119   0.515  16.222  1.1671  0.3952  0.7208
 7418TIP3    H243670   4.237   0.422  16.203 -0.9906 -2.3517  0.4453
 7419TIP3   OH243671   0.043   1.215   0.737 -0.3238  0.3461 -0.7248
 7419TIP3    H143672  -0.015   1.260   0.799 -0.1635 -0.6317  0.1495
 7419TIP3    H243673  -0.016   1.159   0.686 -0.1904 -0.5412  0.0692
 7420TIP3   OH243674   5.291   3.053  13.036 -0.3928 -0.1996 -0.0488
 7420TIP3    H143675   5.264   3.081  13.123 -2.3736 -2.6135  0.1663
 7420TIP3    H243676   5.383   3.029  13.046  0.2824  2.4863  0.6093
 7421TIP3   OH243677   2.739   0.501  13.399 -0.3183 -0.6976 -0.2898
 7421TIP3    H143678   2.810   0.494  13.463  0.9661 -0.5824 -1.6829
 7421TIP3    H243679   2.673   0.555  13.442  0.5963 -0.5035  0.8889
 7422TIP3   OH243680   2.730   4.041  15.794 -0.3949  0.6911 -0.0464
 7422TIP3    H143681   2.653   4.034  15.850  0.3983 -0.4981  0.9063
 7422TIP3    H243682   2.791   3.976  15.827  0.3994  0.4842 -1.8246
 7423TIP3   OH243683   1.085   6.198   1.074 -0.1304  0.5437  0.1798
 7423TIP3    H143684   1.073   6.115   1.120 -0.3380  0.6927  0.4024
 7423TIP3    H243685   1.081   6.176   0.981 -0.2419  0.3109  0.2402
 7424TIP3   OH243686   2.752   3.634   0.176  0.2036  0.4838 -0.1162
 7424TIP3    H143687   2.672   3.685   0.190  0.4932 -0.1043  4.2740
 7424TIP3    H243688   2.821   3.700   0.166 -0.2996  0.9578 -0.5567
 7425TIP3   OH243689   5.816   1.749  12.390  0.1741 -0.4225 -0.3175
 7425TIP3    H143690   5.873   1.812  12.347 -1.1968  0.9187 -0.1986
 7425TIP3    H243691   5.855   1.664  12.370  1.7132  0.4171 -0.9591
 7426TIP3   OH243692   0.258   4.558   2.608 -0.1468 -0.1276 -0.3648
 7426TIP3    H143693   0.342   4.514   2.597 -0.0992 -0.2151  0.3050
 7426TIP3    H243694   0.229   4.531   2.696 -0.4606  0.5928 -0.2500
 7427TIP3   OH243695   6.403   6.020  15.664 -0.1574 -0.3570  0.0754
 7427TIP3    H143696   6.428   6.019  15.757 -0.2690 -1.9817  0.0989
 7427TIP3    H243697   6.411   5.929  15.636 -1.8007 -0.1790 -1.0620
 7428TIP3   OH243698   1.768   3.869   1.826 -0.5152 -0.4174 -0.0673
 7428TIP3    H143699   1.691   3.925   1.823 -0.1116  0.1766  0.6082
 7428TIP3    H243700   1.822   3.898   1.753  0.4052  1.1104  1.2029
 7429TIP3   OH243701   1.581   1.819  15.005 -0.2215 -0.7419  0.2217
 7429TIP3    H143702   1.526   1.790  15.078 -1.2360  1.2158  0.2641
 7429TIP3    H243703   1.571   1.751  14.938 -2.3355 -0.6382  0.4120
 7430TIP3   OH243704   0.577   5.536  11.318 -0.1072 -0.6129 -0.4686
 7430TIP3    H143705   0.573   5.590  11.238 -0.3425  0.1910  0.0714
 7430TIP3    H243706   0.510   5.469  11.305 -1.6073  0.7760 -0.0652
 7431TIP3   OH243707   5.359   5.808   0.742 -0.5090  0.1534 -0.0952
 7431TIP3    H143708   5.265   5.793   0.755 -0.6755  1.0800 -0.1580
 7431TIP3    H243709   5.364   5.865   0.665  0.1867 -0.9723 -0.9032
 7432TIP3   OH243710   5.061   4.839  15.661  0.0796 -0.5318 -0.1375
 7432TIP3    H143711   5.065   4.932  15.683 -0.7432 -0.6212  0.4424
 7432TIP3    H243712   4.968   4.817  15.670 -0.0685 -0.9255 -2.3014
 7433TIP3   OH243713   5.309   4.447   4.922 -0.1816 -0.1600  0.3814
 7433TIP3    H143714   5.381   4.471   4.979  0.4474  2.3466 -1.3752
 7433TIP3    H243715   5.242   4.513   4.939  0.3423  1.1436 -2.3168
 7434TIP3   OH243716   4.597   2.777  12.053 -0.5055  0.4747  0.5188
 7434TIP3    H143717   4.666   2.765  11.986 -0.2361  0.1828  0.8445
 7434TIP3    H243718   4.526   2.820  12.006  0.1564  1.3756  0.3305
 7435TIP3   OH243719   4.143   3.600   4.343  0.6336 -1.1565  0.3067
 7435TIP3    H143720   4.228   3.567   4.370  0.9065  0.8593  2.1053
 7435TIP3    H243721   4.091   3.601   4.423 -1.2330 -2.7145 -0.8416
 7436TIP3   OH243722   0.631   5.649  15.716  0.2194  0.1312 -0.5192
 7436TIP3    H143723   0.537   5.634  15.722  0.0626  1.6055  1.3769
 7436TIP3    H243724   0.669   5.587  15.779  0.3523  0.7248 -0.0011
 7437TIP3   OH243725   5.388   0.233   0.885  0.3645  0.1721 -0.0976
 7437TIP3    H143726   5.342   0.211   0.804  0.2374 -1.0916  0.2975
 7437TIP3    H243727   5.457   0.294   0.859  0.5130 -0.4656 -1.2019
 7438TIP3   OH243728   5.773   2.225  17.234  0.0103  0.8106  0.0290
 7438TIP3    H143729   5.792   2.258  17.146 -1.1073 -2.4209 -1.5030
 7438TIP3    H243730   5.703   2.280  17.266  0.8473  2.4130 -0.8469
 7439TIP3   OH243731   2.015   2.474  14.848 -0.7948 -0.6048 -0.3551
 7439TIP3    H143732   2.021   2.439  14.937 -0.0548  1.2232  0.3344
 7439TIP3    H243733   2.105   2.472  14.815 -0.6759  1.0312 -0.1479
 7440TIP3   OH243734   0.158   2.882  12.432 -0.2879 -0.0459 -1.0607
 7440TIP3    H143735   0.074   2.838  12.439  1.0081 -2.8823 -2.3114
 7440TIP3    H243736   0.169   2.898  12.338  2.4591 -3.7823 -1.5090
 7441TIP3   OH243737   5.579   0.951   2.363  0.1562  0.2506 -0.3186
 7441TIP3    H143738   5.515   0.907   2.308  0.4826 -0.0549 -0.4575
 7441TIP3    H243739   5.605   0.886   2.427  0.9716  0.0884 -0.8011
 7442TIP3   OH243740   4.507   5.241  14.921 -0.0425  0.6661  0.1365
 7442TIP3    H143741   4.484   5.154  14.953 -0.7519  1.0427  0.6744
 7442TIP3    H243742   4.560   5.225  14.843  2.7815 -0.3143  2.1421
 7443TIP3   OH243743   5.348   2.465   6.008  0.2072 -0.4952 -0.8184
 7443TIP3    H143744   5.312   2.538   5.957  0.4635  0.5368  0.4492
 7443TIP3    H243745   5.280   2.398   6.006 -1.2964  0.9473  0.5107
 7444TIP3   OH243746   6.744   4.555   3.007  0.2600  0.2757  0.0545
 7444TIP3    H143747   6.700   4.513   2.932 -0.5162 -1.9442  1.6972
 7444TIP3    H243748   6.675   4.604   3.051 -0.1495 -1.4846  1.4265
 7445TIP3   OH243749   6.468   0.533  15.929  0.3179  0.1595 -0.6122
 7445TIP3    H143750   6.500   0.547  16.018 -0.3006  1.8577 -0.6377
 7445TIP3    H243751   6.547   0.535  15.875  0.6418 -0.3237 -0.1680
 7446TIP3   OH243752   2.862   6.169  16.075  0.3087  0.2350  0.2974
 7446TIP3    H143753   2.923   6.114  16.125  0.0517  0.1225  0.4877
 7446TIP3    H243754   2.838   6.115  16.000 -0.6290 -0.2586  0.9424
 7447TIP3   OH243755   4.722   2.096   1.376  0.2536  0.1089 -0.0437
 7447TIP3    H143756   4.742   2.039   1.302 -0.0500 -1.1752  0.8316
 7447TIP3    H243757   4.628   2.112   1.369 -0.1043 -1.4456  1.0298
 7448TIP3   OH243758   1.103   1.150  10.830  0.1744 -0.5163 -0.0157
 7448TIP3    H143759   1.084   1.148  10.736  0.6206 -1.9964 -0.0810
 7448TIP3    H243760   1.195   1.127  10.837  0.0907 -0.6137  0.8122
 7449TIP3   OH243761   1.556   4.147   3.542 -0.5857 -0.4020  0.2385
 7449TIP3    H143762   1.566   4.199   3.462  0.6417  0.8716  1.1763
 7449TIP3    H243763   1.641   4.156   3.586 -1.1048 -1.4402  1.4709
 7450TIP3   OH243764   0.386   5.181  12.518 -0.3829  0.5860 -0.0926
 7450TIP3    H143765   0.306   5.128  12.511 -0.7295  1.0768  0.1081
 7450TIP3    H243766   0.385   5.236  12.440  0.5067 -0.4201 -0.8179
 7451TIP3   OH243767   3.554   3.708  13.005  0.2658 -0.4224  0.2459
 7451TIP3    H143768   3.459   3.698  13.004  0.2753 -0.4313 -0.4863
 7451TIP3    H243769   3.575   3.722  13.098 -0.2388 -2.3962  0.6896
 7452TIP3   OH243770   0.419   2.804   4.537  0.2482 -0.5712  0.7212
 7452TIP3    H143771   0.359   2.807   4.611 -4.1062 -1.0118 -2.5294
 7452TIP3    H243772   0.462   2.889   4.536  0.8478 -0.7905  4.0231
 7453TIP3   OH243773   1.535   0.966   1.492  0.1415  0.2468  0.2263
 7453TIP3    H143774   1.518   1.059   1.481  3.0289  0.7025 -0.6097
 7453TIP3    H243775   1.495   0.944   1.576 -0.1054  2.3419  0.6770
 7454TIP3   OH243776   4.472   0.732   3.725  0.1678  0.2486  0.0376
 7454TIP3    H143777   4.462   0.710   3.817  0.4549  0.0546  0.0238
 7454TIP3    H243778   4.542   0.797   3.723  0.8970 -0.5252 -0.1423
 7455TIP3   OH243779   5.560   1.696   2.845  0.5886  0.6855 -0.2363
 7455TIP3    H143780   5.513   1.653   2.774  1.1056  1.1684 -0.8747
 7455TIP3    H243781   5.577   1.626   2.909  1.5440 -0.0904 -1.3206
 7456TIP3   OH243782   0.414   4.632  15.127 -0.1666 -0.0111  0.2083
 7456TIP3    H143783   0.328   4.591  15.119 -0.1668  0.1683 -0.7755
 7456TIP3    H243784   0.406   4.716  15.083  1.0643 -0.8627 -1.7496
 7457TIP3   OH243785   4.807   0.618   3.194  0.4493  0.3892 -0.6595
 7457TIP3    H143786   4.740   0.599   3.260  0.0843  0.3576 -1.0358
 7457TIP3    H243787   4.882   0.565   3.220  0.4335  0.6532 -0.0649
 7458TIP3   OH243788   0.017   0.267  16.452 -0.0863  0.4573  0.5144
 7458TIP3    H143789  -0.019   0.203  16.512 -1.3953  0.5771 -0.1207
 7458TIP3    H243790   0.109   0.274  16.476 -0.2336 -0.6870  1.4321
 7459TIP3   OH243791   5.081   0.552  12.389 -0.5469  0.3401 -0.3684
 7459TIP3    H143792   5.037   0.529  12.307 -1.3895 -0.7094  0.3756
 7459TIP3    H243793   5.172   0.526  12.375 -0.8222 -0.4468 -0.7377
 7460TIP3   OH243794   5.920   2.875   6.597  0.0975  0.4834 -0.1980
 7460TIP3    H143795   6.014   2.883   6.616 -0.3496  1.2962  1.7720
 7460TIP3    H243796   5.884   2.831   6.674 -1.4127  1.7211 -0.1711
 7461TIP3   OH243797   4.951   1.004  12.070 -0.0182  0.0754  1.0292
 7461TIP3    H143798   5.007   1.081  12.066  0.3000 -0.1751  0.7112
 7461TIP3    H243799   4.868   1.037  12.106 -0.4082  0.8701 -0.5296
 7462TIP3   OH243800   3.060   4.826   3.043  0.0856  0.0444  0.7619
 7462TIP3    H143801   2.968   4.847   3.057 -0.1403 -1.3658  1.4617
 7462TIP3    H243802   3.107   4.903   3.075 -0.8366  0.6845  0.5891
 7463TIP3   OH243803   1.684   4.214   4.131 -0.0991 -0.0370  0.6316
 7463TIP3    H143804   1.594   4.201   4.100  0.0605 -0.3132  0.2752
 7463TIP3    H243805   1.715   4.291   4.082  0.7295 -1.4922 -1.1892
 7464TIP3   OH243806   3.437   5.093  16.311 -0.7809  0.0656 -0.3565
 7464TIP3    H143807   3.475   5.100  16.399  0.7209 -0.4391 -0.9551
 7464TIP3    H243808   3.415   5.183  16.287  0.2718  0.4012 -0.0921
 7465TIP3   OH243809   0.701   2.214   0.986  0.3937 -0.1078  0.8094
 7465TIP3    H143810   0.665   2.127   1.002  0.2818 -0.1604  0.3002
 7465TIP3    H243811   0.714   2.251   1.073 -0.3485 -0.3098  1.0133
 7466TIP3   OH243812   1.354   1.684  13.418 -0.3171  0.4298  0.0153
 7466TIP3    H143813   1.259   1.672  13.415 -0.5587  2.3783 -1.0506
 7466TIP3    H243814   1.368   1.751  13.484  0.2742  0.6333 -0.3098
 7467TIP3   OH243815   6.312   1.534  12.705  0.5903  0.1790 -0.5139
 7467TIP3    H143816   6.380   1.467  12.715  0.1565 -0.2575 -0.4474
 7467TIP3    H243817   6.235   1.485  12.675 -0.8570  0.0649  3.1781
 7468TIP3   OH243818   0.689   6.254   4.991  0.9619  0.2820  0.2232
 7468TIP3    H143819   0.751   6.310   5.037 -0.3639  1.6993  0.3286
 7468TIP3    H243820   0.708   6.267   4.898 -0.2097  1.9389  0.2063
 7469TIP3   OH243821   6.001   1.886   3.731 -0.1353  0.7753  0.1808
 7469TIP3    H143822   6.081   1.854   3.688  0.2837  1.7155  0.2470
 7469TIP3    H243823   5.998   1.979   3.708  0.6134  1.5449  2.9655
 7470TIP3   OH243824   5.657   6.379  14.596  0.2379  0.6236  0.4707
 7470TIP3    H143825   5.628   6.462  14.632  0.0556  0.0982  1.5393
 7470TIP3    H243826   5.628   6.313  14.659 -0.4460 -0.3371 -0.8388
 7471TIP3   OH243827   1.879   0.661   0.544  0.0905 -0.3948 -0.6647
 7471TIP3    H143828   1.970   0.647   0.570 -0.5331 -0.7960  1.4118
 7471TIP3    H243829   1.875   0.753   0.516  1.1955 -0.4831 -1.1222
 7472TIP3   OH243830   1.159   2.508   4.269  0.1849 -0.2941  0.2445
 7472TIP3    H143831   1.248   2.477   4.253  0.0548 -0.1280 -0.8335
 7472TIP3    H243832   1.141   2.566   4.195 -0.2729  0.8403  1.2423
 7473TIP3   OH243833   6.289   4.977   1.327  0.2247  0.4242  0.3549
 7473TIP3    H143834   6.325   5.060   1.358  0.5738  0.1490  0.6929
 7473TIP3    H243835   6.333   4.960   1.244  0.2178  0.5331  0.3299
 7474TIP3   OH243836   2.610   0.185  12.402 -0.0807 -0.7287  0.2205
 7474TIP3    H143837   2.611   0.109  12.343 -1.2241  0.2481 -1.1170
 7474TIP3    H243838   2.523   0.183  12.441 -0.1686 -0.0250  0.0585
 7475TIP3   OH243839   6.190   2.570  16.485  0.1117  1.0356 -0.4221
 7475TIP3    H143840   6.223   2.551  16.397  1.2178 -0.0991  0.2365
 7475TIP3    H243841   6.110   2.518  16.492 -0.2919  1.5602 -0.9412
 7476TIP3   OH243842   3.929   4.466  11.954  0.1385  0.2880  0.9570
 7476TIP3    H143843   3.910   4.554  11.985  3.7553  1.1050  1.0887
 7476TIP3    H243844   3.907   4.467  11.861  0.6416  1.4977  0.8513
 7477TIP3   OH243845   5.204   0.570  13.085  0.5398  0.8422 -0.0251
 7477TIP3    H143846   5.173   0.658  13.104  1.4295  1.2801 -0.5545
 7477TIP3    H243847   5.144   0.512  13.131 -0.4676  1.7031 -0.2470
 7478TIP3   OH243848   4.587   1.733  13.583  0.3270 -0.2808  0.2897
 7478TIP3    H143849   4.620   1.682  13.657 -0.0081 -3.5640 -1.7158
 7478TIP3    H243850   4.656   1.728  13.518 -0.6104 -0.0024 -0.7395
 7479TIP3   OH243851   2.431   2.815   3.509  0.7026  0.3865  0.1229
 7479TIP3    H143852   2.491   2.874   3.463 -2.2656  2.3793 -1.3034
 7479TIP3    H243853   2.409   2.861   3.590 -1.4931  1.2447 -0.9210
 7480TIP3   OH243854   5.111   6.142   1.976  0.4438  0.1439 -0.4106
 7480TIP3    H143855   5.170   6.167   2.048  0.7564  0.2937 -0.7167
 7480TIP3    H243856   5.168   6.136   1.900  0.4694 -2.0796 -0.2263
 7481TIP3   OH243857   5.355   2.839   4.176  0.5006 -0.6466  0.2935
 7481TIP3    H143858   5.284   2.776   4.177  0.2312 -0.3184  1.6001
 7481TIP3    H243859   5.365   2.862   4.083  1.4226 -3.5143 -0.3515
 7482TIP3   OH243860   5.311   5.593  15.069  0.2902 -0.5179 -0.1502
 7482TIP3    H143861   5.378   5.660  15.074  0.8194 -0.9709 -0.9796
 7482TIP3    H243862   5.257   5.606  15.147 -1.9250  3.2984 -2.1662
 7483TIP3   OH243863   3.280   1.243  15.822  0.1993  0.2374 -0.1397
 7483TIP3    H143864   3.188   1.216  15.826  0.4554 -0.5167  0.8220
 7483TIP3    H243865   3.281   1.316  15.761 -0.8075 -0.7808 -1.4105
 7484TIP3   OH243866   2.547   2.439   1.338 -0.1695  0.0724  0.2156
 7484TIP3    H143867   2.630   2.485   1.325 -0.3255  0.0759 -0.7877
 7484TIP3    H243868   2.499   2.493   1.401  0.2273  0.5404  0.1192
 7485TIP3   OH243869   5.820   2.255   4.869  0.0249 -0.0980  0.4533
 7485TIP3    H143870   5.773   2.249   4.953 -1.1913  0.2543 -0.1886
 7485TIP3    H243871   5.859   2.342   4.869 -2.5808  1.1258 -0.6648
 7486TIP3   OH243872   2.107   3.839  16.533 -0.3607  0.6494  0.3927
 7486TIP3    H143873   2.104   3.930  16.504 -2.9653  0.2749 -0.6856
 7486TIP3    H243874   2.105   3.788  16.452 -0.4471 -0.3789  1.0327
 7487TIP3   OH243875   3.056   2.724  15.754  0.6789  0.0909 -0.4633
 7487TIP3    H143876   3.011   2.687  15.679 -0.1078 -1.8153  0.8978
 7487TIP3    H243877   3.118   2.657  15.781 -0.5104 -0.1361  1.8286
 7488TIP3   OH243878   0.591   0.189  16.613 -0.0728  0.1841  0.0440
 7488TIP3    H143879   0.516   0.185  16.671 -0.4968  0.6167 -0.4742
 7488TIP3    H243880   0.665   0.213  16.670 -0.5534  0.9813  0.3315
 7489TIP3   OH243881   5.216   3.195   1.482  0.2465 -0.1804  0.3807
 7489TIP3    H143882   5.299   3.243   1.491 -0.0134  0.0315  1.8612
 7489TIP3    H243883   5.150   3.263   1.475  0.0107 -0.3330  1.1105
 7490TIP3   OH243884   0.873   2.552  14.699 -0.2543  0.0045 -0.6989
 7490TIP3    H143885   0.820   2.618  14.653 -0.4874 -0.1510 -0.6547
 7490TIP3    H243886   0.890   2.485  14.633 -0.6711 -0.2657 -0.5304
 7491TIP3   OH243887   1.026   2.830   1.621  0.4754 -0.1643  0.0486
 7491TIP3    H143888   1.050   2.757   1.677 -0.5812 -0.2461  0.3982
 7491TIP3    H243889   0.973   2.791   1.551 -0.2479  0.2806  0.3362
 7492TIP3   OH243890   4.905   1.372  11.072  0.0739 -0.0276  0.1645
 7492TIP3    H143891   4.881   1.302  11.133 -0.4296 -1.1990 -1.3365
 7492TIP3    H243892   4.822   1.406  11.040  0.3342  0.4895  0.0263
 7493TIP3   OH243893   0.326   4.140  16.934 -0.5999  0.4184 -0.9488
 7493TIP3    H143894   0.411   4.097  16.949  0.2850  1.3574 -3.1652
 7493TIP3    H243895   0.272   4.111  17.008  1.2437 -1.2186 -0.1856
 7494TIP3   OH243896   1.528   5.618  11.577 -0.1382  0.1420  0.0799
 7494TIP3    H143897   1.466   5.571  11.633  0.3405 -0.0957  0.4115
 7494TIP3    H243898   1.571   5.550  11.525 -0.5039  0.3509 -0.5062
 7495TIP3   OH243899   6.560   5.805   4.607  0.3296  0.2146 -0.4835
 7495TIP3    H143900   6.518   5.755   4.537  3.1271 -1.7656 -0.8344
 7495TIP3    H243901   6.650   5.817   4.577  1.2435  0.3975  2.2350
 7496TIP3   OH243902   6.012   6.650  14.511  0.3614 -0.2748 -0.0764
 7496TIP3    H143903   6.068   6.711  14.560 -0.5658  1.3451 -1.0100
 7496TIP3    H243904   5.929   6.651  14.559  0.8891 -2.1558  0.9153
 7497TIP3   OH243905   2.731   1.537   4.045  0.5776  0.3009  0.4165
 7497TIP3    H143906   2.702   1.478   4.116  0.6798  2.1116  2.0036
 7497TIP3    H243907   2.798   1.488   3.999  1.1563 -0.5808  2.1530
 7498TIP3   OH243908   3.974   3.135  15.288  0.4608  0.1097  1.2286
 7498TIP3    H143909   4.005   3.226  15.290 -0.9268  0.6930 -1.6496
 7498TIP3    H243910   3.997   3.103  15.201 -0.0627 -1.9464  1.8141
 7499TIP3   OH243911   4.499   3.092   4.840  0.3534 -0.0874  0.5396
 7499TIP3    H143912   4.576   3.148   4.836 -0.1290  0.5607  0.3921
 7499TIP3    H243913   4.518   3.031   4.912  1.0689 -0.0386  0.3954
 7500TIP3   OH243914   2.053   6.554  12.646  0.0860 -0.5550 -0.3078
 7500TIP3    H143915   2.135   6.505  12.651  0.9214  0.7994 -0.5893
 7500TIP3    H243916   2.077   6.644  12.668 -0.6155  0.6445 -4.1139
 7501TIP3   OH243917   0.631   0.624   3.494  0.3583 -0.3624  0.4659
 7501TIP3    H143918   0.580   0.577   3.429  0.4285  0.0034  0.1425
 7501TIP3    H243919   0.714   0.576   3.500  1.7880  1.6189 -2.3380
 7502TIP3   OH243920   5.954   6.392  14.144  0.0150  0.6856  0.0593
 7502TIP3    H143921   5.966   6.461  14.080 -0.4929  1.0923  0.4028
 7502TIP3    H243922   6.028   6.401  14.205  0.3163  0.5019 -0.2779
 7503TIP3   OH243923   6.227   0.001   3.945 -0.4315 -0.1046  0.5663
 7503TIP3    H143924   6.177  -0.017   3.866 -2.0865  0.2883  1.5094
 7503TIP3    H243925   6.312  -0.040   3.930 -1.2971 -1.4531 -0.7285
 7504TIP3   OH243926   2.505   6.736  13.469  0.4723 -0.6138  0.1166
 7504TIP3    H143927   2.434   6.733  13.406  0.8414 -0.4763 -0.3120
 7504TIP3    H243928   2.473   6.687  13.545 -0.0579 -0.5851 -0.0891
 7505TIP3   OH243929   2.548   5.985   3.625  0.1197  0.4618 -0.0727
 7505TIP3    H143930   2.579   5.912   3.571 -2.8451 -1.7471  1.0268
 7505TIP3    H243931   2.471   6.017   3.579 -0.4582  0.7721  1.0863
 7506TIP3   OH243932   0.178   2.144   2.630 -0.3124  0.1548  0.1972
 7506TIP3    H143933   0.086   2.170   2.631 -0.4385 -0.1866 -1.1784
 7506TIP3    H243934   0.211   2.176   2.546  0.5342 -0.7115  0.1842
 7507TIP3   OH243935   3.761   6.031  15.905 -0.6798  0.4551  0.7069
 7507TIP3    H143936   3.815   5.995  15.975  1.2812  1.4875 -0.1871
 7507TIP3    H243937   3.691   6.078  15.949 -0.2865 -0.1051  1.9348
 7508TIP3   OH243938   4.342   1.878  14.108  0.1947  0.2920 -0.4665
 7508TIP3    H143939   4.392   1.951  14.145 -1.6693  1.6837 -0.6319
 7508TIP3    H243940   4.386   1.800  14.141  2.1512  1.4700 -0.1823
 7509TIP3   OH243941   2.658   5.731  16.808 -0.4293 -0.1352  0.5409
 7509TIP3    H143942   2.649   5.650  16.757 -1.3547  0.4995 -0.3317
 7509TIP3    H243943   2.662   5.800  16.743  0.2080  0.5444  1.2927
 7510TIP3   OH243944   2.701   2.113  16.956  0.2519 -0.2641 -0.7166
 7510TIP3    H143945   2.655   2.078  17.033 -1.6635  0.5723 -1.4607
 7510TIP3    H243946   2.663   2.065  16.882 -0.7038  1.6665 -1.5099
 7511TIP3   OH243947   6.549   5.384  13.985 -0.3811 -0.5315 -0.1584
 7511TIP3    H143948   6.558   5.369  14.079 -0.5400  0.2303 -0.0210
 7511TIP3    H243949   6.625   5.340  13.947  0.3997  0.2790  0.4447
 7512TIP3   OH243950   5.043   4.670   0.844  0.0403  0.0596  0.7410
 7512TIP3    H143951   5.000   4.752   0.820 -1.1478 -0.4077  1.2567
 7512TIP3    H243952   5.107   4.695   0.910 -0.2000  0.6023  0.7702
 7513TIP3   OH243953   3.807   3.553  15.170 -0.1731 -0.7340  0.4103
 7513TIP3    H143954   3.737   3.526  15.111 -0.4600 -1.0398  0.8916
 7513TIP3    H243955   3.763   3.571  15.253  0.2998 -0.7611  0.6672
 7514TIP3   OH243956   6.745   4.295   2.600  0.1020 -0.3329  0.5911
 7514TIP3    H143957   6.728   4.380   2.640 -0.5363  0.3131 -1.0265
 7514TIP3    H243958   6.661   4.249   2.606 -0.3396  0.2289 -1.0892
 7515TIP3   OH243959   0.772   3.196   1.526  0.1789 -0.1156  0.3704
 7515TIP3    H143960   0.754   3.201   1.620 -1.3498  0.7827  0.0627
 7515TIP3    H243961   0.798   3.285   1.502  1.0691 -0.4620  0.0296
 7516TIP3   OH243962   1.504   0.808   2.508  0.3824  0.0311 -0.5151
 7516TIP3    H143963   1.494   0.843   2.597  1.4037  1.7260 -1.0497
 7516TIP3    H243964   1.548   0.724   2.521  1.7759  0.8919  0.5081
 7517TIP3   OH243965   2.834   6.678   4.487  0.3177  0.4332 -0.1792
 7517TIP3    H143966   2.771   6.617   4.526  0.9128  0.3496  0.6797
 7517TIP3    H243967   2.828   6.661   4.393 -0.6294  0.1291 -0.0747
 7518TIP3   OH243968   2.811   0.125   3.234 -0.0175  0.1559  0.5923
 7518TIP3    H143969   2.798   0.042   3.188 -0.2621  0.5743 -0.1098
 7518TIP3    H243970   2.778   0.109   3.322  0.8234 -0.7800  0.7546
 7519TIP3   OH243971   1.996   2.351  10.840  0.0774 -0.1803 -0.4250
 7519TIP3    H143972   1.972   2.377  10.751  0.5427  2.5195  0.2090
 7519TIP3    H243973   2.091   2.343  10.838  0.1405  0.5071  0.0034
 7520TIP3   OH243974   4.205   6.749  14.900  0.2343  0.1674  0.5879
 7520TIP3    H143975   4.216   6.738  14.995 -1.8458  0.1048  0.8560
 7520TIP3    H243976   4.293   6.742  14.865  1.1350  0.8959  2.5928
 7521TIP3   OH243977   5.409   5.858   5.139 -0.4873 -0.0746  0.4056
 7521TIP3    H143978   5.392   5.927   5.203 -3.3134 -1.2525  1.0051
 7521TIP3    H243979   5.422   5.779   5.192 -0.5685 -0.6149 -0.3744
 7522TIP3   OH243980   2.170   2.830   2.032  0.2874  0.0164  0.5514
 7522TIP3    H143981   2.161   2.916   1.992  0.6428  0.4608  1.4258
 7522TIP3    H243982   2.091   2.782   2.004 -1.0017  1.3402  1.8448
 7523TIP3   OH243983   5.825   5.427  12.896  0.1567 -0.2251 -0.1653
 7523TIP3    H143984   5.886   5.400  12.827  0.0532 -2.1387  0.4714
 7523TIP3    H243985   5.761   5.356  12.901 -0.3094  0.2805  1.3406
 7524TIP3   OH243986   4.358   2.513  12.027 -0.2248  0.1263  0.4171
 7524TIP3    H143987   4.356   2.577  11.956 -1.3302 -0.3060  0.0501
 7524TIP3    H243988   4.302   2.550  12.095  1.0052  0.6430  1.1797
 7525TIP3   OH243989   5.349   5.100  15.867  0.4079 -0.1775 -0.1492
 7525TIP3    H143990   5.279   5.164  15.857  0.2722 -0.2686  0.2079
 7525TIP3    H243991   5.429   5.152  15.873  0.2078 -0.0040  0.9940
 7526TIP3   OH243992   1.399   5.679   3.574 -0.3401 -0.2903 -0.0676
 7526TIP3    H143993   1.445   5.596   3.564  0.1429 -0.0436  0.1090
 7526TIP3    H243994   1.317   5.657   3.618  0.8956 -0.3317  2.3026
 7527TIP3   OH243995   4.889   4.446   4.729 -0.1482  0.2765  0.2818
 7527TIP3    H143996   4.977   4.453   4.693 -0.0270  0.0345  0.5346
 7527TIP3    H243997   4.880   4.522   4.787  0.8088 -1.0505  2.2369
 7528TIP3   OH243998   1.317   0.889  14.109  0.3357 -0.5743 -0.2577
 7528TIP3    H143999   1.222   0.876  14.115  0.2137 -1.1166 -2.7705
 7528TIP3    H244000   1.353   0.801  14.107  1.0560 -0.3800  2.1954
 7529TIP3   OH244001   1.676   2.707   4.116  0.0139 -0.0773 -0.2539
 7529TIP3    H144002   1.588   2.727   4.085  0.0154 -0.1370 -0.2971
 7529TIP3    H244003   1.722   2.791   4.113  0.0437 -0.1029 -0.5107
 7530TIP3   OH244004   5.046   6.504  15.103 -0.1124  0.1427  0.4048
 7530TIP3    H144005   5.132   6.531  15.134  0.4823  0.1633 -1.2040
 7530TIP3    H244006   5.065   6.445  15.029 -1.4806  0.7954 -0.4856
 7531TIP3   OH244007   1.066   1.096  16.487  1.0364 -1.6128 -0.3802
 7531TIP3    H144008   1.047   1.102  16.393  0.3239 -3.2082 -0.3532
 7531TIP3    H244009   1.145   1.149  16.499 -0.6190  1.1611 -1.3268
 7532TIP3   OH244010   1.694   2.338   2.938 -0.3470 -0.3321 -0.8661
 7532TIP3    H144011   1.697   2.376   3.026 -3.9280 -2.0404  0.0580
 7532TIP3    H244012   1.785   2.315   2.920  0.7434  1.6985  1.6212
 7533TIP3   OH244013   4.667   5.887  12.046 -0.1540 -0.1841  0.8152
 7533TIP3    H144014   4.625   5.973  12.053  0.0528 -0.0088  0.0362
 7533TIP3    H244015   4.749   5.905  11.999  0.5479 -0.5953  1.8548
 7534TIP3   OH244016   0.841   6.675  10.755  0.1538  0.1439  0.5523
 7534TIP3    H144017   0.749   6.684  10.782  0.3901  0.4394  1.2508
 7534TIP3    H244018   0.869   6.765  10.737 -0.3516 -0.1279 -1.8569
 7535TIP3   OH244019   2.888   1.608  12.153 -0.3686  0.7725  0.2044
 7535TIP3    H144020   2.945   1.654  12.215  2.0927  0.0928 -1.4653
 7535TIP3    H244021   2.885   1.518  12.185  0.8683  0.4321 -0.5628
 7536TIP3   OH244022   2.846   0.875  11.126  0.4610  0.4958 -0.4993
 7536TIP3    H144023   2.858   0.958  11.172  1.5515 -0.7716  1.5909
 7536TIP3    H244024   2.782   0.828  11.179  1.4850 -0.8473 -0.4188
 7537TIP3   OH244025   5.383   0.443  15.099 -0.4177 -0.4937  0.4261
 7537TIP3    H144026   5.335   0.494  15.164 -0.5713  1.8004 -1.4179
 7537TIP3    H244027   5.475   0.455  15.122 -0.3413  2.3488 -1.1646
 7538TIP3   OH244028   2.988   4.010  14.683  0.3278 -0.1147 -0.1904
 7538TIP3    H144029   2.930   3.936  14.668 -0.4287  0.5704 -0.6690
 7538TIP3    H244030   3.072   3.984  14.644  0.5577 -1.3928  1.1318
 7539TIP3   OH244031   2.194   2.239  16.148 -0.5753  0.1115 -0.4991
 7539TIP3    H144032   2.141   2.317  16.135  1.0301  1.6888  2.1474
 7539TIP3    H244033   2.197   2.197  16.062 -2.5457  2.2515 -1.6307
 7540TIP3   OH244034   5.561   1.815   0.765  0.0921  0.0476 -0.0638
 7540TIP3    H144035   5.590   1.835   0.676 -2.3934  1.1093 -0.6633
 7540TIP3    H244036   5.593   1.889   0.818 -0.0041  0.3226 -0.3895
 7541TIP3   OH244037   5.953   5.971   2.826 -0.0186  0.6917  0.1694
 7541TIP3    H144038   5.970   6.059   2.792  2.3730  0.8796  1.7681
 7541TIP3    H244039   5.887   5.985   2.895  0.0436  1.1656  0.1337
 7542TIP3   OH244040   2.165   3.451  17.230  0.5019 -0.0014  0.2025
 7542TIP3    H144041   2.085   3.452  17.283 -1.3505 -1.8804 -2.3961
 7542TIP3    H244042   2.193   3.542  17.227 -0.6865  0.4576  2.4272
 7543TIP3   OH244043   5.987   0.462   2.791 -0.3565  0.3027 -0.7233
 7543TIP3    H144044   6.014   0.381   2.749  1.0796 -0.7574  2.0862
 7543TIP3    H244045   5.920   0.434   2.855 -0.9845  1.5421 -0.8330
 7544TIP3   OH244046   1.229   6.476   3.704  0.3775  0.1144  0.1861
 7544TIP3    H144047   1.300   6.442   3.649  0.9816  1.2816  0.2345
 7544TIP3    H244048   1.154   6.482   3.646 -0.0495 -2.3372  0.4320
 7545TIP3   OH244049   5.131   5.416  13.910 -0.2679  0.1077  0.6239
 7545TIP3    H144050   5.069   5.362  13.861  0.7831 -1.8854  1.4540
 7545TIP3    H244051   5.083   5.442  13.989 -1.0967  1.2035 -0.2271
 7546TIP3   OH244052   5.371   5.023   1.084  0.0204  0.0320  0.4253
 7546TIP3    H144053   5.327   5.106   1.067 -0.5198 -0.4980 -0.8286
 7546TIP3    H244054   5.443   5.021   1.020  0.3032 -0.2636  0.7511
 7547TIP3   OH244055   3.189   1.502   5.569  0.2032  0.4344 -0.4525
 7547TIP3    H144056   3.099   1.469   5.571  0.5321 -0.4430  0.4082
 7547TIP3    H244057   3.180   1.597   5.565 -0.7612  0.3287 -0.8661
 7548TIP3   OH244058   1.884   5.593   6.102  0.8583  0.0873 -0.7413
 7548TIP3    H144059   1.858   5.685   6.105 -2.3277 -0.7343 -1.3134
 7548TIP3    H244060   1.940   5.581   6.178  0.9686  2.3850 -0.4263
 7549TIP3   OH244061   3.201   3.735   1.220  0.2363 -0.3995 -0.5085
 7549TIP3    H144062   3.183   3.649   1.258 -0.4175  0.0793  0.2804
 7549TIP3    H244063   3.295   3.746   1.230  0.1156 -0.4046  0.7245
 7550TIP3   OH244064   4.562   1.946   3.028 -0.4360  0.2812  0.0238
 7550TIP3    H144065   4.598   2.029   2.995  1.1768 -0.0115  1.0156
 7550TIP3    H244066   4.599   1.880   2.970  0.4265  0.0033  0.8817
 7551TIP3   OH244067   1.377   6.104   3.603  0.5649 -0.0830 -0.1446
 7551TIP3    H144068   1.460   6.114   3.650 -0.3292  0.1650  1.4085
 7551TIP3    H244069   1.316   6.161   3.650 -0.6188 -0.6665 -0.9606
 7552TIP3   OH244070   2.724   1.661   2.857 -0.5593  0.0333  0.1249
 7552TIP3    H144071   2.662   1.728   2.827 -0.8320  0.0691  0.7822
 7552TIP3    H244072   2.711   1.588   2.797  0.2013  0.8092 -1.0180
 7553TIP3   OH244073   4.265   1.782   0.889  0.3471  0.5682  0.1948
 7553TIP3    H144074   4.223   1.862   0.858 -1.2113 -0.2616  0.0917
 7553TIP3    H244075   4.212   1.711   0.853  1.6849 -0.5158  0.3074
 7554TIP3   OH244076   2.691   6.388   4.458 -0.1201  0.9579  0.4052
 7554TIP3    H144077   2.656   6.439   4.531 -1.2785  0.3696  0.2791
 7554TIP3    H244078   2.767   6.343   4.495  0.2376  1.8941  0.8177
 7555TIP3   OH244079   2.780   2.597  17.068  0.8139  0.0954  0.2874
 7555TIP3    H144080   2.846   2.626  17.005  0.4749  0.2263 -0.0156
 7555TIP3    H244081   2.788   2.502  17.068 -0.2285 -0.0195 -1.1410
 7556TIP3   OH244082   1.631   3.133  15.619 -0.5234  0.2893  0.1721
 7556TIP3    H144083   1.548   3.086  15.607 -0.8458  0.9377 -0.1495
 7556TIP3    H244084   1.626   3.207  15.559  0.2546  0.3873  0.2225
 7557TIP3   OH244085   3.219   4.961   3.606  0.0002  0.3591 -0.2080
 7557TIP3    H144086   3.204   4.894   3.540 -1.1020  0.5299 -0.1322
 7557TIP3    H244087   3.298   5.007   3.576  0.2103 -0.3497 -0.7549
 7558TIP3   OH244088   1.533   3.030  13.648 -0.3039  0.7124  0.2441
 7558TIP3    H144089   1.579   2.949  13.671 -0.6664 -0.1423 -1.9442
 7558TIP3    H244090   1.441   3.005  13.642 -0.1280  0.6578 -3.0042
 7559TIP3   OH244091   5.856   2.135  16.920  0.3303  0.6094  0.3143
 7559TIP3    H144092   5.914   2.211  16.927 -1.0315  1.5863  1.2638
 7559TIP3    H244093   5.773   2.171  16.889 -0.6655 -0.3137  1.8484
 7560TIP3   OH244094   6.200   2.770  14.962  0.2491 -0.2967 -0.0558
 7560TIP3    H144095   6.215   2.863  14.980  0.8039  0.0391 -2.1566
 7560TIP3    H244096   6.146   2.769  14.884 -1.6945 -1.7322  1.2596
 7561TIP3   OH244097   5.566   2.910   5.714 -0.4920 -0.4149  0.5138
 7561TIP3    H144098   5.483   2.872   5.686 -0.5817  0.1360  0.0256
 7561TIP3    H244099   5.591   2.969   5.643 -0.8662  1.2088  1.6877
 7562TIP3   OH244100   2.719   4.081  11.407  0.0261  0.4037 -0.4867
 7562TIP3    H144101   2.699   3.988  11.402  1.5070  0.0603 -0.2841
 7562TIP3    H244102   2.646   4.120  11.455 -0.8189 -0.5740 -0.9718
 7563TIP3   OH244103   0.224   0.753  11.068  0.6428  0.4164  0.0562
 7563TIP3    H144104   0.210   0.842  11.036 -0.6830 -0.6577 -2.5626
 7563TIP3    H244105   0.163   0.743  11.141 -1.4498  0.6985 -1.6165
 7564TIP3   OH244106   3.317   1.903  16.412  0.8505 -0.0041  0.0514
 7564TIP3    H144107   3.336   1.984  16.365 -2.0448  1.3939  1.1656
 7564TIP3    H244108   3.248   1.861  16.361  0.7296 -0.6307  0.7188
 7565TIP3   OH244109   4.964   5.844   0.131 -0.2922  0.0992  0.0155
 7565TIP3    H144110   4.915   5.868   0.210 -1.1008  0.5317 -0.6129
 7565TIP3    H244111   4.990   5.753   0.146 -0.3368  0.2107  0.8236
 7566TIP3   OH244112   3.907   3.878  17.188  0.0542  0.2704  0.7911
 7566TIP3    H144113   3.998   3.876  17.160  0.4500  2.1042  1.8860
 7566TIP3    H244114   3.857   3.856  17.109  1.4864 -2.7813  0.6544
 7567TIP3   OH244115   2.759   6.414  16.160 -0.3179  0.2210  0.9162
 7567TIP3    H144116   2.808   6.435  16.239 -0.1534 -0.4739  0.9964
 7567TIP3    H244117   2.789   6.327  16.135 -1.0459  0.0552  0.6088
 7568TIP3   OH244118   5.541   5.699  12.449  0.0174  0.5628 -0.6519
 7568TIP3    H144119   5.529   5.621  12.503  2.3018  1.6065  1.4784
 7568TIP3    H244120   5.607   5.673  12.385  0.9246  0.7891  0.1823
 7569TIP3   OH244121   0.856   1.313  13.277 -0.1385 -0.5173 -1.2848
 7569TIP3    H144122   0.950   1.294  13.273  0.1816  1.1140 -1.7108
 7569TIP3    H244123   0.836   1.354  13.193 -0.8150  0.9781 -0.4176
 7570TIP3   OH244124   0.096   2.030  17.030  0.0347 -0.7552  1.1862
 7570TIP3    H144125   0.074   2.077  16.950 -0.1149  1.4285  2.4762
 7570TIP3    H244126   0.133   1.947  17.000  0.0697  0.0748 -1.1263
 7571TIP3   OH244127   3.639   6.752   3.155  0.1462 -0.3133 -0.1966
 7571TIP3    H144128   3.565   6.740   3.096 -2.2958  0.8288  2.4583
 7571TIP3    H244129   3.635   6.845   3.179  1.6419 -0.5431  1.0048
 7572TIP3   OH244130   5.141   6.736  14.648 -0.0096  0.0099  0.0687
 7572TIP3    H144131   5.233   6.713  14.654 -0.3886 -1.2468  1.6044
 7572TIP3    H244132   5.099   6.655  14.617 -0.6039  0.5319 -0.4958
 7573TIP3   OH244133   5.781   2.617  15.380  0.1558  0.0817  0.1331
 7573TIP3    H144134   5.730   2.606  15.460  0.1386  0.1650  0.1329
 7573TIP3    H244135   5.815   2.706  15.385 -0.2530  0.2572 -0.1873
 7574TIP3   OH244136   5.949   2.248  11.906 -0.1627 -0.4173 -0.2612
 7574TIP3    H144137   5.875   2.254  11.845  0.7907  0.8025 -1.3331
 7574TIP3    H244138   5.988   2.163  11.886 -0.8651 -0.7725 -0.1570
 7575TIP3   OH244139   1.782   0.060  11.446 -0.5996 -0.1787  0.2653
 7575TIP3    H144140   1.696   0.031  11.416 -0.6418  0.7219 -0.5346
 7575TIP3    H244141   1.766   0.146  11.485  0.2235  0.9039 -1.7015
 7576TIP3   OH244142   5.184   0.580  12.693  0.3728  0.0751  0.5246
 7576TIP3    H144143   5.130   0.517  12.741 -0.8879  1.3505  0.8105
 7576TIP3    H244144   5.151   0.577  12.603  0.4272  0.1948  0.4999
 7577TIP3   OH244145   0.286   4.169  14.583  0.7468  0.3758 -0.0535
 7577TIP3    H144146   0.289   4.188  14.490 -2.1305 -2.9108 -0.9545
 7577TIP3    H244147   0.197   4.194  14.609  0.1867 -2.3372  0.8351
 7578TIP3   OH244148   6.359   6.259   5.550  0.0471 -0.1734  0.0434
 7578TIP3    H144149   6.289   6.318   5.522 -0.0104 -0.8467 -1.2775
 7578TIP3    H244150   6.428   6.270   5.485  0.3881 -0.9122  0.2703
 7579TIP3   OH244151   0.112   6.622  14.066 -0.0566  0.2982  0.5445
 7579TIP3    H144152   0.136   6.696  14.122  3.1444  0.1437 -0.5268
 7579TIP3    H244153   0.139   6.650  13.978 -0.5687 -1.3857 -0.1666
 7580TIP3   OH244154   1.100   2.010  16.742 -0.2338  0.2570  0.0671
 7580TIP3    H144155   1.139   2.031  16.827 -0.4903  2.0462 -0.2245
 7580TIP3    H244156   1.083   2.096  16.702 -0.1627 -0.5489 -1.7614
 7581TIP3   OH244157   3.103   3.412  14.495  0.5275  0.1422 -0.5838
 7581TIP3    H144158   3.155   3.357  14.436  0.8630  0.9864 -1.0762
 7581TIP3    H244159   3.086   3.356  14.571  1.6581 -0.3377 -0.6693
 7582TIP3   OH244160   2.652   4.952  16.809 -0.4486 -0.5908 -0.1526
 7582TIP3    H144161   2.688   4.865  16.829  0.4210 -0.0883  0.5371
 7582TIP3    H244162   2.594   4.937  16.735  0.4538 -1.6029 -0.6867
 7583TIP3   OH244163   2.865   4.551  13.902 -0.3644 -0.1398  0.9079
 7583TIP3    H144164   2.795   4.567  13.966 -0.5988  1.2339  0.3279
 7583TIP3    H244165   2.926   4.493  13.947 -0.7208  0.5051  2.2540
 7584TIP3   OH244166   6.543   6.706  11.102 -0.3465 -0.3567  0.7741
 7584TIP3    H144167   6.488   6.629  11.098 -1.1676  0.2686 -0.2993
 7584TIP3    H244168   6.498   6.771  11.048  2.3375 -0.4110 -1.6524
 7585TIP3   OH244169   2.008   0.672   5.680  0.1865 -0.1080 -0.1607
 7585TIP3    H144170   1.936   0.719   5.722 -1.2071 -1.2744 -1.1878
 7585TIP3    H244171   2.006   0.700   5.589  0.6694 -0.5864 -0.3235
 7586TIP3   OH244172   2.896   3.877  10.748 -0.1062  0.1346 -0.2682
 7586TIP3    H144173   2.980   3.853  10.788 -0.5833 -2.3719 -0.6533
 7586TIP3    H244174   2.843   3.907  10.821  0.1578 -1.1292  0.4554
 7587TIP3   OH244175   2.202   0.731  11.868 -0.1828  0.1019 -1.8610
 7587TIP3    H144176   2.180   0.659  11.927  0.3484  1.3545 -0.1245
 7587TIP3    H244177   2.124   0.743  11.814 -1.5028  0.4725  0.1218
 7588TIP3   OH244178   4.142   0.490  12.367  0.1237  0.6374  0.0447
 7588TIP3    H144179   4.113   0.581  12.376 -1.6002 -0.0523  1.7982
 7588TIP3    H244180   4.234   0.497  12.343  0.2643  2.8588  1.0803
 7589TIP3   OH244181   4.054   6.119   0.685  0.0122  0.2034  0.3211
 7589TIP3    H144182   4.149   6.110   0.676 -0.0087  0.2738  0.0029
 7589TIP3    H244183   4.023   6.124   0.594 -0.2293  0.8143  0.4375
 7590TIP3   OH244184   4.027   3.677   2.826 -0.1945 -0.4736  0.4703
 7590TIP3    H144185   3.979   3.743   2.774  1.2725 -0.6227 -1.1226
 7590TIP3    H244186   4.099   3.726   2.864  1.4855 -1.3229 -1.5309
 7591TIP3   OH244187   5.472   5.699  14.705  0.2614 -0.2297  0.4705
 7591TIP3    H144188   5.466   5.770  14.768 -0.3312 -1.5390  1.9344
 7591TIP3    H244189   5.398   5.642  14.727 -0.7214 -0.0554 -2.2459
 7592TIP3   OH244190   4.687   3.274  16.844 -0.2497  0.2099 -0.0101
 7592TIP3    H144191   4.619   3.260  16.778  0.7902  2.3578 -1.5689
 7592TIP3    H244192   4.727   3.187  16.854 -1.2645 -0.4320 -1.2593
 7593TIP3   OH244193   5.735   4.345  11.140 -0.6326 -0.3574 -0.6656
 7593TIP3    H144194   5.786   4.390  11.073 -2.0238  0.0119 -1.5028
 7593TIP3    H244195   5.691   4.415  11.188  0.5432 -0.6044  0.8141
 7594TIP3   OH244196   2.411   1.422  12.309 -0.4391 -0.0007  0.8939
 7594TIP3    H144197   2.494   1.381  12.334 -0.2208  0.2369  0.5745
 7594TIP3    H244198   2.401   1.401  12.216 -0.6038  0.1933  0.8673
 7595TIP3   OH244199   1.538   4.086   3.174  0.6381  0.0602  0.0483
 7595TIP3    H144200   1.516   4.098   3.082  2.2586  0.0415 -0.3375
 7595TIP3    H244201   1.506   4.165   3.217 -1.1829 -0.4328 -0.3182
 7596TIP3   OH244202   4.469   2.974  14.956  0.4309  0.5377  0.3567
 7596TIP3    H144203   4.422   2.978  14.873  0.6977  0.0017  0.1768
 7596TIP3    H244204   4.425   2.905  15.005  0.4068  0.7101  0.5789
 7597TIP3   OH244205   0.595   4.342   5.753  0.0822 -0.4266 -0.4222
 7597TIP3    H144206   0.520   4.385   5.794 -1.2545 -1.2540 -1.9195
 7597TIP3    H244207   0.656   4.413   5.735  0.3215  0.0628  2.1522
 7598TIP3   OH244208   3.288   6.681   5.104 -0.1884 -0.0899 -0.1040
 7598TIP3    H144209   3.193   6.687   5.091 -0.3440  0.3469  1.2052
 7598TIP3    H244210   3.320   6.770   5.088  0.5739 -1.0324 -4.6891
 7599TIP3   OH244211   4.979   3.364  16.605  0.2484  0.3278  0.6488
 7599TIP3    H144212   5.042   3.304  16.565  1.3750  0.4436  2.1761
 7599TIP3    H244213   4.996   3.357  16.699 -0.1978  2.3797  0.9069
 7600TIP3   OH244214   2.148   4.375   2.679 -0.6558 -0.4095 -0.0432
 7600TIP3    H144215   2.064   4.385   2.635 -0.6132  0.5330  0.0783
 7600TIP3    H244216   2.198   4.316   2.623 -0.3890  1.2294 -1.5786
 7601TIP3   OH244217   6.108   4.787   4.307  0.0270 -0.2317 -0.0296
 7601TIP3    H144218   6.062   4.853   4.359  0.8889  1.6046 -1.5540
 7601TIP3    H244219   6.121   4.714   4.368 -1.9002  0.5512  1.3723
 7602TIP3   OH244220   3.265   0.490  14.189 -0.2993 -0.7187  0.6607
 7602TIP3    H144221   3.307   0.520  14.109 -0.5963  0.7650  1.0456
 7602TIP3    H244222   3.177   0.464  14.163 -0.0225 -1.3140  0.3129
 7603TIP3   OH244223   4.670   0.604  11.454  0.2294  0.2381  0.0955
 7603TIP3    H144224   4.731   0.531  11.449  0.0879  0.0298  1.3211
 7603TIP3    H244225   4.727   0.682  11.455  0.4877  0.0355  1.4516
 7604TIP3   OH244226   0.596   3.678   0.985  0.4556 -0.4489  0.4513
 7604TIP3    H144227   0.514   3.660   0.939  0.3880 -1.1584  0.8393
 7604TIP3    H244228   0.605   3.773   0.982 -1.9941 -0.0454  3.1146
 7605TIP3   OH244229   1.113   1.477  13.724  0.0746 -0.4136 -0.2499
 7605TIP3    H144230   1.043   1.455  13.786  0.4934 -0.1951  0.3011
 7605TIP3    H244231   1.124   1.571  13.733  0.3923 -0.4400 -0.3878
 7606TIP3   OH244232   6.761   4.996  12.954 -0.2996 -0.0577  0.2343
 7606TIP3    H144233   6.856   4.996  12.948 -0.1943 -1.1942  1.5021
 7606TIP3    H244234   6.740   4.918  13.006 -1.7773  1.2966  1.7547
 7607TIP3   OH244235   1.641   0.466  11.867 -0.1653  0.3594 -0.1462
 7607TIP3    H144236   1.686   0.501  11.790 -0.3226  0.5845 -0.1382
 7607TIP3    H244237   1.586   0.539  11.897 -1.5295 -0.3241 -0.9315
 7608TIP3   OH244238   1.350   0.071   1.617  0.2379  0.2309  0.3899
 7608TIP3    H144239   1.264   0.102   1.647 -0.1170 -1.1793  0.8528
 7608TIP3    H244240   1.397   0.049   1.697  0.8094  0.3977  0.1032
 7609TIP3   OH244241   0.337   4.843   2.643 -0.7815  0.8064 -0.7918
 7609TIP3    H144242   0.275   4.771   2.637  0.9402 -0.7101 -0.8132
 7609TIP3    H244243   0.371   4.854   2.554 -0.1045  0.7983 -0.5371
 7610TIP3   OH244244   6.711   6.234  14.592 -0.0377 -0.4580 -0.3959
 7610TIP3    H144245   6.767   6.300  14.631 -0.0549 -1.4965  1.4411
 7610TIP3    H244246   6.725   6.156  14.646  0.2424 -2.0571 -2.7019
 7611TIP3   OH244247   4.105   4.069  15.941  0.2701  0.0514 -0.1198
 7611TIP3    H144248   4.057   4.040  16.018  0.1860  1.0490  0.2046
 7611TIP3    H244249   4.087   4.002  15.875 -1.6290  0.4358 -0.0149
 7612TIP3   OH244250   3.048   2.957   5.597  0.6039 -0.0332  0.0872
 7612TIP3    H144251   2.954   2.943   5.606  0.5258  0.8215  0.6505
 7612TIP3    H244252   3.070   3.017   5.668  1.1853  1.5259 -1.3726
 7613TIP3   OH244253   6.125   1.547   3.270  0.2937 -0.0955  0.4001
 7613TIP3    H144254   6.060   1.505   3.214  0.6256 -1.2681  0.8684
 7613TIP3    H244255   6.179   1.475   3.303  1.4362  0.7947  0.5226
 7614TIP3   OH244256   4.753   6.713  13.305  0.0854 -0.0723  0.0505
 7614TIP3    H144257   4.688   6.782  13.296 -0.7226 -0.4984  2.4208
 7614TIP3    H244258   4.743   6.661  13.225  0.4514  2.2893 -1.5902
 7615TIP3   OH244259   4.577   5.588   0.743  0.5546  0.2149 -0.0635
 7615TIP3    H144260   4.557   5.525   0.813 -0.2842  0.1388 -0.3627
 7615TIP3    H244261   4.514   5.567   0.674  0.4149  1.2532 -0.2511
 7616TIP3   OH244262   3.688   6.141  12.324  0.2566 -0.2368  0.5934
 7616TIP3    H144263   3.781   6.148  12.346  0.0774  0.6773  1.1072
 7616TIP3    H244264   3.670   6.047  12.326  1.8276 -0.6667 -2.3763
 7617TIP3   OH244265   1.531   5.722  17.134  0.2009 -0.1631 -0.3331
 7617TIP3    H144266   1.540   5.728  17.039  0.4141 -0.4204 -0.3295
 7617TIP3    H244267   1.588   5.649  17.159  0.1041 -0.1303 -0.0139
 7618TIP3   OH244268   5.581   5.254  15.911 -0.1682  0.3655 -0.0860
 7618TIP3    H144269   5.565   5.257  16.005  1.5186 -0.0033  0.2317
 7618TIP3    H244270   5.590   5.346  15.885  1.3305  0.4005  0.4880
 7619TIP3   OH244271   1.816   1.977  16.232 -0.3256 -0.0128  0.1782
 7619TIP3    H144272   1.732   1.930  16.230 -0.2367 -0.2621  1.8730
 7619TIP3    H244273   1.797   2.061  16.191 -0.0870 -2.0935 -4.5342
 7620TIP3   OH244274   4.210   3.168   3.429 -0.5167 -0.4607 -0.0732
 7620TIP3    H144275   4.200   3.263   3.437 -0.9049 -0.5786  0.9751
 7620TIP3    H244276   4.123   3.133   3.451  1.0497 -1.3464  5.5641
 7621TIP3   OH244277   6.058   1.753   2.656 -0.1799 -0.6706  0.6740
 7621TIP3    H144278   5.980   1.718   2.698 -0.4963 -0.9536 -0.1320
 7621TIP3    H244279   6.054   1.847   2.673 -1.3337 -0.5140 -0.3812
 7622TIP3   OH244280   5.450   4.995   4.983 -0.1250 -0.7336  0.0433
 7622TIP3    H144281   5.390   5.043   4.926  0.1761 -1.9431 -1.3436
 7622TIP3    H244282   5.498   5.062   5.030 -1.8758  0.2640  0.4561
 7623TIP3   OH244283   5.965   2.021  15.623 -0.1954  0.7854  0.2958
 7623TIP3    H144284   6.004   2.049  15.706  1.3997 -1.3533  0.3178
 7623TIP3    H244285   5.907   1.949  15.647 -0.1697  0.5357 -0.3723
 7624TIP3   OH244286   3.778   2.664   1.919  0.3505 -0.2377 -0.5818
 7624TIP3    H144287   3.821   2.709   1.846  1.6777  1.2544  1.0766
 7624TIP3    H244288   3.715   2.605   1.877  0.5851  1.0963 -2.9062
 7625TIP3   OH244289   5.765   0.529   4.966 -0.1504  0.4087 -0.0839
 7625TIP3    H144290   5.687   0.514   4.914  0.0021 -2.0435  0.3519
 7625TIP3    H244291   5.834   0.548   4.901 -0.0737 -2.0995 -0.7714
 7626TIP3   OH244292   0.143   1.545   6.078  0.1173  0.6616  0.2700
 7626TIP3    H144293   0.216   1.600   6.050 -0.5254  1.1094 -0.5269
 7626TIP3    H244294   0.138   1.559   6.173  0.3052  1.5408  0.1523
 7627TIP3   OH244295   2.713   6.213  14.842 -0.3046 -0.1942 -0.2295
 7627TIP3    H144296   2.694   6.169  14.925  1.6426  1.1837  0.9665
 7627TIP3    H244297   2.805   6.196  14.826 -0.1882  1.1888 -1.1148
 7628TIP3   OH244298   3.065   3.520  16.325  0.4650  0.2650  0.1592
 7628TIP3    H144299   2.980   3.528  16.282  0.5352  0.1655  0.0014
 7628TIP3    H244300   3.046   3.473  16.407  0.3868  0.1468  0.0757
 7629TIP3   OH244301   6.632   5.367   3.906  0.3743 -0.2488  0.4031
 7629TIP3    H144302   6.655   5.274   3.899 -1.1973 -0.6747  0.6985
 7629TIP3    H244303   6.624   5.383   4.000  0.2959  0.0923  0.3405
 7630TIP3   OH244304   3.431   3.210   0.037  0.3629  0.3516 -0.1186
 7630TIP3    H144305   3.337   3.193   0.037  0.6038 -1.0286 -1.2854
 7630TIP3    H244306   3.442   3.283   0.098 -1.5327  0.9265 -0.4357
 7631TIP3   OH244307   5.230   3.644   0.753 -0.6006 -0.4016 -0.0154
 7631TIP3    H144308   5.222   3.596   0.670 -2.0605 -0.4123  0.1118
 7631TIP3    H244309   5.162   3.711   0.748 -0.7110 -0.4171  1.1789
 7632TIP3   OH244310   2.586   3.251   2.240  0.1168 -0.2657 -0.7836
 7632TIP3    H144311   2.516   3.310   2.269  1.3906  0.9783 -0.1726
 7632TIP3    H244312   2.644   3.243   2.316  1.4973  0.0209 -1.7806
 7633TIP3   OH244313   5.059   3.244   4.619 -0.0330 -0.1410 -0.3003
 7633TIP3    H144314   4.994   3.178   4.641  0.0183 -0.4451 -1.0697
 7633TIP3    H244315   5.119   3.245   4.695 -0.8372  0.0315  0.3344
 7634TIP3   OH244316   0.826   1.945  10.534  0.1737 -0.1744 -0.0101
 7634TIP3    H144317   0.769   1.879  10.495 -1.5418  1.8304 -1.0082
 7634TIP3    H244318   0.766   2.012  10.568  1.8763  1.7021 -0.5561
 7635TIP3   OH244319   4.941   3.945  11.762  0.7553  0.0407  0.5237
 7635TIP3    H144320   4.880   3.885  11.806 -0.6661  0.2482 -1.1129
 7635TIP3    H244321   4.895   4.030  11.763  1.9626  0.7041  1.1877
 7636TIP3   OH244322   1.024   5.997  12.446 -0.2909 -0.3274 -0.7359
 7636TIP3    H144323   1.061   5.931  12.505 -1.2042 -2.0912 -2.0554
 7636TIP3    H244324   1.098   6.053  12.423  0.0698  0.3876  2.0578
 7637TIP3   OH244325   2.276   5.559   4.231  0.1886  0.3511 -0.7666
 7637TIP3    H144326   2.265   5.469   4.199  2.4253  0.1265 -0.9574
 7637TIP3    H244327   2.188   5.597   4.224 -0.9591 -2.0200  0.0100
 7638TIP3   OH244328   4.219   1.221   6.067 -0.0068  0.2511  0.1334
 7638TIP3    H144329   4.124   1.220   6.057  0.1221  0.7683 -1.2489
 7638TIP3    H244330   4.234   1.271   6.147 -1.0523 -3.3637  2.7124
 7639TIP3   OH244331   0.432   1.477  13.322 -0.0789  0.8493  0.3270
 7639TIP3    H144332   0.516   1.432  13.333  0.0230  1.2084  1.0208
 7639TIP3    H244333   0.397   1.441  13.241  0.7065  0.6326  0.0744
 7640TIP3   OH244334   3.506   0.493  13.379 -0.4392  0.3197 -0.3648
 7640TIP3    H144335   3.507   0.406  13.419  1.7191 -0.0796 -1.2228
 7640TIP3    H244336   3.462   0.548  13.443  1.5462 -0.6238  1.9117
 7641TIP3   OH244337   3.458   0.290   1.273 -0.5693 -1.0053  0.4545
 7641TIP3    H144338   3.366   0.309   1.253 -0.8158 -1.3685  1.2335
 7641TIP3    H244339   3.456   0.204   1.314 -0.0979 -0.2006  2.2311
 7642TIP3   OH244340   3.320   1.407   4.738  0.1899 -0.2961  0.1376
 7642TIP3    H144341   3.349   1.316   4.733  0.3671 -0.2526  0.3329
 7642TIP3    H244342   3.267   1.412   4.818 -1.8547 -0.7794 -1.1562
 7643TIP3   OH244343   4.884   5.142   4.457  0.0273 -0.3352 -0.0523
 7643TIP3    H144344   4.894   5.236   4.443  0.2979 -0.5194 -1.1452
 7643TIP3    H244345   4.796   5.133   4.493 -0.5128  0.2155 -1.1967
 7644TIP3   OH244346   5.508   5.638   3.215 -0.1140 -0.0625  0.4369
 7644TIP3    H144347   5.582   5.698   3.217  0.3708 -0.6502  0.5336
 7644TIP3    H244348   5.509   5.597   3.301  0.1300 -0.8712  0.0626
 7645TIP3   OH244349   5.382   3.943  14.518  0.4685  0.6546 -0.1585
 7645TIP3    H144350   5.371   3.964  14.425 -0.9439  2.3686  0.3402
 7645TIP3    H244351   5.448   4.005  14.549  0.0048  0.9730  0.2244
 7646TIP3   OH244352   2.530   1.429   3.234  0.5751 -0.0957  0.2302
 7646TIP3    H144353   2.595   1.491   3.266 -0.7725  0.8370  1.1895
 7646TIP3    H244354   2.533   1.439   3.139  2.2365 -0.4811  0.2309
 7647TIP3   OH244355   6.452   3.940  13.629  0.1228  0.0607 -0.0371
 7647TIP3    H144356   6.542   3.908  13.623  0.0457  0.0860 -1.7737
 7647TIP3    H244357   6.433   3.973  13.541 -1.8044 -0.5514  0.1196
 7648TIP3   OH244358   1.086   0.734  11.240 -0.3962  0.5811 -0.6430
 7648TIP3    H144359   1.150   0.796  11.274 -0.0556  0.7001 -1.4780
 7648TIP3    H244360   1.002   0.778  11.249 -0.6158 -0.3806  2.3561
 7649TIP3   OH244361   4.110   4.718   0.002 -0.3261  0.6141  0.3228
 7649TIP3    H144362   4.021   4.729  -0.031 -0.5429  0.3739  0.8096
 7649TIP3    H244363   4.155   4.666  -0.064 -0.8477 -0.1457  0.5656
 7650TIP3   OH244364   4.027   2.796   5.378 -0.0292 -0.4850  0.1369
 7650TIP3    H144365   3.991   2.799   5.289 -0.3484  1.6212  0.3141
 7650TIP3    H244366   4.121   2.808   5.366 -0.0784 -0.1476  0.0746
 7651TIP3   OH244367   3.220   2.054   3.502  0.4727 -0.1189  0.2420
 7651TIP3    H144368   3.197   2.086   3.415  2.0626 -0.5034 -0.3398
 7651TIP3    H244369   3.245   2.132   3.552 -1.2034  0.1947  0.6093
 7652TIP3   OH244370   5.501   4.705   1.708 -0.5761  0.1558  0.0255
 7652TIP3    H144371   5.475   4.718   1.799 -0.0296  1.0745  0.0560
 7652TIP3    H244372   5.593   4.729   1.705 -0.7255  0.6402 -0.8773
 7653TIP3   OH244373   2.576   4.447   0.483  0.1707  0.9425 -0.0551
 7653TIP3    H144374   2.592   4.528   0.532 -0.0635 -0.3318  2.1608
 7653TIP3    H244375   2.658   4.433   0.434  0.9546  1.4413  1.0944
 7654TIP3   OH244376   5.694   0.257  15.792 -0.4674  0.3519  0.5819
 7654TIP3    H144377   5.745   0.182  15.823 -0.1993  0.7815  1.1873
 7654TIP3    H244378   5.603   0.228  15.798 -0.3526 -0.0177  0.5634
 7655TIP3   OH244379   6.760   0.011  17.082 -0.2444  0.3722  0.0101
 7655TIP3    H144380   6.783  -0.063  17.025 -0.0901  0.5138 -0.1114
 7655TIP3    H244381   6.693  -0.023  17.140 -1.1925  0.5309 -0.9707
 7656TIP3   OH244382   2.998   0.473  11.979 -0.5980 -0.2246  0.2138
 7656TIP3    H144383   2.959   0.461  12.066  2.3413  0.7032  1.7481
 7656TIP3    H244384   2.993   0.387  11.938 -1.2490 -0.8817  1.6312
 7657TIP3   OH244385   2.519   4.785  16.618  0.4337  0.5450 -0.3397
 7657TIP3    H144386   2.542   4.737  16.698  0.3832 -0.6401 -1.0255
 7657TIP3    H244387   2.433   4.750  16.593  1.1883 -0.3161 -1.8333
 7658TIP3   OH244388   2.476   5.981   3.947  0.1551  0.0523 -0.4669
 7658TIP3    H144389   2.482   5.901   3.998 -1.0835  0.4528  0.3263
 7658TIP3    H244390   2.511   6.049   4.005  0.6945  0.1783 -0.9328
 7659TIP3   OH244391   4.560   3.054  14.188 -0.1572  0.1972 -0.3721
 7659TIP3    H144392   4.520   2.975  14.151 -0.4096  1.1857 -2.2837
 7659TIP3    H244393   4.654   3.038  14.181 -0.1974  0.5242 -1.8166
 7660TIP3   OH244394   3.250   4.401   1.967  0.2200 -0.0318  0.3935
 7660TIP3    H144395   3.305   4.445   1.902 -0.3327  0.4130  0.2176
 7660TIP3    H244396   3.310   4.371   2.034  0.7049  0.2099  0.0666
 7661TIP3   OH244397   4.760   4.638  11.530 -0.2096 -0.3036 -0.4153
 7661TIP3    H144398   4.816   4.708  11.497 -0.8878  0.8002  0.7027
 7661TIP3    H244399   4.812   4.595  11.598 -0.6052  0.5801  0.4689
 7662TIP3   OH244400   2.816   5.173  11.849  0.2070 -0.4942 -0.6287
 7662TIP3    H144401   2.862   5.157  11.932 -0.2140 -1.7849 -0.6297
 7662TIP3    H244402   2.835   5.095  11.796 -0.7003 -0.3312 -1.2038
 7663TIP3   OH244403   2.228   3.604  15.530 -0.0506 -0.7799  0.5720
 7663TIP3    H144404   2.219   3.539  15.600  0.6904  0.1374  1.5321
 7663TIP3    H244405   2.321   3.625  15.528 -0.0113 -1.0204 -0.9071
 7664TIP3   OH244406   0.729   5.553   3.886 -0.0823  0.2654  0.0086
 7664TIP3    H144407   0.776   5.602   3.953  2.2609 -0.2387 -1.2415
 7664TIP3    H244408   0.793   5.491   3.852 -1.8101 -0.7986 -1.3622
 7665TIP3   OH244409   3.639   1.010   1.975  0.3414  0.1900 -0.1436
 7665TIP3    H144410   3.598   1.047   2.053  0.3191 -0.0569 -0.0383
 7665TIP3    H244411   3.733   1.023   1.989  0.3059  0.7199 -0.3679
 7666TIP3   OH244412   2.526   2.945  13.053  0.0135  0.4101 -0.1639
 7666TIP3    H144413   2.611   2.905  13.075  0.8641  2.2783 -0.0262
 7666TIP3    H244414   2.524   3.026  13.103 -1.0971  1.2652 -1.5812
 7667TIP3   OH244415   1.463   5.064  16.642  0.1918 -0.0039  0.0976
 7667TIP3    H144416   1.424   5.145  16.675 -2.6423 -0.8773 -0.9478
 7667TIP3    H244417   1.555   5.086  16.627 -0.4456  2.9218  0.1963
 7668TIP3   OH244418   6.688   5.806  12.827 -0.3694  0.1229 -0.2574
 7668TIP3    H144419   6.697   5.783  12.920 -0.0935 -0.5863 -0.4552
 7668TIP3    H244420   6.674   5.722  12.783 -1.0601  0.5100 -0.7946
 7669TIP3   OH244421   2.462   2.947   0.137  0.4834  0.0382  0.5107
 7669TIP3    H144422   2.509   2.897   0.070 -1.4565  0.4347 -1.2182
 7669TIP3    H244423   2.384   2.895   0.155  1.3458 -0.4351  3.0659
 7670TIP3   OH244424   6.203   0.605  13.273  0.6019  0.5067 -0.3382
 7670TIP3    H144425   6.259   0.592  13.196 -1.5149 -2.8916 -1.4514
 7670TIP3    H244426   6.237   0.544  13.338 -0.1252  0.3941 -0.0562
 7671TIP3   OH244427   6.464   6.031  15.932  0.4611  0.2672  0.2914
 7671TIP3    H144428   6.463   5.999  16.022  4.5388  1.4304  0.8506
 7671TIP3    H244429   6.477   6.126  15.940 -1.2288  0.6847 -1.4931
 7672TIP3   OH244430   4.927   0.697  15.869 -0.2146 -0.1206 -0.0937
 7672TIP3    H144431   4.976   0.661  15.796  2.4798 -1.2454  2.1734
 7672TIP3    H244432   4.961   0.785  15.881 -0.5242 -0.0004 -0.0970
 7673TIP3   OH244433   0.673   5.022  15.931  0.2176 -0.8616  0.5843
 7673TIP3    H144434   0.682   5.030  15.836  1.8387  0.0536  0.8148
 7673TIP3    H244435   0.578   5.012  15.944  0.1127 -2.8316 -1.2466
 7674TIP3   OH244436   1.482   4.329  13.466 -0.1167  0.1596 -0.0627
 7674TIP3    H144437   1.446   4.409  13.504 -0.8410 -1.1435  2.0525
 7674TIP3    H244438   1.408   4.291  13.418 -0.5445 -0.6517  1.2375
 7675TIP3   OH244439   0.798   3.706  12.083 -0.7673  0.2539 -0.6687
 7675TIP3    H144440   0.840   3.622  12.067 -1.1211 -0.1714  0.5482
 7675TIP3    H244441   0.866   3.771  12.064  1.2505 -0.4816  3.4226
 7676TIP3   OH244442   5.881   1.463  14.015 -0.1378  0.1300 -0.3891
 7676TIP3    H144443   5.840   1.506  13.940 -1.1952  2.0063  1.2239
 7676TIP3    H244444   5.827   1.385  14.031 -1.1784  0.8754 -0.2496
 7677TIP3   OH244445   4.260   0.520   1.462  0.2579  0.3167 -0.8010
 7677TIP3    H144446   4.234   0.582   1.394  0.3605 -0.1469 -1.2666
 7677TIP3    H244447   4.356   0.516   1.455  0.3312  0.8187 -0.1459
 7678TIP3   OH244448   0.324   0.528  14.997  0.0116  0.5230 -0.5581
 7678TIP3    H144449   0.286   0.533  15.084 -3.0793 -2.2328 -1.6635
 7678TIP3    H244450   0.404   0.478  15.008 -0.1120  0.6061  0.7510
 7679TIP3   OH244451   6.771   5.554  14.871  0.3628  0.4059 -0.1978
 7679TIP3    H144452   6.790   5.462  14.857  1.1339  0.8254 -2.0510
 7679TIP3    H244453   6.835   5.601  14.817 -1.1894  1.9860 -0.7160
 7680TIP3   OH244454   0.397   4.372  16.019 -0.6426 -0.0899 -0.3856
 7680TIP3    H144455   0.451   4.429  15.964  0.7588 -0.7488  0.2984
 7680TIP3    H244456   0.355   4.431  16.082  1.7201  0.0694  1.0715
 7681TIP3   OH244457   3.123   3.613   3.188  0.2576  0.5339 -0.2355
 7681TIP3    H144458   3.083   3.697   3.168 -1.4360  0.0369  1.0467
 7681TIP3    H244459   3.191   3.633   3.252  0.7216  1.0904 -0.8956
 7682TIP3   OH244460   1.239   0.688  11.780  0.1404 -0.1774  0.4310
 7682TIP3    H144461   1.152   0.699  11.741 -0.7426 -2.2283  1.7316
 7682TIP3    H244462   1.222   0.677  11.874  1.9584  1.1983  0.9500
 7683TIP3   OH244463   4.659   6.261   0.912  0.6547 -0.6926  0.1011
 7683TIP3    H144464   4.618   6.300   0.834 -0.0129  0.0239  0.8009
 7683TIP3    H244465   4.601   6.189   0.936  1.1031 -1.2056 -0.3155
 7684TIP3   OH244466   3.933   4.985   3.050 -0.2701  0.0414  0.6068
 7684TIP3    H144467   3.947   5.080   3.057  1.7327 -0.1226 -0.7005
 7684TIP3    H244468   3.895   4.973   2.963 -1.2675 -0.2929  1.0865
 7685TIP3   OH244469   0.034   2.536  15.495 -0.3093  0.4116  0.3077
 7685TIP3    H144470   0.063   2.596  15.427 -1.4791  0.7433  0.0846
 7685TIP3    H244471   0.106   2.474  15.505  1.2681  2.3170  1.1235
 7686TIP3   OH244472   2.007   2.611   1.954 -1.0240 -0.0433 -0.2847
 7686TIP3    H144473   1.966   2.557   2.021 -0.0199 -0.4849 -0.0235
 7686TIP3    H244474   2.036   2.549   1.887 -0.4950  0.2342 -0.3144
 7687TIP3   OH244475   5.923   1.673   0.173  0.1238  0.2733  0.1453
 7687TIP3    H144476   5.942   1.579   0.167  0.0110  0.1235  1.8084
 7687TIP3    H244477   5.968   1.712   0.098 -1.2550 -1.3169 -1.5293
 7688TIP3   OH244478   2.282   4.078  16.894  0.1792 -0.3046  0.1945
 7688TIP3    H144479   2.291   4.121  16.979 -0.9863  1.5181 -0.5931
 7688TIP3    H244480   2.197   4.035  16.898 -0.1748  0.3512 -0.3027
 7689TIP3   OH244481   4.391   6.575   5.449 -0.2978  0.6048 -0.0007
 7689TIP3    H144482   4.340   6.588   5.528 -0.7727 -0.8067 -0.0546
 7689TIP3    H244483   4.326   6.562   5.380  0.0988 -1.3328 -0.0435
 7690TIP3   OH244484   0.680   5.638   2.439 -0.3890  0.2535  0.1714
 7690TIP3    H144485   0.642   5.675   2.518 -0.8892  1.2954 -0.5447
 7690TIP3    H244486   0.775   5.645   2.451 -0.4606  0.2472  0.7448
 7691TIP3   OH244487   5.298   4.308   0.090 -0.0236 -0.7935  0.1858
 7691TIP3    H144488   5.318   4.401   0.082  0.2114 -0.8812 -0.3052
 7691TIP3    H244489   5.342   4.280   0.170 -0.8321 -0.2879  0.8183
 7692TIP3   OH244490   0.124   1.767   0.003 -0.1278  0.4656  0.9291
 7692TIP3    H144491   0.219   1.774  -0.001 -0.0081 -1.2787  0.3729
 7692TIP3    H244492   0.102   1.701  -0.063 -1.8230  1.7320  0.2029
 7693TIP3   OH244493   0.402   3.504  16.003 -0.3411 -0.5705 -0.1706
 7693TIP3    H144494   0.432   3.539  15.919  0.9795 -0.2272  0.4400
 7693TIP3    H244495   0.482   3.482  16.050 -1.1013 -2.2999  0.3567
 7694TIP3   OH244496   4.986   3.827   3.852 -0.2251 -0.2803 -0.2387
 7694TIP3    H144497   4.931   3.749   3.860  0.0063 -0.5361 -1.0570
 7694TIP3    H244498   5.028   3.836   3.937 -1.4106 -0.1754  0.3527
 7695TIP3   OH244499   5.582   3.886   5.980 -0.0310  0.1225  0.1033
 7695TIP3    H144500   5.517   3.907   6.047 -1.5792  1.1962 -1.6806
 7695TIP3    H244501   5.606   3.795   5.998  0.0229  0.5551  2.4424
 7696TIP3   OH244502   1.149   3.867   2.048 -0.4007  0.0333 -0.1094
 7696TIP3    H144503   1.201   3.863   2.129 -0.2697 -1.8121 -0.2622
 7696TIP3    H244504   1.069   3.913   2.074  1.1777  2.7125  0.1744
 7697TIP3   OH244505   4.516   5.040   3.628  0.2283 -0.8734 -0.0160
 7697TIP3    H144506   4.423   5.028   3.606  0.3528  0.5618 -1.4534
 7697TIP3    H244507   4.517   5.111   3.691  0.3579 -0.8614 -0.0307
 7698TIP3   OH244508   6.387   3.754   2.931  0.5181 -0.1294  0.4912
 7698TIP3    H144509   6.336   3.697   2.873  1.5853 -0.4327 -0.1540
 7698TIP3    H244510   6.461   3.700   2.959 -0.8030 -0.5092  3.3946
 7699TIP3   OH244511   5.086   3.659   2.387 -0.5286  0.1069  0.2559
 7699TIP3    H144512   5.129   3.576   2.366  0.0710  0.0348  1.6656
 7699TIP3    H244513   5.158   3.719   2.405 -0.9805  0.5265  0.6809
 7700TIP3   OH244514   1.114   4.584  11.806 -0.0246  0.4684 -0.0589
 7700TIP3    H144515   1.171   4.556  11.877  0.4887 -1.5373 -1.2432
 7700TIP3    H244516   1.127   4.679  11.801 -0.0789  0.6512  2.4954
 7701TIP3   OH244517   5.254   2.846   5.313  0.4772 -0.1848  0.5417
 7701TIP3    H144518   5.260   2.786   5.387 -1.8000  0.4765  1.3041
 7701TIP3    H244519   5.181   2.813   5.260 -0.5124  1.5910  0.7235
 7702TIP3   OH244520   5.488   1.128  16.413 -0.1678  0.0713  0.1975
 7702TIP3    H144521   5.536   1.134  16.495  1.1875  0.2188 -0.5942
 7702TIP3    H244522   5.483   1.035  16.394  0.5288  0.0936 -0.1238
 7703TIP3   OH244523   1.135   6.562   0.629  0.0931 -0.4980 -0.2304
 7703TIP3    H144524   1.074   6.583   0.558  0.6335  1.2592 -0.1862
 7703TIP3    H244525   1.080   6.560   0.708  0.2408  2.3713  0.0070
 7704TIP3   OH244526   6.251   1.187   2.254 -0.4556 -0.3410  0.0670
 7704TIP3    H144527   6.167   1.211   2.291 -0.6610 -0.3714 -0.3695
 7704TIP3    H244528   6.229   1.135   2.176 -0.0631  1.3775 -1.2196
 7705TIP3   OH244529   2.096   0.264   4.816  0.1220  0.1110  0.1429
 7705TIP3    H144530   2.085   0.231   4.905 -0.6251 -0.7497 -0.2646
 7705TIP3    H244531   2.007   0.285   4.787  0.4218  0.9710 -0.1891
 7706TIP3   OH244532   0.045   0.940   0.308  0.1083 -0.0627  0.1581
 7706TIP3    H144533   0.016   0.852   0.331 -0.3941  0.2930  0.9088
 7706TIP3    H244534   0.055   0.937   0.213 -0.3290 -0.8065  0.1255
 7707TIP3   OH244535   2.564   3.218  15.881  0.0670  0.2147 -0.0796
 7707TIP3    H144536   2.507   3.186  15.811  0.5106 -1.3897  0.2721
 7707TIP3    H244537   2.558   3.313  15.876 -0.4421  0.0940 -1.8518
 7708TIP3   OH244538   1.182   3.248   3.795  0.2562  0.4974 -0.1603
 7708TIP3    H144539   1.094   3.257   3.758  0.9767 -1.6073 -2.4808
 7708TIP3    H244540   1.168   3.200   3.877 -0.8925  1.3732  0.1705
 7709TIP3   OH244541   3.114   2.226  15.697 -0.7091  0.2723  0.0664
 7709TIP3    H144542   3.085   2.160  15.761 -0.6928  0.6282  0.4418
 7709TIP3    H244543   3.041   2.233  15.636 -0.9202  0.2831  0.3188
 7710TIP3   OH244544   3.701   4.956  15.206  0.6215  0.0611  0.3238
 7710TIP3    H144545   3.640   4.886  15.182  2.1415 -1.6657  1.3067
 7710TIP3    H244546   3.763   4.959  15.132  0.6030  0.3094  0.3195
 7711TIP3   OH244547   4.297   3.138  14.200 -0.2237  0.1987 -0.0112
 7711TIP3    H144548   4.274   3.217  14.249 -0.8006 -0.3362  0.5860
 7711TIP3    H244549   4.391   3.128  14.215  0.4391  2.3132 -2.3623
 7712TIP3   OH244550   0.008   5.277   1.771  0.0883 -0.9319 -0.2661
 7712TIP3    H144551   0.088   5.309   1.728  0.4415 -2.1691 -0.5399
 7712TIP3    H244552  -0.063   5.313   1.718  0.4401  0.7309  0.3694
 7713TIP3   OH244553   5.320   3.521   5.874  0.5340  0.1270  0.0972
 7713TIP3    H144554   5.290   3.461   5.942 -1.0460  0.9500  0.1592
 7713TIP3    H244555   5.255   3.512   5.804  1.4082  0.2611 -0.7453
 7714TIP3   OH244556   1.411   0.144   3.705 -0.6507 -0.2048 -0.7578
 7714TIP3    H144557   1.356   0.124   3.782 -0.1092  1.7478  0.1704
 7714TIP3    H244558   1.388   0.077   3.641 -0.0224 -2.8212  1.6475
 7715TIP3   OH244559   6.042   5.679   0.544 -0.4933 -0.3165  0.6703
 7715TIP3    H144560   6.041   5.663   0.638 -0.7315  0.6872  0.8483
 7715TIP3    H244561   6.035   5.592   0.504  2.4782 -0.9870  1.5389
 7716TIP3   OH244562   2.013   3.486  16.618  0.1312 -0.1804 -0.2195
 7716TIP3    H144563   1.981   3.543  16.548  2.2722  2.4742  0.8635
 7716TIP3    H244564   2.106   3.472  16.597  0.3408 -0.8444  1.1127
 7717TIP3   OH244565   6.207   2.188   5.124 -0.2815  0.0776 -0.7233
 7717TIP3    H144566   6.151   2.138   5.064 -1.8935  0.7310  0.2226
 7717TIP3    H244567   6.211   2.134   5.203 -1.9168  1.3486  0.2539
 7718TIP3   OH244568   3.911   3.449  16.844 -0.0616 -0.4821  0.2538
 7718TIP3    H144569   3.942   3.433  16.934  0.0152 -0.6068  0.2076
 7718TIP3    H244570   3.929   3.542  16.829 -0.8776 -0.2521  0.6819
 7719TIP3   OH244571   5.628   6.713   2.923 -0.0872  0.1835  0.3565
 7719TIP3    H144572   5.609   6.776   2.993  1.0008 -1.4091  2.1501
 7719TIP3    H244573   5.552   6.717   2.866  0.2466  3.6068  0.0370
 7720TIP3   OH244574   5.288   2.893  12.081 -0.3352 -0.4262  0.4704
 7720TIP3    H144575   5.322   2.805  12.061  2.1092  0.7512 -0.7652
 7720TIP3    H244576   5.200   2.894  12.044 -0.0512 -2.0555 -0.3020
 7721TIP3   OH244577   4.508   3.855   5.328 -0.0506 -0.1941 -0.1323
 7721TIP3    H144578   4.592   3.884   5.295  0.2466  1.5638  2.0119
 7721TIP3    H244579   4.525   3.829   5.419 -1.1379 -3.2815 -0.7421
 7722TIP3   OH244580   3.998   4.552  13.577  0.3683 -0.1423  0.2263
 7722TIP3    H144581   3.937   4.609  13.623 -0.1730  0.0269 -0.6907
 7722TIP3    H244582   3.965   4.548  13.487 -0.4210 -3.0195  0.5754
 7723TIP3   OH244583   1.398   6.558  13.471  0.0041  0.6415  0.0733
 7723TIP3    H144584   1.413   6.523  13.559 -1.6956  1.0878  0.5743
 7723TIP3    H244585   1.303   6.570  13.467  0.0712  0.6291 -1.8304
 7724TIP3   OH244586   6.518   5.766   3.684 -0.3579  0.5260 -0.1693
 7724TIP3    H144587   6.612   5.783   3.680 -0.0895 -1.0121 -1.1046
 7724TIP3    H244588   6.485   5.789   3.597 -0.8637  1.1738  0.1918
 7725TIP3   OH244589   6.655   5.123  16.218 -0.3644 -0.3259 -0.0986
 7725TIP3    H144590   6.597   5.135  16.293  0.2973  2.1941  0.0443
 7725TIP3    H244591   6.739   5.098  16.255 -1.1299 -3.4885 -0.2822
 7726TIP3   OH244592   2.835   1.847  15.231  0.4597  0.7227 -0.7496
 7726TIP3    H144593   2.836   1.914  15.298 -0.1656 -0.0175  0.0075
 7726TIP3    H244594   2.818   1.766  15.278 -0.5733  0.2788 -1.8678
 7727TIP3   OH244595   1.979   0.410  14.517 -0.5097  0.0361  0.8536
 7727TIP3    H144596   2.021   0.474  14.459  1.5699 -1.3066  0.8232
 7727TIP3    H244597   1.934   0.350  14.457  0.6384 -0.6584  0.6740
 7728TIP3   OH244598   4.964   2.104  11.936  0.4498 -0.3645  0.3515
 7728TIP3    H144599   5.053   2.093  11.971 -0.1605  0.5582  2.2771
 7728TIP3    H244600   4.972   2.175  11.873  1.2947 -1.0288 -0.2948
 7729TIP3   OH244601   2.347   0.892  14.263 -0.2456 -0.6329  0.0855
 7729TIP3    H144602   2.437   0.921  14.271 -0.3641 -0.3844  0.5273
 7729TIP3    H244603   2.332   0.836  14.339 -1.2436  1.3927  1.4227
 7730TIP3   OH244604   0.100   0.125   5.729  0.5401  0.3388 -0.0431
 7730TIP3    H144605   0.093   0.209   5.685  0.2388  0.6567  0.5992
 7730TIP3    H244606   0.191   0.122   5.761  1.3505 -0.7622 -2.3916
 7731TIP3   OH244607   5.074   3.813  14.062 -0.1196 -0.0513 -0.8324
 7731TIP3    H144608   5.100   3.731  14.103  1.3679  0.2282 -1.1761
 7731TIP3    H244609   5.148   3.836  14.006 -0.9608  0.9948 -1.5235
 7732TIP3   OH244610   4.064   6.096  16.170  0.4429 -0.2079  0.7665
 7732TIP3    H144611   4.086   6.188  16.157 -0.3336 -0.0864  0.2647
 7732TIP3    H244612   4.135   6.048  16.127 -0.8241  0.1883 -1.8889
 7733TIP3   OH244613   5.753   0.958   6.539  0.4241  0.6575  0.3915
 7733TIP3    H144614   5.705   0.886   6.499  0.3958  1.2458 -0.6615
 7733TIP3    H244615   5.844   0.928   6.541  0.4778  0.7483 -0.4313
 7734TIP3   OH244616   0.026   0.335   3.478  0.4572  0.4149 -0.1480
 7734TIP3    H144617  -0.050   0.285   3.508  1.3470 -0.9066 -0.1190
 7734TIP3    H244618   0.004   0.358   3.387  0.3336 -0.5785 -0.3768
 7735TIP3   OH244619   4.464   1.333  13.868 -0.0461 -0.2572 -0.4223
 7735TIP3    H144620   4.420   1.288  13.796 -0.0049 -1.7551  0.4694
 7735TIP3    H244621   4.473   1.423  13.838  0.1381 -0.9040 -2.3661
 7736TIP3   OH244622   2.376   0.151   5.783 -0.0520  0.0671  0.1717
 7736TIP3    H144623   2.292   0.193   5.801 -0.7354 -0.7001 -1.1568
 7736TIP3    H244624   2.400   0.109   5.865 -0.9312  0.3454  0.5800
 7737TIP3   OH244625   4.558   3.317  11.409  0.3089  0.4367  0.6047
 7737TIP3    H144626   4.561   3.348  11.319  0.3367 -1.9019 -0.2381
 7737TIP3    H244627   4.646   3.282  11.426 -0.4101 -1.3880  0.6779
 7738TIP3   OH244628   4.348   2.057   5.164 -0.4360  0.0138 -0.1119
 7738TIP3    H144629   4.371   2.037   5.255 -1.5539  2.3458  0.7183
 7738TIP3    H244630   4.294   1.983   5.136 -1.6593  0.1656  1.7635
 7739TIP3   OH244631   5.931   0.866   0.813 -0.1810  0.1100  0.3118
 7739TIP3    H144632   5.978   0.861   0.896 -0.0639  0.4717  0.2701
 7739TIP3    H244633   5.887   0.782   0.805  0.8181 -0.4102  0.1364
 7740TIP3   OH244634   2.118   5.865   5.119  0.1684  0.3680 -0.0985
 7740TIP3    H144635   2.193   5.811   5.095 -0.5883  0.0329 -1.8331
 7740TIP3    H244636   2.044   5.804   5.122 -0.4646  1.0786 -0.8333
 7741TIP3   OH244637   6.194   3.223   4.126  0.1331 -0.0724  0.3900
 7741TIP3    H144638   6.199   3.148   4.185  0.4317  0.0045  0.4653
 7741TIP3    H244639   6.285   3.238   4.098  0.1532  0.6067  0.8077
 7742TIP3   OH244640   5.205   3.173  11.771 -0.2605 -0.5143  0.5909
 7742TIP3    H144641   5.137   3.174  11.839  0.9628 -0.9735  1.8435
 7742TIP3    H244642   5.272   3.233  11.803  0.6221 -1.2291  0.0924
 7743TIP3   OH244643   6.173   1.171  13.136 -0.1772  0.4647 -0.2805
 7743TIP3    H144644   6.178   1.090  13.186  0.3466  0.7966  0.2204
 7743TIP3    H244645   6.104   1.222  13.179 -1.1106 -0.0709 -1.1321
 7744TIP3   OH244646   2.067   2.654  13.948  0.3202 -0.2121  0.1230
 7744TIP3    H144647   2.000   2.596  13.911  2.5251 -1.2589 -2.4430
 7744TIP3    H244648   2.065   2.732  13.893  0.7214  0.0531  0.4742
 7745TIP3   OH244649   3.020   4.874  14.682  0.2457 -0.2281 -0.5274
 7745TIP3    H144650   3.056   4.927  14.611 -0.8206 -2.2886 -2.6918
 7745TIP3    H244651   2.935   4.913  14.701 -0.4484 -0.9977 -1.9706
 7746TIP3   OH244652   4.337   0.535  11.196  0.5749 -0.1496  0.2707
 7746TIP3    H144653   4.367   0.495  11.114 -1.4043  1.5669 -1.3685
 7746TIP3    H244654   4.263   0.481  11.223  1.4867 -0.9582  1.1497
 7747TIP3   OH244655   3.709   4.097   4.317 -0.7703  0.2557  0.1703
 7747TIP3    H144656   3.622   4.087   4.277 -0.6791  0.4191 -0.0684
 7747TIP3    H244657   3.769   4.096   4.243 -0.5316 -0.3175  0.3700
 7748TIP3   OH244658   5.531   4.174  16.555 -0.3008  0.5482 -0.2320
 7748TIP3    H144659   5.457   4.226  16.585  0.6283  1.1825  1.0267
 7748TIP3    H244660   5.560   4.217  16.475 -0.7552  0.8160 -0.2515
 7749TIP3   OH244661   5.613   6.713   4.825 -0.2493 -0.6566 -0.5428
 7749TIP3    H144662   5.583   6.622   4.818  1.2665 -0.9985 -3.3126
 7749TIP3    H244663   5.703   6.705   4.855  0.5353 -0.2068 -2.6915
 7750TIP3   OH244664   0.769   4.772  15.277 -0.3505  0.5702 -0.0547
 7750TIP3    H144665   0.688   4.740  15.316  0.4153 -0.4517  0.7267
 7750TIP3    H244666   0.803   4.836  15.339 -1.1366  1.8340 -0.9249
 7751TIP3   OH244667   6.004   2.232   1.656 -0.1497 -0.3605  0.2465
 7751TIP3    H144668   6.075   2.270   1.606 -0.3116  0.3674  0.5732
 7751TIP3    H244669   5.996   2.286   1.734 -0.8657 -0.6082  0.3576
 7752TIP3   OH244670   4.674   5.217   2.689  0.4834  0.4005 -0.4027
 7752TIP3    H144671   4.583   5.211   2.720 -0.1387  0.2771 -2.2237
 7752TIP3    H244672   4.726   5.212   2.769 -1.0501 -1.1879  0.5401
 7753TIP3   OH244673   4.998   2.836   5.714 -0.2469 -0.2947 -0.2527
 7753TIP3    H144674   5.051   2.912   5.691 -0.4513  0.0750  0.4751
 7753TIP3    H244675   4.991   2.840   5.809 -2.3908  0.2206 -0.4131
 7754TIP3   OH244676   5.777   1.991  14.216 -0.1422 -0.2135 -0.3723
 7754TIP3    H144677   5.741   1.933  14.284 -0.9002 -0.8421 -1.2898
 7754TIP3    H244678   5.863   1.955  14.197  0.8358  1.0459  1.5411
 7755TIP3   OH244679   4.115   2.250  14.401  0.1602  0.0457  0.3737
 7755TIP3    H144680   4.063   2.229  14.324 -2.4827 -1.5415  2.4831
 7755TIP3    H244681   4.101   2.343  14.416 -0.7246 -0.0076 -0.0952
 7756TIP3   OH244682   0.020   0.459  12.598 -0.0554  0.1781 -0.3654
 7756TIP3    H144683  -0.020   0.544  12.580 -0.6366 -0.2651 -1.2021
 7756TIP3    H244684   0.097   0.479  12.651  0.6671  1.3742 -1.8241
 7757TIP3   OH244685   3.415   3.511  14.383 -0.4733  0.3452  0.7059
 7757TIP3    H144686   3.412   3.553  14.297  1.3291 -0.8377  0.0227
 7757TIP3    H244687   3.357   3.436  14.375  0.8678 -0.6499 -0.0193
 7758TIP3   OH244688   5.294   1.310   2.418  0.4304  0.5352  0.8734
 7758TIP3    H144689   5.286   1.391   2.468 -3.0146  0.9427 -0.2385
 7758TIP3    H244690   5.275   1.334   2.328 -0.8340 -1.5112  0.5492
 7759TIP3   OH244691   3.713   1.508   0.079 -0.1825  0.1824 -0.0417
 7759TIP3    H144692   3.656   1.558   0.136 -1.6776 -1.5082 -0.0052
 7759TIP3    H244693   3.655   1.446   0.035  1.0571  0.9237 -2.8310
 7760TIP3   OH244694   3.743   0.735  11.568  0.1229  0.0164  0.5057
 7760TIP3    H144695   3.835   0.755  11.584  0.1274  0.0976  0.3704
 7760TIP3    H244696   3.710   0.809  11.517 -0.3278  0.5993  1.6159
 7761TIP3   OH244697   6.677   2.591   1.495 -0.4627 -0.1389 -0.0553
 7761TIP3    H144698   6.672   2.635   1.579  0.5509 -0.7106  0.3157
 7761TIP3    H244699   6.727   2.511   1.512  0.9465  0.4125 -1.4513
 7762TIP3   OH244700   5.716   1.702  15.942  0.4671  0.5160  0.2401
 7762TIP3    H144701   5.682   1.612  15.942  2.0922 -0.1033 -1.0184
 7762TIP3    H244702   5.750   1.714  16.031 -1.6702  0.6397  1.0718
 7763TIP3   OH244703   5.665   4.031   0.991 -0.5701  0.8665  0.1705
 7763TIP3    H144704   5.722   3.955   0.995 -1.5433  0.1325  0.1921
 7763TIP3    H244705   5.718   4.103   1.027  1.4216  0.8848 -2.6414
 7764TIP3   OH244706   3.592   6.611  12.480  0.6410  0.3311 -0.0389
 7764TIP3    H144707   3.632   6.524  12.475 -1.7043 -0.8221  0.4490
 7764TIP3    H244708   3.519   6.600  12.541 -2.3737  1.5285 -3.2409
 7765TIP3   OH244709   6.305   6.615  12.103 -0.2346  0.0480  0.1427
 7765TIP3    H144710   6.399   6.623  12.120 -0.7104 -0.8966  3.6386
 7765TIP3    H244711   6.299   6.550  12.032  1.6722 -1.7223  1.5361
 7766TIP3   OH244712   5.625   5.243   2.638  0.2914 -0.2720 -0.1793
 7766TIP3    H144713   5.567   5.229   2.563 -1.2997  0.6628  0.8651
 7766TIP3    H244714   5.596   5.325   2.676  2.5521  0.4138  0.1655
 7767TIP3   OH244715   3.443   3.662   6.031 -0.3481 -0.0506  0.1664
 7767TIP3    H144716   3.388   3.666   6.109 -0.6397 -0.6944  0.0044
 7767TIP3    H244717   3.527   3.630   6.062 -0.1214  0.7517  0.3863
 7768TIP3   OH244718   4.340   5.853   5.474 -0.0484 -0.2346 -0.1281
 7768TIP3    H144719   4.254   5.892   5.491 -0.4271 -1.3755  0.6771
 7768TIP3    H244720   4.320   5.772   5.427  0.5926 -0.4782  0.0164
 7769TIP3   OH244721   2.115   2.089  12.223  0.2487 -0.2195  0.2314
 7769TIP3    H144722   2.077   2.174  12.242  2.0888  1.6687 -3.8812
 7769TIP3    H244723   2.049   2.026  12.253 -2.4982  2.6833  0.5835
 7770TIP3   OH244724   1.932   1.894   2.331 -0.8839  0.4832  0.5507
 7770TIP3    H144725   1.930   1.867   2.239 -0.9252  0.1583  0.6464
 7770TIP3    H244726   1.957   1.815   2.379 -0.2826  0.8013  0.7688
 7771TIP3   OH244727   5.796   2.193  13.656  0.1749 -0.0299 -0.4957
 7771TIP3    H144728   5.726   2.130  13.672 -0.3193  0.5498 -0.3354
 7771TIP3    H244729   5.855   2.150  13.594 -0.8660 -0.1315 -1.4278
 7772TIP3   OH244730   1.213   5.764   1.863  0.4485  0.1766  0.1505
 7772TIP3    H144731   1.208   5.797   1.953  1.5284 -0.6443  0.5232
 7772TIP3    H244732   1.185   5.673   1.869 -1.1230  0.5887 -0.6383
 7773TIP3   OH244733   0.723   1.273   1.075  0.7649  0.4718 -0.5777
 7773TIP3    H144734   0.714   1.364   1.101 -0.9072  0.2841 -0.4200
 7773TIP3    H244735   0.810   1.247   1.105  0.6005  1.5349  0.8311
 7774TIP3   OH244736   2.713   3.744  16.829 -0.6626  0.0793  1.0290
 7774TIP3    H144737   2.673   3.805  16.891  0.1173  0.5726  1.0447
 7774TIP3    H244738   2.789   3.790  16.795 -1.3926  0.0537 -0.7295
 7775TIP3   OH244739   3.469   0.070   2.190  1.0347 -0.3007  0.6947
 7775TIP3    H144740   3.394   0.112   2.149  1.7238 -0.5139 -0.8631
 7775TIP3    H244741   3.476   0.110   2.276  0.1885  0.9757  0.1834
 7776TIP3   OH244742   0.481   2.354  15.830  0.3379 -0.5895  0.3436
 7776TIP3    H144743   0.510   2.265  15.849  0.9759 -0.4982 -0.1503
 7776TIP3    H244744   0.559   2.408  15.844  0.2050 -0.2340 -0.2683
 7777TIP3   OH244745   6.409   1.378  15.457 -0.3164 -0.2308 -0.3263
 7777TIP3    H144746   6.489   1.381  15.404  0.4797 -0.9875  0.8101
 7777TIP3    H244747   6.364   1.460  15.437  0.9827  0.4219 -0.6207
 7778TIP3   OH244748   2.414   0.864   3.813  0.0697 -0.1131  0.5326
 7778TIP3    H144749   2.403   0.800   3.743  3.7547 -1.2845  0.9314
 7778TIP3    H244750   2.353   0.935   3.791 -0.5913 -1.5682 -2.5026
 7779TIP3   OH244751   3.543   0.240  12.348  0.2284 -0.3589 -0.0778
 7779TIP3    H144752   3.494   0.250  12.430  0.0833 -0.7970 -0.1108
 7779TIP3    H244753   3.501   0.302  12.288  0.5248  0.1743  0.2644
 7780TIP3   OH244754   2.284   2.155   0.562 -0.0622  0.5547 -0.3795
 7780TIP3    H144755   2.271   2.223   0.629  1.1236  0.4137  0.0070
 7780TIP3    H244756   2.228   2.083   0.591  0.0047  0.7122  0.1527
 7781TIP3   OH244757   4.630   5.224  15.459  0.3342  0.2633 -0.7503
 7781TIP3    H144758   4.720   5.203  15.483  0.0245  1.3784  1.5072
 7781TIP3    H244759   4.578   5.154  15.498 -0.0005  0.9647  0.0573
 7782TIP3   OH244760   4.284   4.685   1.760 -0.4842  0.0937 -0.4047
 7782TIP3    H144761   4.275   4.642   1.845  0.2265 -0.6404 -0.7019
 7782TIP3    H244762   4.235   4.629   1.699 -1.3409  0.8331 -0.4192
 7783TIP3   OH244763   3.267   4.027  16.069  0.1336 -0.0039  0.0573
 7783TIP3    H144764   3.324   4.050  15.997  0.3247  1.8093  0.7483
 7783TIP3    H244765   3.325   4.015  16.144 -0.1495 -0.8755  0.1480
 7784TIP3   OH244766   1.178   6.263  13.366 -0.6088  0.0204 -0.1515
 7784TIP3    H144767   1.260   6.249  13.415 -0.9215 -2.5389 -0.2649
 7784TIP3    H244768   1.207   6.290  13.279  0.1023 -0.2952 -0.0192
 7785TIP3   OH244769   5.436   6.760  14.883 -0.7741  0.1691  0.0626
 7785TIP3    H144770   5.346   6.761  14.915 -0.9603 -2.1911 -0.2871
 7785TIP3    H244771   5.429   6.784  14.791 -1.1047 -0.3818 -0.0601
 7786TIP3   OH244772   3.951   1.356  13.926 -0.6505 -0.2830  0.4088
 7786TIP3    H144773   3.906   1.291  13.980  0.3333 -0.5432  0.9430
 7786TIP3    H244774   4.037   1.318  13.910 -0.6404  0.1746 -0.6535
 7787TIP3   OH244775   0.695   5.629  14.574  0.3981  0.0844  0.1280
 7787TIP3    H144776   0.644   5.550  14.593 -0.4361  0.8384  1.1634
 7787TIP3    H244777   0.646   5.672  14.503 -0.3858  0.7455  1.0396
 7788TIP3   OH244778   3.918   3.044  17.113  0.6951 -0.2022  0.2721
 7788TIP3    H144779   3.934   3.083  17.027  0.7331 -2.1057 -0.6107
 7788TIP3    H244780   3.842   3.091  17.148  0.5529  0.4316 -0.8863
 7789TIP3   OH244781   2.775   0.199   5.244  0.3317  0.0782  0.2124
 7789TIP3    H144782   2.853   0.150   5.269  0.2592 -0.2363 -0.1820
 7789TIP3    H244783   2.708   0.133   5.231  0.1103  0.3189  0.1297
 7790TIP3   OH244784   4.540   3.876   5.609  0.4302  0.3936 -0.0739
 7790TIP3    H144785   4.488   3.952   5.583  1.1026  0.7873 -0.3057
 7790TIP3    H244786   4.560   3.891   5.701 -1.9132 -0.9798  0.6754
 7791TIP3   OH244787   2.647   0.340  12.621 -0.4970 -0.2727 -0.6861
 7791TIP3    H144788   2.730   0.328  12.667 -0.7898  3.3778  0.9766
 7791TIP3    H244789   2.647   0.273  12.553  1.9228 -2.9987  1.8689
 7792TIP3   OH244790   3.730   2.970   3.352  0.6146  0.1867  0.0973
 7792TIP3    H144791   3.790   2.987   3.280  0.9976  3.1668  1.0587
 7792TIP3    H244792   3.720   3.054   3.396 -3.7454 -0.3812  0.4119
 7793TIP3   OH244793   3.139   6.019   3.224 -0.2321 -0.2204 -0.2950
 7793TIP3    H144794   3.193   6.088   3.263 -0.5818  1.3381 -2.4512
 7793TIP3    H244795   3.078   5.995   3.293 -0.6138  2.2165  0.2825
 7794TIP3   OH244796   3.166   4.506  10.897  0.0705 -0.1359  0.2225
 7794TIP3    H144797   3.137   4.415  10.908  0.5253 -0.5024 -1.4482
 7794TIP3    H244798   3.257   4.506  10.926  0.1687 -0.2910 -0.0810
 7795TIP3   OH244799   2.133   4.378   5.736 -0.6732  0.0759  0.7367
 7795TIP3    H144800   2.098   4.412   5.653  1.3938 -0.2692 -0.3121
 7795TIP3    H244801   2.133   4.453   5.795 -2.7297  0.1819  0.6316
 7796TIP3   OH244802   5.493   3.060  16.835 -0.1808 -0.1502  0.8981
 7796TIP3    H144803   5.558   2.991  16.823  0.4833  0.6527 -0.1978
 7796TIP3    H244804   5.507   3.092  16.925  0.2557 -0.6754  1.0177
 7797TIP3   OH244805   2.029   3.681   0.319  0.1779  0.0356  0.1618
 7797TIP3    H144806   2.024   3.775   0.335  1.5406  0.2209 -0.4491
 7797TIP3    H244807   2.028   3.673   0.223  0.0165 -0.5727  0.2109
 7798TIP3   OH244808   1.331   3.453  12.851  0.1999 -0.0670  0.2665
 7798TIP3    H144809   1.356   3.544  12.836 -1.0067  0.1721 -0.3235
 7798TIP3    H244810   1.407   3.402  12.823  0.2051  0.6686 -1.0686
 7799TIP3   OH244811   6.178   3.023   2.465 -0.3076  0.1315 -0.3641
 7799TIP3    H144812   6.194   3.101   2.518 -1.4913  0.5734 -0.6360
 7799TIP3    H244813   6.207   2.951   2.520  0.0384  0.7065  0.2173
 7800TIP3   OH244814   5.752   1.936  13.903 -0.3463  0.3354  0.0892
 7800TIP3    H144815   5.683   1.993  13.937 -1.7777 -2.0507  1.3345
 7800TIP3    H244816   5.720   1.909  13.817 -1.6472 -1.7997  1.1981
 7801TIP3   OH244817   1.802   6.462   2.710  0.7549  0.3206 -0.0201
 7801TIP3    H144818   1.772   6.496   2.794 -2.1836  1.4837 -1.4490
 7801TIP3    H244819   1.882   6.511   2.690  1.3054  0.2405  1.9325
 7802TIP3   OH244820   4.977   1.524  11.679 -0.6685  0.0280  0.0016
 7802TIP3    H144821   5.018   1.503  11.763 -0.9094  0.8494  0.3326
 7802TIP3    H244822   4.983   1.443  11.628 -0.2134 -0.3720  0.6861
 7803TIP3   OH244823   0.061   3.887  13.279  0.6554 -0.8815 -0.1807
 7803TIP3    H144824   0.070   3.970  13.326 -1.1814 -0.8827  0.2113
 7803TIP3    H244825   0.086   3.820  13.342 -1.1687 -0.8389  0.6151
 7804TIP3   OH244826   2.223   5.056  13.804  0.6896 -0.0394 -0.4639
 7804TIP3    H144827   2.313   5.071  13.777  0.3923 -1.5258 -2.4842
 7804TIP3    H244828   2.172   5.118  13.753  0.6097  1.2891  1.2031
 7805TIP3   OH244829   1.557   5.812   1.169 -0.0727  0.3493 -0.0707
 7805TIP3    H144830   1.532   5.723   1.193 -0.2069  0.0726 -1.1941
 7805TIP3    H244831   1.477   5.863   1.181 -1.0624 -0.3995 -2.9603
 7806TIP3   OH244832   3.619   3.722  13.746 -0.3325 -0.0351 -0.0081
 7806TIP3    H144833   3.643   3.662  13.817  2.7173  0.9699 -0.1129
 7806TIP3    H244834   3.702   3.740  13.701 -1.8408  1.2117 -2.3707
 7807TIP3   OH244835   1.400   4.088   4.288  0.1418  0.0577 -0.0241
 7807TIP3    H144836   1.308   4.067   4.307  0.1011 -1.0470 -1.3231
 7807TIP3    H244837   1.437   4.114   4.372 -0.9304 -1.1827  0.8531
 7808TIP3   OH244838   3.171   3.829  12.064  0.7400  0.3464 -0.3315
 7808TIP3    H144839   3.255   3.799  12.096 -0.6753 -1.2229  2.0745
 7808TIP3    H244840   3.112   3.755  12.078 -1.1443  1.5644 -1.5566
 7809TIP3   OH244841   5.220   0.199   0.617  0.7557  0.3727 -0.0752
 7809TIP3    H144842   5.169   0.125   0.649  2.0711 -0.5557 -0.0929
 7809TIP3    H244843   5.309   0.165   0.606  1.1343  1.6430 -1.1833
 7810TIP3   OH244844   2.653   0.310   3.745  0.1734  0.2433  0.1402
 7810TIP3    H144845   2.626   0.394   3.783  0.4369  0.6094 -0.4714
 7810TIP3    H244846   2.638   0.246   3.815  0.5519  0.8903  0.8231
 7811TIP3   OH244847   3.359   4.051  11.694  0.8101  0.2375 -0.3708
 7811TIP3    H144848   3.285   3.994  11.672  0.3176  0.4815  0.6056
 7811TIP3    H244849   3.416   4.049  11.617  0.2372 -0.6844 -0.7686
 7812TIP3   OH244850   4.227   2.957   1.689  0.4092 -0.2900 -0.6032
 7812TIP3    H144851   4.135   2.934   1.701  0.5709 -0.3635  0.4931
 7812TIP3    H244852   4.231   2.990   1.599 -1.1681  2.0480  0.1374
 7813TIP3   OH244853   1.272   6.320   0.616  0.3032 -0.1898  0.5171
 7813TIP3    H144854   1.237   6.407   0.595  0.8181 -0.1193 -0.0829
 7813TIP3    H244855   1.278   6.319   0.711  2.3555  1.2712  0.4575
 7814TIP3   OH244856   1.336   5.167   3.635 -0.2612  0.3811  0.0990
 7814TIP3    H144857   1.428   5.166   3.661 -0.4539  1.3075  0.8374
 7814TIP3    H244858   1.310   5.259   3.644 -1.4369  0.0103  0.5284
 7815TIP3   OH244859   0.802   1.756  14.436 -0.0164 -0.3952  0.3171
 7815TIP3    H144860   0.739   1.685  14.442 -1.6259  1.0047  0.5029
 7815TIP3    H244861   0.825   1.776  14.527  0.0298 -0.3559  0.2966
 7816TIP3   OH244862   4.612   1.676   0.208  0.3465 -0.4083  0.2353
 7816TIP3    H144863   4.609   1.679   0.112  3.8351  0.4323  0.0862
 7816TIP3    H244864   4.602   1.583   0.229  0.3711 -0.7035 -0.9984
 7817TIP3   OH244865   2.571   4.673  12.967 -0.0757  0.5757 -0.1977
 7817TIP3    H144866   2.614   4.758  12.960 -1.1381  0.9410 -2.5898
 7817TIP3    H244867   2.571   4.638  12.878 -0.6543 -1.4308  0.5662
 7818TIP3   OH244868   4.798   5.680   0.567 -0.1984 -0.2573  0.4325
 7818TIP3    H144869   4.868   5.682   0.632  1.3260  2.1091 -1.2120
 7818TIP3    H244870   4.717   5.683   0.619  0.7932 -4.0122  2.4040
 7819TIP3   OH244871   3.650   6.663   5.400 -0.4001 -0.1698  0.1050
 7819TIP3    H144872   3.614   6.647   5.313  1.0612  1.2282 -0.7980
 7819TIP3    H244873   3.683   6.578   5.429 -1.1186 -0.6934 -0.6097
 7820TIP3   OH244874   3.434   1.271   2.542  0.0738 -0.0970 -0.2698
 7820TIP3    H144875   3.526   1.245   2.552  0.5529  1.7590  0.4520
 7820TIP3    H244876   3.409   1.301   2.630 -1.2582 -0.6890 -0.4442
 7821TIP3   OH244877   3.048   2.051   3.888  0.8155 -0.1768  0.3008
 7821TIP3    H144878   3.000   2.015   3.814  3.5808 -1.2540 -1.0683
 7821TIP3    H244879   3.057   1.977   3.948  2.0530 -0.4189 -0.1636
 7822TIP3   OH244880   1.899   3.583   2.765 -0.4207  0.0407 -0.1875
 7822TIP3    H144881   1.826   3.644   2.768  0.7077  1.3507  2.2192
 7822TIP3    H244882   1.922   3.577   2.672 -1.7926  1.7697 -0.6497
 7823TIP3   OH244883   0.746   0.857   0.628 -0.1763 -0.3453  0.1986
 7823TIP3    H144884   0.792   0.901   0.700 -1.2405  0.7111  0.2464
 7823TIP3    H244885   0.654   0.883   0.638 -0.4065 -0.5021 -1.2975
 7824TIP3   OH244886   6.353   5.641  13.114  0.6201  0.3495  0.0486
 7824TIP3    H144887   6.329   5.732  13.136 -0.0635  0.2533 -0.2817
 7824TIP3    H244888   6.383   5.604  13.197 -1.5044  0.1287  0.7459
 7825TIP3   OH244889   3.773   2.919  12.470 -0.1689  0.5670  0.2138
 7825TIP3    H144890   3.738   2.934  12.382 -1.5007 -2.1199  0.2464
 7825TIP3    H244891   3.729   2.984  12.524  0.5113  2.1157 -1.0350
 7826TIP3   OH244892   1.909   5.694  11.550 -0.4887  0.2579  0.1411
 7826TIP3    H144893   1.991   5.742  11.566  0.5315 -1.4359  0.0707
 7826TIP3    H244894   1.932   5.630  11.483 -1.4100 -1.4981  1.4862
 7827TIP3   OH244895   1.477   3.002  14.249  0.2929  0.5021 -0.1200
 7827TIP3    H144896   1.564   3.021  14.283  0.3066 -0.8159  0.6079
 7827TIP3    H244897   1.418   3.047  14.309  0.3602 -1.0223  1.1284
 7828TIP3   OH244898   1.662   4.171  15.678  0.4044  0.1338  0.2567
 7828TIP3    H144899   1.701   4.155  15.593  1.6882 -0.3763  0.9250
 7828TIP3    H244900   1.673   4.265  15.692 -0.1788  0.2888 -0.3119
 7829TIP3   OH244901   0.910   6.091  15.632 -0.0525  0.0043  0.2828
 7829TIP3    H144902   0.999   6.092  15.595 -0.2575 -0.0319 -0.2198
 7829TIP3    H244903   0.853   6.104  15.556 -0.5212 -0.9362  0.4644
 7830TIP3   OH244904   6.233   4.815   0.172 -0.2262  0.3504  0.0320
 7830TIP3    H144905   6.194   4.730   0.148  0.7050 -0.4599  1.2908
 7830TIP3    H244906   6.326   4.795   0.186  0.0016  1.5920  0.3279
 7831TIP3   OH244907   4.030   5.944   4.451  0.0602  1.0606 -0.0300
 7831TIP3    H144908   3.969   5.885   4.495  1.0524 -0.0025 -0.0628
 7831TIP3    H244909   4.009   5.935   4.358  0.4456  0.5087 -0.0594
 7832TIP3   OH244910   4.723   3.450  17.066  0.3496 -0.2149 -0.0835
 7832TIP3    H144911   4.634   3.464  17.098  0.2947 -2.6178  0.8886
 7832TIP3    H244912   4.712   3.401  16.985  0.7484  0.2538 -0.4214
 7833TIP3   OH244913   3.237   4.240   2.244 -0.1714 -0.5756 -0.6144
 7833TIP3    H144914   3.176   4.206   2.178 -1.3825 -0.5982  0.5045
 7833TIP3    H244915   3.267   4.162   2.290 -1.9879 -0.2921  1.1229
 7834TIP3   OH244916   5.602   2.376  12.044 -0.1708  0.0374 -0.0385
 7834TIP3    H144917   5.560   2.445  11.993  1.0517  1.3259  0.6730
 7834TIP3    H244918   5.687   2.364  12.000  0.7712  0.9539  1.5025
 7835TIP3   OH244919   0.647   0.782  11.571 -0.1710 -0.1682  0.2159
 7835TIP3    H144920   0.705   0.707  11.586  2.0125  1.1925 -1.0735
 7835TIP3    H244921   0.675   0.847  11.635 -1.1099  0.0490  0.4093
 7836TIP3   OH244922   1.447   4.919  14.021  0.9389  0.1058 -0.2365
 7836TIP3    H144923   1.410   4.906  13.934  0.3183 -2.2001  0.3204
 7836TIP3    H244924   1.540   4.897  14.011  1.3095  1.7846 -0.7152
 7837TIP3   OH244925   2.681   5.048   0.976  0.1675  0.1676 -0.3053
 7837TIP3    H144926   2.619   5.011   0.913 -0.6945 -0.9651  1.1724
 7837TIP3    H244927   2.657   5.140   0.984 -0.5670  0.0007 -0.6395
 7838TIP3   OH244928   3.165   1.337  15.478  0.4245 -0.2175  0.8905
 7838TIP3    H144929   3.141   1.312  15.389  0.9376  1.0018  0.3879
 7838TIP3    H244930   3.133   1.427  15.486  2.2673  0.4274  1.1918
 7839TIP3   OH244931   2.422   4.861  16.068  0.2159  0.2673 -0.5997
 7839TIP3    H144932   2.328   4.851  16.087 -0.1427 -1.7524 -3.0960
 7839TIP3    H244933   2.441   4.789  16.008  3.1349  1.3243 -0.9875
 7840TIP3   OH244934   3.773   2.559   4.383  0.3738 -0.0558 -0.4027
 7840TIP3    H144935   3.862   2.528   4.397  1.4243  1.9921 -2.2845
 7840TIP3    H244936   3.763   2.561   4.288 -1.5146  0.2211 -0.2176
 7841TIP3   OH244937   3.182   1.191   5.390  0.3138  0.0964 -0.3203
 7841TIP3    H144938   3.174   1.101   5.419  0.4323  1.2531  3.5193
 7841TIP3    H244939   3.263   1.193   5.339  0.6608 -1.8117  0.1110
 7842TIP3   OH244940   1.722   1.069   2.656  0.4741 -0.1440 -0.1073
 7842TIP3    H144941   1.776   1.046   2.731  2.2986  1.0465 -1.0275
 7842TIP3    H244942   1.713   1.165   2.662 -2.0969 -0.3818  0.3940
 7843TIP3   OH244943   1.071   2.519   5.800  0.1699 -0.3986 -0.0868
 7843TIP3    H144944   1.122   2.438   5.800  0.3248 -0.3111 -1.2717
 7843TIP3    H244945   1.133   2.586   5.829  1.1057 -0.0926 -2.6239
 7844TIP3   OH244946   3.690   1.579  16.177  0.5245  0.4228 -0.3258
 7844TIP3    H144947   3.618   1.595  16.116  0.7809 -0.3037 -0.8329
 7844TIP3    H244948   3.649   1.578  16.263  0.2239  1.8586 -0.4480
 7845TIP3   OH244949   3.437   2.275  11.066  0.0289  0.4065 -0.0991
 7845TIP3    H144950   3.515   2.325  11.091 -0.7345  1.4384  0.2605
 7845TIP3    H244951   3.379   2.340  11.027 -0.7278 -0.3250 -0.1884
 7846TIP3   OH244952   4.394   4.786  14.272  0.3511  0.1816  0.0651
 7846TIP3    H144953   4.364   4.870  14.239  1.1348  1.0489  1.4783
 7846TIP3    H244954   4.472   4.766  14.220  1.3812  1.3674  1.1157
 7847TIP3   OH244955   6.368   6.317  12.171  0.2482  0.1938 -0.6655
 7847TIP3    H144956   6.322   6.332  12.089  0.9358  0.9393 -0.9234
 7847TIP3    H244957   6.432   6.388  12.176  1.5317 -0.9599 -0.4348
 7848TIP3   OH244958   5.980   2.498   4.870 -0.6107  0.2991  0.2215
 7848TIP3    H144959   6.009   2.459   4.788 -3.8611 -1.4764 -0.2080
 7848TIP3    H244960   6.055   2.490   4.929  0.5591 -1.8373 -1.4859
 7849TIP3   OH244961   3.040   6.764  15.228 -0.5222  0.4102 -0.1054
 7849TIP3    H144962   3.136   6.765  15.232 -0.4414 -2.8264  0.4770
 7849TIP3    H244963   3.011   6.787  15.316 -0.2595  0.5912 -0.0682
 7850TIP3   OH244964   3.750   3.575   1.820 -0.1004  0.0588 -0.8672
 7850TIP3    H144965   3.819   3.627   1.779  0.3788  0.1457  0.0328
 7850TIP3    H244966   3.718   3.629   1.892  0.4205 -0.8862  0.0981
 7851TIP3   OH244967   4.486   2.774  11.508 -0.0517  0.1269  0.2454
 7851TIP3    H144968   4.478   2.870  11.514 -0.2220  0.0850  0.7050
 7851TIP3    H244969   4.526   2.759  11.422  0.3645  0.6305  0.3453
 7852TIP3   OH244970   2.662   1.265  17.069  0.1015  0.5040  0.4430
 7852TIP3    H144971   2.724   1.258  17.142  0.1524  0.5711  0.4043
 7852TIP3    H244972   2.711   1.238  16.992 -0.2479 -0.5857  0.5901
 7853TIP3   OH244973   2.079   0.287   6.114 -0.5609  0.0405  0.3892
 7853TIP3    H144974   2.040   0.200   6.112 -1.4921  0.4239  1.1714
 7853TIP3    H244975   2.144   0.283   6.184  2.2877 -1.1906 -2.2521
 7854TIP3   OH244976   3.693   0.051   0.720  0.0929 -0.5815  0.1981
 7854TIP3    H144977   3.784   0.037   0.747 -0.0201  0.5169  1.2328
 7854TIP3    H244978   3.642   0.032   0.799 -0.5661 -1.0847 -0.3481
 7855TIP3   OH244979   2.068   3.996  16.053 -0.0656  0.2280 -0.1732
 7855TIP3    H144980   2.094   3.948  15.975  1.1328 -0.9289  0.8960
 7855TIP3    H244981   2.149   4.003  16.104 -1.2533 -0.9716  1.9578
 7856TIP3   OH244982   1.232   2.035  14.943 -0.8321 -0.0241  0.2396
 7856TIP3    H144983   1.152   2.049  14.892  0.0560 -0.9261 -1.4235
 7856TIP3    H244984   1.217   1.953  14.990 -0.3444 -0.9135 -1.1458
 7857TIP3   OH244985   5.283   6.066   2.395  0.0027  0.1606 -0.2868
 7857TIP3    H144986   5.262   6.101   2.481  1.4746  0.8363 -0.1769
 7857TIP3    H244987   5.358   6.118   2.366 -0.6452  0.1126 -2.0877
 7858TIP3   OH244988   1.317   2.017  16.541 -0.4849  0.5395  0.2365
 7858TIP3    H144989   1.232   2.029  16.499 -1.1728 -0.8737  1.1773
 7858TIP3    H244990   1.342   1.927  16.520  0.1886  0.5333  1.0206
 7859TIP3   OH244991   0.521   2.951  11.407  0.4068 -0.0903 -0.8455
 7859TIP3    H144992   0.432   2.950  11.372  0.7970  0.9071 -1.9094
 7859TIP3    H244993   0.510   2.942  11.502 -0.7945 -0.4596 -1.0148
 7860TIP3   OH244994   1.340   5.411  16.023  0.0603 -0.2600 -0.0354
 7860TIP3    H144995   1.313   5.344  16.085  1.5947  1.0081  2.0613
 7860TIP3    H244996   1.436   5.405  16.021  0.0682  0.0637 -1.9011
 7861TIP3   OH244997   2.482   3.875   1.882 -0.1618 -1.0655 -0.6778
 7861TIP3    H144998   2.447   3.789   1.860  0.2078 -1.6105  0.7579
 7861TIP3    H244999   2.495   3.871   1.977  1.9055 -0.1979 -0.9050
 7862TIP3   OH245000   3.946   1.059  16.576 -0.1267  0.4211 -0.2124
 7862TIP3    H145001   4.035   1.088  16.557 -0.8690  2.5425 -0.5428
 7862TIP3    H245002   3.889   1.126  16.538 -1.8121  0.6227  2.5139
 7863TIP3   OH245003   5.304   2.665   2.639 -0.2456 -0.4018 -0.2438
 7863TIP3    H145004   5.387   2.701   2.607 -1.7149  1.1468 -2.4884
 7863TIP3    H245005   5.305   2.683   2.733  1.7833 -0.0577 -0.3100
 7864TIP3   OH245006   2.603   2.594   5.459  0.3586  0.0797  0.2733
 7864TIP3    H145007   2.672   2.624   5.519  0.3954  0.4302  0.0565
 7864TIP3    H245008   2.530   2.654   5.475  0.3960  0.2196 -0.0882
 7865TIP3   OH245009   4.345   4.695   0.165  0.1885 -0.2570 -0.8294
 7865TIP3    H145010   4.267   4.661   0.121 -0.6195  1.4928 -0.7975
 7865TIP3    H245011   4.320   4.698   0.258  0.4202 -0.0359 -0.7727
 7866TIP3   OH245012   2.339   4.417  13.524 -0.1681  0.0570  0.4046
 7866TIP3    H145013   2.361   4.338  13.475  0.0145 -0.3010  1.0481
 7866TIP3    H245014   2.357   4.489  13.464  1.5553 -0.2968  0.4715
 7867TIP3   OH245015   5.665   4.263  15.061  0.3309  0.1641 -0.1877
 7867TIP3    H145016   5.650   4.357  15.054  0.8847  0.3189  0.7780
 7867TIP3    H245017   5.753   4.254  15.096  0.1362 -0.7105  0.0984
 7868TIP3   OH245018   2.468   0.017   1.109 -0.1653 -0.6122 -0.4368
 7868TIP3    H145019   2.559   0.040   1.126 -0.2112 -0.6280 -0.1587
 7868TIP3    H245020   2.420   0.100   1.115 -0.1975 -0.6349 -0.3804
 7869TIP3   OH245021   4.618   3.059   6.416 -0.0673  0.0060 -0.3389
 7869TIP3    H145022   4.661   3.142   6.397  1.6835 -0.9022 -0.4356
 7869TIP3    H245023   4.524   3.081   6.420  0.5365  2.3568  1.8652
 7870TIP3   OH245024   4.081   0.239   1.680 -1.2363  0.5697  0.4169
 7870TIP3    H145025   4.089   0.334   1.694 -0.6237  0.4821  0.6674
 7870TIP3    H245026   4.065   0.231   1.586 -0.0183  0.8547  0.1753
 7871TIP3   OH245027   0.996   5.937   4.787 -0.1190  0.2147  0.2732
 7871TIP3    H145028   1.083   5.975   4.800 -0.0230 -0.4743  1.8155
 7871TIP3    H245029   0.954   5.943   4.873 -0.7208 -1.5913  0.1362
 7872TIP3   OH245030   4.572   1.033   3.867 -0.0636 -0.1584 -0.0122
 7872TIP3    H145031   4.484   1.061   3.842 -1.0951 -0.5690  2.9307
 7872TIP3    H245032   4.630   1.103   3.836 -1.7007  1.2904  0.1275
 7873TIP3   OH245033   2.748   3.134   0.055  0.4710 -0.1644  0.4733
 7873TIP3    H145034   2.654   3.114   0.056  0.1940  1.0785 -0.0685
 7873TIP3    H245035   2.754   3.222   0.093  1.4280 -0.2904  0.6256
 7874TIP3   OH245036   4.183   6.558   5.630  0.3869  0.4364 -0.3791
 7874TIP3    H145037   4.098   6.566   5.673  0.4601  2.8075 -0.5807
 7874TIP3    H245038   4.200   6.464   5.626 -1.0072  0.0391  2.0371
 7875TIP3   OH245039   3.294   3.666  16.303 -0.2080 -0.5618 -0.5770
 7875TIP3    H145040   3.295   3.755  16.337  0.0987 -0.3375 -1.1666
 7875TIP3    H245041   3.212   3.629  16.335 -1.0554  0.4226 -1.5825
 7876TIP3   OH245042   4.580   1.715   1.261  0.0511 -0.0701  0.0864
 7876TIP3    H145043   4.596   1.724   1.355 -0.4408 -1.5005  0.3197
 7876TIP3    H245044   4.667   1.702   1.223  0.2927  0.9265  0.2866
 7877TIP3   OH245045   5.026   5.902   5.299 -0.2669  0.4095  0.0247
 7877TIP3    H145046   4.953   5.851   5.263 -1.2321  2.0488 -0.4416
 7877TIP3    H245047   4.983   5.970   5.351  0.8507  2.1702 -1.2912
 7878TIP3   OH245048   5.153   4.390  13.094 -0.0089 -0.0429 -0.3131
 7878TIP3    H145049   5.202   4.463  13.132 -0.4235  0.6626 -1.1143
 7878TIP3    H245050   5.220   4.338  13.048  0.0170  0.8184 -1.2515
 7879TIP3   OH245051   4.019   1.638  10.638 -0.3402  0.0652  0.1112
 7879TIP3    H145052   3.993   1.595  10.557  0.0475  0.5311 -0.2647
 7879TIP3    H245053   4.115   1.645  10.632 -0.2182 -0.7370  1.0298
 7880TIP3   OH245054   5.511   5.590  16.165 -1.0046  0.3380  0.8410
 7880TIP3    H145055   5.553   5.666  16.206  0.9318 -1.5575  2.5237
 7880TIP3    H245056   5.566   5.572  16.088 -1.1125  0.2816  0.7787
 7881TIP3   OH245057   3.617   5.369   2.883  0.0590  0.1448  0.2384
 7881TIP3    H145058   3.686   5.396   2.944  0.8133 -0.3968 -0.3598
 7881TIP3    H245059   3.536   5.382   2.931  0.4303  2.8599  0.2033
 7882TIP3   OH245060   6.145   4.667   2.943  0.2623  0.1465 -0.4610
 7882TIP3    H145061   6.156   4.697   2.853 -0.3391 -2.0338 -1.2888
 7882TIP3    H245062   6.097   4.738   2.986  0.6999  1.2745 -1.8011
 7883TIP3   OH245063   5.044   0.393  11.998  0.4519 -0.2383  0.3802
 7883TIP3    H145064   4.999   0.474  11.973 -0.6343 -0.8715  0.2500
 7883TIP3    H245065   5.046   0.341  11.918  0.2568 -0.7489  0.7032
 7884TIP3   OH245066   2.491   3.700   0.596  0.0298  0.1589 -0.4543
 7884TIP3    H145067   2.573   3.750   0.602 -0.6030  1.0472  1.2090
 7884TIP3    H245068   2.505   3.639   0.523  1.7860  0.9935 -0.8426
 7885TIP3   OH245069   6.480   0.981   3.522 -0.1391 -0.7754  0.1676
 7885TIP3    H145070   6.493   0.887   3.511 -1.0084 -1.0403  1.3449
 7885TIP3    H245071   6.497   0.997   3.615 -1.5165 -0.0318  0.2996
 7886TIP3   OH245072   4.071   1.734   1.205  0.0159  0.0088 -0.2598
 7886TIP3    H145073   4.100   1.824   1.194  1.1782 -0.2991  0.1800
 7886TIP3    H245074   4.057   1.724   1.300  1.7770 -0.8103 -0.0549
 7887TIP3   OH245075   4.135   3.951  12.186 -0.8900  0.2412 -0.4510
 7887TIP3    H145076   4.064   3.957  12.251 -1.7496  0.2653 -1.3757
 7887TIP3    H245077   4.147   3.857  12.173 -0.7857  0.2376 -0.3268
 7888TIP3   OH245078   3.383   1.575  17.200  0.1336 -0.6180 -0.0463
 7888TIP3    H145079   3.461   1.551  17.250  0.3282  0.3142  0.1167
 7888TIP3    H245080   3.321   1.607  17.266  0.2604  0.2785 -0.3486
 7889TIP3   OH245081   4.152   2.383   3.230  0.2547  0.4297  0.5796
 7889TIP3    H145082   4.109   2.456   3.185  1.4673  0.3209 -0.8211
 7889TIP3    H245083   4.127   2.306   3.180 -0.2039  0.0132  1.4526
 7890TIP3   OH245084   0.423   5.665   2.290  0.1100 -0.3254  0.8443
 7890TIP3    H145085   0.517   5.685   2.293 -0.4789  2.6785  0.0093
 7890TIP3    H245086   0.395   5.666   2.381  0.0289  3.2007  0.8350
 7891TIP3   OH245087   5.825   4.058  14.356 -0.2616 -0.5838  0.2855
 7891TIP3    H145088   5.848   3.965  14.364  1.2762 -0.1973  0.5961
 7891TIP3    H245089   5.839   4.093  14.444  0.3921  0.2035 -0.1301
 7892TIP3   OH245090   0.326   1.534  14.316 -0.3241 -0.2498  0.1300
 7892TIP3    H145091   0.317   1.442  14.339 -0.5382 -0.4912 -0.8934
 7892TIP3    H245092   0.276   1.543  14.235 -1.5935  1.0884  1.0255
 7893TIP3   OH245093   1.517   3.095   2.545  0.4654 -0.1592 -0.8997
 7893TIP3    H145094   1.484   3.027   2.603  0.0896  0.5143 -0.3155
 7893TIP3    H245095   1.439   3.146   2.521  1.1914  2.1868  1.4473
 7894TIP3   OH245096   3.686   1.720   3.824 -0.1814  0.2114 -0.2951
 7894TIP3    H145097   3.606   1.760   3.791 -0.1321  0.5936  0.0517
 7894TIP3    H245098   3.756   1.778   3.793 -0.2411  1.4598  1.8107
 7895TIP3   OH245099   4.691   5.474  11.906  0.7453  0.5823  0.2067
 7895TIP3    H145100   4.714   5.403  11.966 -3.8235 -0.3300  1.0587
 7895TIP3    H245101   4.656   5.430  11.829  0.6395  1.8476 -0.4782
 7896TIP3   OH245102   1.133   6.708  10.934 -0.1891  0.0431 -0.4897
 7896TIP3    H145103   1.168   6.622  10.959  0.1503 -0.3844 -2.3765
 7896TIP3    H245104   1.210   6.762  10.916 -0.4239  0.2577 -0.8669
 7897TIP3   OH245105   5.278   5.820   4.890 -0.4541  0.1498  0.0578
 7897TIP3    H145106   5.267   5.726   4.903 -0.8558  0.0796 -0.7872
 7897TIP3    H245107   5.246   5.859   4.971 -0.6756 -0.4121  0.2438
 7898TIP3   OH245108   1.087   5.527   1.203  0.7057  0.5859 -0.3676
 7898TIP3    H145109   1.083   5.438   1.238 -2.2746  0.0255 -1.9862
 7898TIP3    H245110   1.086   5.583   1.281  0.8424 -0.7613  0.6212
 7899TIP3   OH245111   3.230   3.659  14.604  0.4219  0.2340  0.1591
 7899TIP3    H145112   3.204   3.581  14.652 -0.0225 -0.7921 -1.6733
 7899TIP3    H245113   3.282   3.626  14.531  0.2194  1.6491 -0.6582
 7900TIP3   OH245114   0.167   1.332   5.875 -0.5745  0.0577  0.2751
 7900TIP3    H145115   0.189   1.364   5.963 -1.2222  0.3595  0.3291
 7900TIP3    H245116   0.103   1.395   5.842 -0.9534 -0.5171 -0.0889
 7901TIP3   OH245117   4.970   0.440   0.673 -0.4222  0.1202  0.3704
 7901TIP3    H145118   4.882   0.434   0.635 -0.1085  1.0232 -0.5197
 7901TIP3    H245119   5.025   0.391   0.612  0.1787  2.0334 -0.6599
 7902TIP3   OH245120   6.663   6.746  14.938 -0.4093  0.3421  0.1127
 7902TIP3    H145121   6.676   6.824  14.885 -2.0532  1.9857  2.0325
 7902TIP3    H245122   6.588   6.767  14.994 -0.8726 -2.6164  0.6695
 7903TIP3   OH245123   0.785   6.627  14.877 -0.1341  0.2292  0.3686
 7903TIP3    H145124   0.836   6.564  14.927 -1.9739 -0.9555  0.8001
 7903TIP3    H245125   0.705   6.640  14.929 -0.6340  1.4240 -0.6758
 7904TIP3   OH245126   0.672   3.081  16.344  0.1578  0.7152  0.6550
 7904TIP3    H145127   0.664   3.144  16.272  1.4127  0.7536  0.5310
 7904TIP3    H245128   0.610   3.012  16.321 -0.3300  1.3075  0.1514
 7905TIP3   OH245129   6.703   0.598   2.457 -0.0857 -0.1151 -0.3487
 7905TIP3    H145130   6.610   0.600   2.432  0.1102  0.2744 -1.0712
 7905TIP3    H245131   6.741   0.530   2.402 -0.0021 -0.4975  0.1788
 7906TIP3   OH245132   0.833   0.666  13.574 -0.0964 -0.4791  0.1391
 7906TIP3    H145133   0.846   0.598  13.508 -2.4588 -1.2679  0.4397
 7906TIP3    H245134   0.846   0.622  13.658 -0.7045 -0.3334  0.3096
 7907TIP3   OH245135   4.914   0.371  15.950 -0.5439 -0.9547  0.6597
 7907TIP3    H145136   4.894   0.393  16.041 -2.7089 -1.7207  0.4002
 7907TIP3    H245137   4.918   0.456  15.906 -0.6847 -0.6390  1.2371
 7908TIP3   OH245138   3.511   0.373  11.096 -0.3312  0.8885  0.4046
 7908TIP3    H145139   3.510   0.342  11.186  0.3950  0.0366  0.1341
 7908TIP3    H245140   3.604   0.381  11.074 -0.4662 -0.8298 -0.8840
 7909TIP3   OH245141   5.378   6.078  16.417 -0.0828 -0.0305 -0.3776
 7909TIP3    H145142   5.370   5.983  16.425 -1.3661  0.1749  1.3128
 7909TIP3    H245143   5.455   6.100  16.470  0.4140 -0.1680 -1.0482
 7910TIP3   OH245144   3.889   4.090  16.579  0.1615  0.0036  0.2829
 7910TIP3    H145145   3.947   4.031  16.532 -0.1894  0.4648 -0.7361
 7910TIP3    H245146   3.928   4.176  16.569  0.7583 -0.0520  1.9033
 7911TIP3   OH245147   0.302   6.549  16.520  0.3747 -0.2370  0.0974
 7911TIP3    H145148   0.295   6.481  16.587 -0.4321 -0.4378 -0.1850
 7911TIP3    H245149   0.388   6.588  16.535  0.1253 -0.1552  1.3725
 7912TIP3   OH245150   3.090   4.430   5.052 -0.3370 -0.4068 -0.2000
 7912TIP3    H145151   3.024   4.439   5.120 -0.8066 -1.5573 -0.4896
 7912TIP3    H245152   3.148   4.360   5.084  0.1010 -0.1621 -0.4501
 7913TIP3   OH245153   3.907   5.709  14.986  0.4276  0.5294  0.0415
 7913TIP3    H145154   3.974   5.739  15.047  1.7954  0.1039 -1.2268
 7913TIP3    H245155   3.954   5.690  14.905 -1.3622  1.2425 -1.2192
 7914TIP3   OH245156   4.932   3.639  17.113  0.0010 -0.1396  0.1577
 7914TIP3    H145157   4.875   3.563  17.102 -2.9847  2.2953 -1.9933
 7914TIP3    H245158   4.916   3.669  17.202 -2.5223  0.7890 -0.5770
 7915TIP3   OH245159   2.001   1.758   2.098 -0.0337  0.4117  0.1099
 7915TIP3    H145160   1.969   1.793   2.015 -2.8287 -1.4813  0.3439
 7915TIP3    H245161   2.073   1.700   2.073  1.4450  2.5106 -0.6604
 7916TIP3   OH245162   0.467   6.312   0.583  0.5001  0.0046  0.0320
 7916TIP3    H145163   0.454   6.390   0.637  0.1150  1.2113 -1.7772
 7916TIP3    H245164   0.556   6.321   0.548 -0.2732  0.6677 -1.7994
 7917TIP3   OH245165   1.822   4.983  11.118 -0.7375  0.1027 -0.1347
 7917TIP3    H145166   1.852   4.994  11.028 -1.8590  0.7338 -0.4335
 7917TIP3    H245167   1.903   4.973  11.169 -0.1260 -1.3998 -1.3530
 7918TIP3   OH245168   0.441   5.713  14.040  0.3825 -0.3207  0.0096
 7918TIP3    H145169   0.530   5.717  14.074 -0.2185 -1.1188  1.7253
 7918TIP3    H245170   0.397   5.648  14.095 -1.7887  1.4719  0.4817
 7919TIP3   OH245171   3.377   4.421  15.683  0.5256 -0.7467 -0.6410
 7919TIP3    H145172   3.349   4.512  15.692 -0.4709 -1.1272  0.2205
 7919TIP3    H245173   3.297   4.374  15.658  0.5809 -1.7209  0.9894
 7920TIP3   OH245174   6.031   4.612  16.314  0.3073 -0.3563 -0.0292
 7920TIP3    H145175   6.049   4.533  16.264  2.1503  0.3440 -0.5092
 7920TIP3    H245176   6.034   4.683  16.250  0.4689  0.3055  0.6982
 7921TIP3   OH245177   3.704   2.545   1.299  0.0492 -0.0332 -0.2762
 7921TIP3    H145178   3.719   2.493   1.377  1.6305  1.6364  0.5645
 7921TIP3    H245179   3.609   2.554   1.294 -0.0113  0.7926  2.0868
 7922TIP3   OH245180   0.481   2.427   4.555 -0.1961  0.1658  0.4926
 7922TIP3    H145181   0.467   2.333   4.559 -0.6362  0.2544  1.0925
 7922TIP3    H245182   0.498   2.453   4.646  0.2298  0.6190  0.2932
 7923TIP3   OH245183   5.749   0.852  16.611 -0.7551  0.3104  0.1714
 7923TIP3    H145184   5.696   0.926  16.642 -0.5229  0.3193  0.5549
 7923TIP3    H245185   5.783   0.812  16.691  2.9964  2.6686 -0.1357
 7924TIP3   OH245186   3.667   3.587   3.387 -0.0086  0.2153 -0.3836
 7924TIP3    H145187   3.751   3.599   3.430  0.7928  1.5010 -2.2452
 7924TIP3    H245188   3.628   3.674   3.386 -1.3560 -0.3623  0.4116
 7925TIP3   OH245189   3.271   6.174  11.939 -0.0989  0.3861 -0.0343
 7925TIP3    H145190   3.307   6.144  12.022  2.4998  0.3132 -1.1360
 7925TIP3    H245191   3.332   6.141  11.873 -0.8597  2.3910 -1.7980
 7926TIP3   OH245192   5.469   6.496   4.490 -0.0901  0.2039 -0.2401
 7926TIP3    H145193   5.512   6.474   4.408 -0.7908 -1.8870 -0.0644
 7926TIP3    H245194   5.376   6.480   4.474 -0.4173  1.2828  0.4814
 7927TIP3   OH245195   6.143   2.149   2.409 -0.3013  0.7463 -0.3203
 7927TIP3    H145196   6.234   2.178   2.415 -0.0491  0.0607 -0.8442
 7927TIP3    H245197   6.148   2.056   2.388 -1.1240  0.6197  0.0033
 7928TIP3   OH245198   2.596   1.345  15.008  0.2276  0.6232 -0.2679
 7928TIP3    H145199   2.596   1.439  15.025 -0.2599  0.4452  0.7264
 7928TIP3    H245200   2.686   1.325  14.981  0.3122  1.3856 -0.5491
 7929TIP3   OH245201   3.500   1.454  13.691 -0.2330  0.6145  0.7439
 7929TIP3    H145202   3.579   1.506  13.699 -0.0799  0.4395  0.3798
 7929TIP3    H245203   3.514   1.380  13.750 -0.1537  0.6170  0.7292
 7930TIP3   OH245204   0.877   3.343  12.613 -0.0069 -0.1909  0.5474
 7930TIP3    H145205   0.943   3.347  12.545 -1.2386  0.3309 -0.6341
 7930TIP3    H245206   0.809   3.405  12.586 -1.3234 -1.2191  1.3676
 7931TIP3   OH245207   2.149   4.180  11.784 -0.3937 -0.1294 -0.1523
 7931TIP3    H145208   2.165   4.094  11.746 -0.7693 -0.9686  1.5084
 7931TIP3    H245209   2.080   4.165  11.849 -0.9071  1.5479 -0.2839
 7932TIP3   OH245210   5.724   6.238   4.400  0.0315 -0.2625  0.4953
 7932TIP3    H145211   5.804   6.285   4.426 -1.5428  1.3994  2.5736
 7932TIP3    H245212   5.679   6.221   4.483 -2.6488  0.4728 -0.7528
 7933TIP3   OH245213   2.741   2.038   5.300  0.1837 -0.5228  0.0163
 7933TIP3    H145214   2.653   2.075   5.290 -0.5528 -2.1247  0.3373
 7933TIP3    H245215   2.734   1.980   5.376  1.3043 -1.3032 -0.4567
 7934TIP3   OH245216   5.025   4.659   2.997  0.6381  0.5817  0.2032
 7934TIP3    H145217   5.069   4.574   2.985 -0.1355  0.2996 -0.7057
 7934TIP3    H245218   4.981   4.651   3.082  1.8210  0.6391  0.8333
 7935TIP3   OH245219   6.026   0.665  12.137 -0.7208 -0.1361 -0.1895
 7935TIP3    H145220   5.933   0.672  12.114 -1.2065 -1.2726  1.2984
 7935TIP3    H245221   6.026   0.659  12.233  1.1170  2.9757  0.0603
 7936TIP3   OH245222   2.508   4.863  13.283 -0.8441  0.1218 -0.3499
 7936TIP3    H145223   2.555   4.815  13.215 -2.0990 -1.3331 -0.2130
 7936TIP3    H245224   2.553   4.947  13.289  1.0873 -0.8463 -0.9474
 7937TIP3   OH245225   2.318   5.071  12.776 -0.5704 -0.1107 -0.0392
 7937TIP3    H145226   2.227   5.100  12.768 -0.7915 -0.8601 -0.3738
 7937TIP3    H245227   2.366   5.124  12.713 -0.9392 -0.3636 -0.5373
 7938TIP3   OH245228   5.224   2.979   4.992  0.3897  0.3908 -0.1273
 7938TIP3    H145229   5.306   2.935   5.014  0.6025  0.9598  0.2279
 7938TIP3    H245230   5.157   2.911   5.001  0.9104 -0.2546 -1.1207
 7939TIP3   OH245231   4.890   4.640   3.517  0.1992  0.5101  0.1155
 7939TIP3    H145232   4.833   4.716   3.528 -0.2158 -0.1286  2.8638
 7939TIP3    H245233   4.934   4.631   3.602  1.8207 -1.0475 -0.8638
 7940TIP3   OH245234   3.650   4.921   4.257 -0.1332 -0.4089  0.4780
 7940TIP3    H145235   3.677   4.995   4.311 -0.3452 -0.5095  0.7208
 7940TIP3    H245236   3.724   4.860   4.263  0.1918 -0.0661 -0.0068
 7941TIP3   OH245237   1.187   3.546   5.455  0.2749 -0.0559 -0.4933
 7941TIP3    H145238   1.269   3.551   5.505 -0.4606 -1.0581  0.8049
 7941TIP3    H245239   1.154   3.458   5.470 -0.0733 -0.3176 -2.5854
 7942TIP3   OH245240   6.493   3.360   2.667  0.3984  0.3897  0.5153
 7942TIP3    H145241   6.405   3.394   2.683  0.0753 -0.5381  0.7212
 7942TIP3    H245242   6.539   3.431   2.622 -0.5044  0.8089  0.2615
 7943TIP3   OH245243   5.456   1.399  16.615 -0.5946  0.6177  0.0437
 7943TIP3    H145244   5.514   1.448  16.557 -0.2592 -3.6504 -3.4596
 7943TIP3    H245245   5.514   1.343  16.666 -1.1640  1.9306  2.2234
 7944TIP3   OH245246   1.035   1.541   5.771 -0.5035 -0.2811 -0.6677
 7944TIP3    H145247   1.021   1.493   5.690 -1.0485 -2.1616  0.5179
 7944TIP3    H245248   1.130   1.554   5.775 -0.5535  0.6591 -2.0430
 7945TIP3   OH245249   5.151   1.021  16.936  0.0571  0.3735  0.1608
 7945TIP3    H145250   5.099   1.050  16.862  1.8840  0.6443 -1.0490
 7945TIP3    H245251   5.131   0.927  16.944 -0.1431  0.3393 -0.6966
 7946TIP3   OH245252   6.714   4.886  11.978  0.1965 -0.8408 -0.1925
 7946TIP3    H145253   6.675   4.914  11.896  0.8838 -1.7432 -0.8510
 7946TIP3    H245254   6.787   4.830  11.951  0.3509 -1.2427  1.0348
 7947TIP3   OH245255   1.868   2.152  11.540 -0.6122 -0.3105  0.3042
 7947TIP3    H145256   1.853   2.238  11.500  2.2935  1.0568  1.9171
 7947TIP3    H245257   1.895   2.173  11.630  0.7838 -2.8810  0.5236
 7948TIP3   OH245258   6.366   0.263   3.658 -0.0133  0.1711 -0.2675
 7948TIP3    H145259   6.348   0.257   3.752  0.1246  1.1121 -0.1733
 7948TIP3    H245260   6.435   0.198   3.642 -1.2276 -1.1954 -0.0372
 7949TIP3   OH245261   1.937   4.802   4.897 -0.1773 -0.1681  0.0461
 7949TIP3    H145262   2.019   4.850   4.909 -0.6890  0.3511  1.5240
 7949TIP3    H245263   1.870   4.861   4.931 -1.0412 -1.0621 -0.1064
 7950TIP3   OH245264   5.538   0.340   2.033  0.2012 -0.3283 -0.1967
 7950TIP3    H145265   5.471   0.362   2.097 -0.3343 -1.4772 -0.3555
 7950TIP3    H245266   5.620   0.339   2.083  0.0739  0.8740  0.0340
 7951TIP3   OH245267   4.093   5.599  10.980 -1.1307  0.1754  0.0098
 7951TIP3    H145268   4.078   5.575  10.888 -0.9290  0.2148 -0.0333
 7951TIP3    H245269   4.175   5.557  11.003 -2.0796 -1.3360  0.7237
 7952TIP3   OH245270   0.931   0.234  16.432  0.3102  0.1559  0.0200
 7952TIP3    H145271   0.962   0.317  16.397 -0.3490  0.8122  0.9733
 7952TIP3    H245272   0.847   0.219  16.388 -0.3378  0.7951  1.0217
 7953TIP3   OH245273   3.594   5.373  13.833  0.3215  0.3439 -0.0517
 7953TIP3    H145274   3.586   5.438  13.902  2.6969 -1.0842  1.6159
 7953TIP3    H245275   3.558   5.293  13.870  1.0776 -0.2889 -0.6537
 7954TIP3   OH245276   5.363   1.733  10.386  0.4441 -0.2688  0.2987
 7954TIP3    H145277   5.280   1.716  10.431  0.2757  0.1700  0.1534
 7954TIP3    H245278   5.347   1.703  10.296  0.3767  0.0008  0.2207
 7955TIP3   OH245279   0.021   5.308  11.571 -0.4528  0.0635  0.4584
 7955TIP3    H145280  -0.064   5.314  11.528 -0.3475 -0.4061  0.1805
 7955TIP3    H245281   0.074   5.375  11.529 -0.1513 -0.8309 -0.6028
 7956TIP3   OH245282   1.842   4.516  11.759  0.1836  0.7156  0.0650
 7956TIP3    H145283   1.793   4.597  11.746  0.9971  1.4248  1.3142
 7956TIP3    H245284   1.856   4.511  11.853  1.8857  0.1588 -0.1961
 7957TIP3   OH245285   0.174   6.553   4.530 -0.0542  0.2758  0.1730
 7957TIP3    H145286   0.088   6.517   4.508 -0.3361 -1.4738  3.7424
 7957TIP3    H245287   0.234   6.508   4.471 -1.2576 -0.6370 -0.3835
 7958TIP3   OH245288   1.631   4.108  12.377 -0.0982 -0.8860 -0.0941
 7958TIP3    H145289   1.635   4.141  12.288 -2.0586 -1.1884 -0.3018
 7958TIP3    H245290   1.539   4.113  12.401  0.2461 -1.8368  1.5263
 7959TIP3   OH245291   0.746   3.182   5.092  0.3781 -0.7276  0.0670
 7959TIP3    H145292   0.702   3.210   5.011  0.0678 -2.3729 -0.3489
 7959TIP3    H245293   0.769   3.091   5.076  0.0696 -1.1438  1.9682
 7960TIP3   OH245294   6.538   0.054  11.358  0.8371  0.1469 -0.1542
 7960TIP3    H145295   6.628   0.063  11.390  0.5719  0.8281  0.4352
 7960TIP3    H245296   6.546   0.058  11.263  1.2713  2.0851 -0.0758
 7961TIP3   OH245297   2.732   3.222   1.372 -0.5732  0.0706  0.6616
 7961TIP3    H145298   2.751   3.182   1.287 -1.6021  1.0425 -0.0340
 7961TIP3    H245299   2.779   3.167   1.435  1.2446  0.0907 -0.6444
 7962TIP3   OH245300   0.172   4.973  10.668  0.9461 -0.5487  0.1883
 7962TIP3    H145301   0.109   5.023  10.720 -0.0152 -1.0385 -0.4920
 7962TIP3    H245302   0.248   5.030  10.663 -0.5163  1.3432 -1.4593
 7963TIP3   OH245303   4.942   2.534  16.073 -0.0067 -0.0551 -0.2306
 7963TIP3    H145304   4.853   2.522  16.104  0.3807  2.0997  1.8193
 7963TIP3    H245305   4.939   2.616  16.023  0.5881 -0.5720 -1.1251
 7964TIP3   OH245306   0.228   4.067   0.207 -0.1600 -0.6288  0.6963
 7964TIP3    H145307   0.203   4.076   0.115 -1.2061  2.5279  1.2405
 7964TIP3    H245308   0.324   4.067   0.207 -0.1577 -1.1126 -0.4061
 7965TIP3   OH245309   4.964   4.803  11.127  0.4345  0.5121 -0.0213
 7965TIP3    H145310   4.942   4.837  11.041 -1.3405 -1.3989 -0.3730
 7965TIP3    H245311   5.008   4.719  11.109  2.8668  1.5368  0.8699
 7966TIP3   OH245312   2.025   6.733   3.273  0.9648 -0.2780  0.5884
 7966TIP3    H145313   2.042   6.693   3.188  0.3213  1.2726 -0.2728
 7966TIP3    H245314   1.951   6.682   3.308  0.8637 -0.5505 -0.0155
 7967TIP3   OH245315   0.149   4.745   3.070 -0.6765 -0.7718 -0.4396
 7967TIP3    H145316   0.077   4.685   3.052 -2.0340  0.4946  0.6363
 7967TIP3    H245317   0.134   4.775   3.160  0.4425  0.5186 -0.6623
 7968TIP3   OH245318   6.210   1.702   5.386 -0.4905  0.6690 -0.1855
 7968TIP3    H145319   6.174   1.613   5.385  0.3276  0.3282 -0.1284
 7968TIP3    H245320   6.297   1.692   5.424 -0.5416  1.5592  0.1884
 7969TIP3   OH245321   5.641   0.980  12.093 -0.2089 -0.3959 -0.6698
 7969TIP3    H145322   5.663   0.887  12.088  0.8520 -0.1521 -0.6241
 7969TIP3    H245323   5.599   0.999  12.009  1.3139 -0.4757 -1.4579
 7970TIP3   OH245324   4.648   0.577   2.869 -0.1869  0.4386 -0.1065
 7970TIP3    H145325   4.729   0.531   2.851 -0.0499  0.0667  1.3828
 7970TIP3    H245326   4.605   0.525   2.937 -1.8846  0.3860 -1.1752
 7971TIP3   OH245327   3.884   4.067   5.352 -0.4357 -0.3151 -0.6923
 7971TIP3    H145328   3.908   4.152   5.389  1.0633 -0.6196 -0.9602
 7971TIP3    H245329   3.790   4.061   5.368 -0.4293  1.0670 -0.0009
 7972TIP3   OH245330   2.811   4.292  14.496  0.5210  0.4282  0.4658
 7972TIP3    H145331   2.880   4.352  14.523  1.5939 -0.4101 -0.3745
 7972TIP3    H245332   2.843   4.205  14.521  0.6079 -0.1499 -1.6011
 7973TIP3   OH245333   5.414   6.777   5.805  0.6583  0.4034  0.2057
 7973TIP3    H145334   5.353   6.779   5.731  0.2652  1.4717  0.5457
 7973TIP3    H245335   5.498   6.804   5.767  0.6809 -0.0312 -0.0520
 7974TIP3   OH245336   3.552   0.009   2.872 -0.1577  0.2587 -0.2799
 7974TIP3    H145337   3.484  -0.053   2.898 -0.1974 -0.0754 -1.1713
 7974TIP3    H245338   3.605  -0.039   2.808  0.2855  0.8771 -0.3794
 7975TIP3   OH245339   3.428   2.756   1.630  0.1559 -0.4740  0.1269
 7975TIP3    H145340   3.515   2.797   1.624  0.4539 -1.1346 -0.0864
 7975TIP3    H245341   3.441   2.666   1.600 -0.3583 -0.9292  1.2130
 7976TIP3   OH245342   4.835   6.283   5.314  0.6648 -0.1714  0.5342
 7976TIP3    H145343   4.745   6.308   5.337  0.4021 -1.7412  1.2772
 7976TIP3    H245344   4.852   6.205   5.366  1.0356 -2.2569 -2.5418
 7977TIP3   OH245345   2.123   2.444  16.890  0.0925  0.5868 -0.3588
 7977TIP3    H145346   2.162   2.399  16.815 -0.3121 -0.2735 -0.0608
 7977TIP3    H245347   2.151   2.535  16.881 -0.3467  0.6000 -1.8287
 7978TIP3   OH245348   2.403   5.408  13.571  0.1017 -0.2859 -0.1993
 7978TIP3    H145349   2.336   5.365  13.625  1.5141 -0.2293  1.6775
 7978TIP3    H245350   2.436   5.479  13.627  1.8688 -0.4630 -0.9872
 7979TIP3   OH245351   3.016   0.323  16.513  0.1240  0.5833 -0.1152
 7979TIP3    H145352   3.062   0.351  16.434 -0.8750 -0.2970 -1.0140
 7979TIP3    H245353   2.971   0.243  16.488 -2.0851  1.5443  0.6869
 7980TIP3   OH245354   2.417   2.160  12.887  0.3560  0.0794 -0.1740
 7980TIP3    H145355   2.467   2.152  12.805  1.6470  0.7310  0.5289
 7980TIP3    H245356   2.335   2.115  12.869  1.1431 -0.9242 -1.4117
 7981TIP3   OH245357   5.302   1.172  13.297  0.2760  0.1641 -0.1612
 7981TIP3    H145358   5.385   1.149  13.338  1.1675  0.9417 -1.5345
 7981TIP3    H245359   5.246   1.197  13.371  0.1710 -3.4567  1.1398
 7982TIP3   OH245360   6.025   6.052  15.639 -0.1753  0.1125 -0.9194
 7982TIP3    H145361   6.061   6.123  15.691 -1.3103  2.5605 -3.3336
 7982TIP3    H245362   6.090   5.982  15.644  1.7789  1.9818  0.1071
 7983TIP3   OH245363   2.140   2.768  13.385  0.3858  0.0131 -0.3005
 7983TIP3    H145364   2.196   2.731  13.453 -1.1495 -2.0989 -0.1279
 7983TIP3    H245365   2.051   2.753  13.416 -0.3513  3.3413 -0.5464
 7984TIP3   OH245366   2.811   0.948   1.114 -0.4123  0.5669  0.0204
 7984TIP3    H145367   2.754   0.873   1.100  0.5311 -0.5463  1.9107
 7984TIP3    H245368   2.878   0.941   1.046 -1.3554  0.7211 -0.9215
 7985TIP3   OH245369   6.513   0.125  15.288  0.2376  0.4379  0.2735
 7985TIP3    H145370   6.503   0.182  15.211 -0.6910 -2.0934 -1.5379
 7985TIP3    H245371   6.436   0.145  15.341 -2.0601 -1.6434 -2.1127
 7986TIP3   OH245372   3.091   3.295  14.957  0.2155  0.1440  0.3483
 7986TIP3    H145373   3.050   3.295  15.043  0.2196 -2.0969  0.3710
 7986TIP3    H245374   3.185   3.289  14.975  0.2679  0.4910  0.1973
 7987TIP3   OH245375   1.249   2.094   4.192  0.3324 -0.5485 -0.1553
 7987TIP3    H145376   1.177   2.132   4.242  0.2488  0.3972 -0.9779
 7987TIP3    H245377   1.317   2.076   4.257  0.1215  0.4019  0.3363
 7988TIP3   OH245378   4.578   0.562  13.057  0.0272 -0.2300 -0.7444
 7988TIP3    H145379   4.560   0.650  13.090 -1.4096 -0.2921 -1.3299
 7988TIP3    H245380   4.530   0.557  12.974  2.0273 -0.7477 -1.9055
 7989TIP3   OH245381   0.859   0.314  13.798  0.0553  0.4207 -0.4624
 7989TIP3    H145382   0.827   0.302  13.887 -0.6992  0.8688 -0.6718
 7989TIP3    H245383   0.888   0.405  13.795  0.2257  0.3614 -0.6301
 7990TIP3   OH245384   0.775   1.816  17.026 -0.3085 -0.1954  0.2723
 7990TIP3    H145385   0.829   1.820  16.947 -2.7353  2.3510 -1.3560
 7990TIP3    H245386   0.795   1.897  17.073 -2.6372  0.7823 -0.3530
 7991TIP3   OH245387   2.676   5.357  15.672 -0.2831  0.5906  0.0622
 7991TIP3    H145388   2.696   5.284  15.614 -0.0061 -0.6725  1.7135
 7991TIP3    H245389   2.760   5.380  15.713 -0.7261  0.4900  1.0621
 7992TIP3   OH245390   1.686   1.987   2.684  0.2272 -0.0435 -0.6635
 7992TIP3    H145391   1.680   1.999   2.589 -1.3148 -0.8590 -0.6932
 7992TIP3    H245392   1.666   2.073   2.720 -1.5385 -0.2709 -1.0462
 7993TIP3   OH245393   5.471   4.076  13.678  0.4966 -0.0226  1.1582
 7993TIP3    H145394   5.513   4.096  13.595  3.1939 -0.2872  2.4280
 7993TIP3    H245395   5.461   4.161  13.721  0.4019 -0.0437  1.1781
 7994TIP3   OH245396   4.350   3.676  12.916 -0.0565 -0.3393 -0.3559
 7994TIP3    H145397   4.418   3.663  12.982 -0.3591  2.3090  0.5518
 7994TIP3    H245398   4.396   3.672  12.833  0.7864 -1.1131  0.1476
 7995TIP3   OH245399   2.492   1.815  12.837  0.1172 -0.2963  0.6710
 7995TIP3    H145400   2.404   1.851  12.847 -0.1089 -0.7236  0.2693
 7995TIP3    H245401   2.498   1.746  12.903  0.4067  0.2193  1.1750
 7996TIP3   OH245402   1.078   3.784  12.007  0.0403  0.4903 -0.0466
 7996TIP3    H145403   1.136   3.858  11.988  0.6719 -0.3088 -1.2888
 7996TIP3    H245404   1.135   3.707  12.001 -0.8062 -0.1744  0.3652
 7997TIP3   OH245405   3.641   5.654   3.452 -0.1161 -0.1538 -0.2107
 7997TIP3    H145406   3.733   5.649   3.480 -0.3420 -1.3170  0.3653
 7997TIP3    H245407   3.633   5.740   3.411  1.5668 -0.5643 -1.4451
 7998TIP3   OH245408   2.620   4.722  12.354 -0.0540  1.2150  0.1463
 7998TIP3    H145409   2.565   4.661  12.305  0.2672  1.6501 -0.7780
 7998TIP3    H245410   2.559   4.770  12.411 -0.3476  0.2649  0.6311
 7999TIP3   OH245411   3.069   0.244  11.243 -0.3674 -0.2256  0.1578
 7999TIP3    H145412   3.105   0.330  11.263 -0.2224 -0.5067  1.1020
 7999TIP3    H245413   2.975   0.252  11.257 -0.4165 -0.0824 -0.2484
 8000TIP3   OH245414   6.447   2.997   3.407  0.2342  0.4708  0.1391
 8000TIP3    H145415   6.383   2.961   3.469  0.3078 -0.2959 -0.2356
 8000TIP3    H245416   6.532   2.977   3.446  0.3037 -1.0586 -0.8019
 8001TIP3   OH245417   1.867   1.587   4.313 -0.0415  0.3609  0.3658
 8001TIP3    H145418   1.892   1.496   4.294 -0.0182  0.5054 -0.3132
 8001TIP3    H245419   1.922   1.612   4.387  1.3388  0.4437 -0.6673
 8002TIP3   OH245420   4.151   1.487  13.719 -0.3217  0.4802 -0.0134
 8002TIP3    H145421   4.096   1.437  13.658 -0.1632 -1.5501  1.4454
 8002TIP3    H245422   4.239   1.452  13.707  0.5555  3.0814 -1.6635
 8003TIP3   OH245423   2.472   4.004  15.572 -0.2473  0.2799 -0.1664
 8003TIP3    H145424   2.492   3.978  15.661 -0.2693 -0.7338 -0.4562
 8003TIP3    H245425   2.496   4.097  15.568  2.0243 -0.2503  0.2170
 8004TIP3   OH245426   4.829   6.423  11.335 -0.8615 -0.4934 -0.5013
 8004TIP3    H145427   4.861   6.430  11.425 -1.1405 -1.0241 -0.3568
 8004TIP3    H245428   4.816   6.329  11.321  1.9920 -0.7161 -2.1011
 8005TIP3   OH245429   2.990   5.031  14.981  0.0941  0.0283 -0.2249
 8005TIP3    H145430   2.901   5.015  14.948  0.9705 -0.8598 -2.2392
 8005TIP3    H245431   3.015   4.950  15.025  1.2629 -1.0859 -2.8623
 8006TIP3   OH245432   3.467   2.248  13.348 -0.2325  0.2844  0.0159
 8006TIP3    H145433   3.383   2.228  13.307  0.5647 -1.0784 -0.9649
 8006TIP3    H245434   3.448   2.247  13.442 -0.7504 -2.7657 -0.0726
 8007TIP3   OH245435   4.532   0.343  13.507 -0.3227  0.3032 -0.0237
 8007TIP3    H145436   4.556   0.294  13.586 -1.6838  0.4620  0.5009
 8007TIP3    H245437   4.438   0.359  13.516 -0.3120  1.1314 -1.2367
 8008TIP3   OH245438   6.355   3.282  14.283 -0.0337 -0.4259 -0.4044
 8008TIP3    H145439   6.282   3.293  14.222  0.2008  0.7250 -0.4839
 8008TIP3    H245440   6.320   3.226  14.353 -0.4612 -1.3038 -1.3133
 8009TIP3   OH245441   5.384   4.859  13.588 -0.7478 -0.2879 -0.5207
 8009TIP3    H145442   5.298   4.891  13.615 -1.2640 -0.3436 -2.0935
 8009TIP3    H245443   5.374   4.764  13.583  0.5930 -0.7629  3.4517
 8010TIP3   OH245444   3.866   1.711  14.572  0.5248 -0.4996 -0.3898
 8010TIP3    H145445   3.883   1.771  14.645 -1.6040 -1.2823  0.7778
 8010TIP3    H245446   3.783   1.670  14.594  0.7510 -2.0722 -2.4012
 8011TIP3   OH245447   6.674   5.345   4.901 -0.4825 -0.3000  0.5126
 8011TIP3    H145448   6.712   5.379   4.820 -2.3217  2.2748  0.6803
 8011TIP3    H245449   6.677   5.419   4.962 -2.1106 -1.2319  1.7611
 8012TIP3   OH245450   1.012   4.860   3.773  0.2320 -0.0667  0.1327
 8012TIP3    H145451   1.094   4.864   3.725  0.7883 -0.0867  1.0850
 8012TIP3    H245452   0.945   4.853   3.705  1.0507 -0.6528 -0.6169
 8013TIP3   OH245453   0.716   0.345   2.533  0.3204 -0.9318 -0.2452
 8013TIP3    H145454   0.720   0.422   2.477 -0.6812 -1.3055 -0.8391
 8013TIP3    H245455   0.691   0.274   2.475  1.8668 -1.8420  0.1831
 8014TIP3   OH245456   3.972   1.038  10.993 -0.2391  0.2346 -0.0870
 8014TIP3    H145457   4.019   1.097  11.052 -0.9222  1.1532 -0.4531
 8014TIP3    H245458   3.898   1.006  11.044 -0.4523  0.5121 -0.2155
 8015TIP3   OH245459   5.013   4.540  15.438  0.2199 -0.1399  0.3532
 8015TIP3    H145460   4.985   4.507  15.353  1.6011 -1.4193  0.3729
 8015TIP3    H245461   4.951   4.502  15.500  0.7624 -1.3491  0.1816
 8016TIP3   OH245462   2.498   2.525  16.910 -0.4246  0.4500  0.0999
 8016TIP3    H145463   2.492   2.479  16.827  0.3242  1.8582 -0.7544
 8016TIP3    H245464   2.590   2.517  16.935 -0.1380  2.0460 -0.4002
 8017TIP3   OH245465   1.180   2.957   3.672  0.0224  0.2427  0.3666
 8017TIP3    H145466   1.235   2.892   3.629 -1.1730 -0.8752  0.5083
 8017TIP3    H245467   1.120   2.988   3.604 -2.4445 -2.1569  1.3762
 8018TIP3   OH245468   4.687   3.902  11.479 -0.4970  0.3511 -0.2918
 8018TIP3    H145469   4.596   3.894  11.448 -0.1688 -0.5231 -1.0315
 8018TIP3    H245470   4.691   3.844  11.556 -0.3871 -0.1212 -0.6525
 8019TIP3   OH245471   4.359   0.925  14.369 -0.0597 -0.1245  0.2516
 8019TIP3    H145472   4.351   0.876  14.451  0.1797 -1.0862 -0.3052
 8019TIP3    H245473   4.450   0.955  14.368 -0.3275  0.7570  0.8183
 8020TIP3   OH245474   0.633   5.763   4.129 -0.1067 -0.1250  0.3301
 8020TIP3    H145475   0.722   5.800   4.127 -0.6108  1.1004  0.2459
 8020TIP3    H245476   0.576   5.839   4.130 -1.1938 -0.9162 -0.7757
 8021TIP3   OH245477   3.341   4.721  15.864  0.7369 -1.0418 -0.5461
 8021TIP3    H145478   3.384   4.806  15.850 -0.0331 -0.7724 -1.3560
 8021TIP3    H245479   3.274   4.717  15.795 -0.7382 -1.3076  0.8659
 8022TIP3   OH245480   2.170   2.529   3.099  0.4252 -0.0562 -0.4683
 8022TIP3    H145481   2.095   2.472   3.115  0.2739 -0.0673 -1.2110
 8022TIP3    H245482   2.152   2.607   3.153  0.9118 -0.9240  0.9858
 8023TIP3   OH245483   3.750   3.617  12.233  0.2574  0.2624  0.2399
 8023TIP3    H145484   3.695   3.676  12.284  1.0709  0.6824  0.6385
 8023TIP3    H245485   3.798   3.566  12.298 -1.6192 -1.9816 -0.0825
 8024TIP3   OH245486   6.126   5.408  11.610  0.5974 -0.0712 -0.1730
 8024TIP3    H145487   6.208   5.450  11.637  0.2562  0.8122 -0.5061
 8024TIP3    H245488   6.070   5.480  11.583 -0.9503 -0.5160  1.7329
 8025TIP3   OH245489   4.902   4.386   0.193 -0.3864 -0.1428  0.0908
 8025TIP3    H145490   4.908   4.410   0.101 -0.1683  0.6552  0.3072
 8025TIP3    H245491   4.969   4.319   0.205  0.8467  1.0570  0.0750
 8026TIP3   OH245492   5.646   4.971  12.011  0.0380  0.5982 -0.3999
 8026TIP3    H145493   5.577   4.955  12.075  0.1028 -1.7984 -0.8697
 8026TIP3    H245494   5.727   4.964  12.061  0.0250  0.6673 -0.3672
 8027TIP3   OH245495   6.612   0.805   2.703 -0.2269  0.1647 -0.5055
 8027TIP3    H145496   6.588   0.732   2.646  0.1431  0.4823 -1.0750
 8027TIP3    H245497   6.529   0.837   2.738 -0.2922 -1.3995  0.8455
 8028TIP3   OH245498   4.014   3.155  16.326 -0.0108 -0.2482  0.1458
 8028TIP3    H145499   4.015   3.213  16.401  1.3196 -2.1813  1.6666
 8028TIP3    H245500   3.923   3.126  16.320 -0.3972  0.9477  0.1896
 8029TIP3   OH245501   2.385   0.786  16.067 -0.3852  0.0598 -0.7167
 8029TIP3    H145502   2.345   0.824  16.145  0.5488  1.5954 -0.9578
 8029TIP3    H245503   2.361   0.693  16.070 -1.0092  0.2601  0.9688
 8030TIP3   OH245504   6.581   5.294   3.233  0.4178  0.6535  0.3974
 8030TIP3    H145505   6.507   5.241   3.262 -0.2314  1.2272 -0.1961
 8030TIP3    H245506   6.578   5.371   3.289  0.7118  0.5699  0.5291
 8031TIP3   OH245507   4.156   2.995   1.430 -0.3150  0.5764 -0.3256
 8031TIP3    H145508   4.224   2.999   1.363  0.0974 -0.7268 -0.0120
 8031TIP3    H245509   4.076   2.975   1.381 -0.3365  1.3771 -0.6168
 8032TIP3   OH245510   6.092   1.348  12.895 -0.3824 -0.5011  0.2884
 8032TIP3    H145511   6.015   1.394  12.929  0.1602 -0.7977  1.9544
 8032TIP3    H245512   6.117   1.288  12.965  1.6559 -0.0646 -0.0310
 8033TIP3   OH245513   4.403   0.671   2.063  0.4891  0.0615  0.1168
 8033TIP3    H145514   4.334   0.720   2.019  0.3739  0.8936  1.2040
 8033TIP3    H245515   4.360   0.590   2.092  0.2133  0.1494 -0.0419
 8034TIP3   OH245516   2.498   5.888  13.947  0.3244  0.2251 -0.1587
 8034TIP3    H145517   2.571   5.864  13.891  1.3608  0.2884  1.1353
 8034TIP3    H245518   2.518   5.846  14.031 -0.4907  1.2934  0.5744
 8035TIP3   OH245519   1.096   2.890  13.322 -0.0721  0.3320  0.9008
 8035TIP3    H145520   1.128   2.803  13.349  1.2213  0.6623  0.4485
 8035TIP3    H245521   1.026   2.909  13.385 -1.1892 -1.5566  0.2837
 8036TIP3   OH245522   1.904   5.867   3.129  0.2390 -0.6039  0.1268
 8036TIP3    H145523   1.813   5.893   3.143  0.1127  0.5732 -2.6979
 8036TIP3    H245524   1.898   5.786   3.078  0.8000 -0.1697 -0.6205
 8037TIP3   OH245525   1.641   5.779  12.898  0.1756 -0.5879  0.8261
 8037TIP3    H145526   1.610   5.703  12.849  0.4226 -0.3342  0.2714
 8037TIP3    H245527   1.678   5.837  12.831 -1.2446  0.6335  1.0693
 8038TIP3   OH245528   0.327   3.269   6.030  0.2358 -0.3379  0.9986
 8038TIP3    H145529   0.287   3.340   6.079  2.3593  1.1138  0.6991
 8038TIP3    H245530   0.290   3.277   5.942 -0.4555 -0.3999  1.2758
 8039TIP3   OH245531   4.867   2.993   0.168 -0.7369  0.0935 -0.1421
 8039TIP3    H145532   4.830   2.990   0.079 -1.3045 -0.7439  0.1146
 8039TIP3    H245533   4.853   2.904   0.202 -0.6481  0.4526  0.8344
 8040TIP3   OH245534   3.412   6.515   3.698  0.1149  0.0452 -0.5608
 8040TIP3    H145535   3.486   6.455   3.686 -1.3180 -1.6838 -1.0951
 8040TIP3    H245536   3.452   6.601   3.711  2.2096 -0.8836 -0.6574
 8041TIP3   OH245537   3.707   0.635   0.990 -0.0098  0.2349 -0.7220
 8041TIP3    H145538   3.640   0.567   0.996 -0.2054  0.5769  1.1369
 8041TIP3    H245539   3.772   0.611   1.055  0.5779  1.1107 -0.9732
 8042TIP3   OH245540   6.568   5.926  11.612 -0.1564  0.5795  0.2409
 8042TIP3    H145541   6.641   5.891  11.561  0.5405  1.0879  0.8825
 8042TIP3    H245542   6.547   6.009  11.571 -0.7634  0.1660 -0.3006
 8043TIP3   OH245543   2.584   5.866  14.215 -0.0896 -0.2867  0.3537
 8043TIP3    H145544   2.564   5.940  14.273 -0.3817  0.1800 -0.3426
 8043TIP3    H245545   2.670   5.835  14.245 -0.0067  0.2796  0.7085
 8044TIP3   OH245546   5.034   6.681   5.233  0.1774 -0.3199  0.5610
 8044TIP3    H145547   5.096   6.619   5.270 -0.3555 -1.0601  0.2196
 8044TIP3    H245548   4.963   6.685   5.297  0.3027  0.0935  0.6775
 8045TIP3   OH245549   1.026   6.342  13.931  0.0622 -0.1469  0.2823
 8045TIP3    H145550   1.060   6.308  13.848  0.7962  1.1387  0.0364
 8045TIP3    H245551   1.095   6.399  13.964  0.0411 -1.1504  2.1171
 8046TIP3   OH245552   3.457   1.436   2.201  0.0649 -0.3398 -0.7708
 8046TIP3    H145553   3.407   1.443   2.120  0.0668 -2.1354 -0.9538
 8046TIP3    H245554   3.397   1.466   2.269  1.3065  4.8402 -1.7958
 8047TIP3   OH245555   0.128   2.666  11.952 -0.0852  0.2270  0.2578
 8047TIP3    H145556   0.113   2.652  12.046 -1.4087 -0.1152  0.0003
 8047TIP3    H245557   0.056   2.722  11.924 -1.2629 -1.8760 -1.1054
 8048TIP3   OH245558   6.220   5.149  14.025  0.3790  0.4696  0.4133
 8048TIP3    H145559   6.255   5.101  13.951  1.0152  0.9406  0.4057
 8048TIP3    H245560   6.224   5.087  14.098 -2.2144 -0.7080 -0.3922
 8049TIP3   OH245561   1.712   4.524  16.370  0.1635 -0.0347 -0.1815
 8049TIP3    H145562   1.620   4.550  16.375 -0.4116 -1.8915 -0.9416
 8049TIP3    H245563   1.724   4.465  16.444  0.7613  0.2149 -0.0764
 8050TIP3   OH245564   4.236   6.713   3.314 -0.3111  0.3502  0.2586
 8050TIP3    H145565   4.244   6.764   3.233  1.1520  0.7367  0.6325
 8050TIP3    H245566   4.251   6.622   3.286 -1.8582  0.2142 -0.2255
 8051TIP3   OH245567   2.519   6.624  13.164 -0.2580  0.3974 -0.4539
 8051TIP3    H145568   2.445   6.673  13.200  0.0012  0.9477 -0.6494
 8051TIP3    H245569   2.594   6.683  13.175  0.5440 -0.9456  1.5535
 8052TIP3   OH245570   5.020   3.117  14.556  0.0616 -0.1531 -0.2804
 8052TIP3    H145571   5.060   3.070  14.629  0.6257  0.9855  0.1452
 8052TIP3    H245572   5.000   3.048  14.492  2.7814 -0.7527 -0.5466
 8053TIP3   OH245573   0.189   5.726  14.775 -0.5110  0.1504  0.2954
 8053TIP3    H145574   0.201   5.786  14.849  3.5965  1.2836 -1.1351
 8053TIP3    H245575   0.140   5.777  14.711 -0.8337  0.4647  0.7877
 8054TIP3   OH245576   5.696   2.839  14.737  0.2207  0.3607  0.3719
 8054TIP3    H145577   5.685   2.922  14.785  2.4579  0.8371  0.0802
 8054TIP3    H245578   5.689   2.772  14.805  1.0017  0.9112  1.0075
 8055TIP3   OH245579   0.617   1.834  15.739 -0.4637 -0.6508 -0.1812
 8055TIP3    H145580   0.702   1.869  15.768 -0.0990 -1.4490 -0.2631
 8055TIP3    H245581   0.553   1.878  15.795  0.2230 -2.0736  1.7537
 8056TIP3   OH245582   3.877   0.301   2.198  0.4788  0.2971 -0.2572
 8056TIP3    H145583   3.900   0.223   2.248  0.8984  0.7429  0.2534
 8056TIP3    H245584   3.956   0.323   2.150 -0.0962 -0.4604 -1.5692
 8057TIP3   OH245585   4.129   2.196  13.717 -0.4967  0.2879  0.5103
 8057TIP3    H145586   4.150   2.134  13.647 -2.1940  2.0536 -1.6402
 8057TIP3    H245587   4.195   2.180  13.784  0.6017 -2.1069 -1.0803
 8058TIP3   OH245588   5.127   0.802  12.198 -0.1506  0.7000 -0.1512
 8058TIP3    H145589   5.078   0.844  12.127 -0.5784 -0.7483 -0.7278
 8058TIP3    H245590   5.092   0.841  12.278 -0.4930  1.4930 -0.6813
 8059TIP3   OH245591   0.845   4.827   4.284  0.4718  0.6960  0.1788
 8059TIP3    H145592   0.756   4.799   4.264  1.2937 -2.2303  0.3833
 8059TIP3    H245593   0.880   4.857   4.200  0.2620 -1.0607 -0.5732
 8060TIP3   OH245594   1.969   0.410  12.580  0.4444  0.0371  0.4459
 8060TIP3    H145595   1.938   0.379  12.495 -0.5818  1.3403  0.3205
 8060TIP3    H245596   1.915   0.363  12.644 -0.1118  0.4812  0.3067
 8061TIP3   OH245597   3.366   3.602   0.930  0.1373 -0.1284 -0.0300
 8061TIP3    H145598   3.312   3.680   0.943 -0.7312 -0.8836  0.9324
 8061TIP3    H245599   3.392   3.576   1.018 -0.0998 -1.2919 -0.3004
 8062TIP3   OH245600   3.957   3.822   4.019 -0.1479  0.3447  0.1268
 8062TIP3    H145601   3.937   3.907   4.059  3.0439  0.6957  1.0770
 8062TIP3    H245602   3.961   3.761   4.093 -0.4617 -0.2697 -0.3554
 8063TIP3   OH245603   3.864   5.684  12.255  0.4394  0.2940 -0.1187
 8063TIP3    H145604   3.811   5.763  12.254 -0.6428 -0.4391 -2.0519
 8063TIP3    H245605   3.835   5.633  12.179  0.4362 -2.4214  1.6280
 8064TIP3   OH245606   3.077   2.989   4.131 -0.6373 -0.0855 -0.1123
 8064TIP3    H145607   3.064   3.025   4.219 -0.3125  0.1081 -0.1439
 8064TIP3    H245608   2.995   3.010   4.085 -0.3256  0.9168 -0.2298
 8065TIP3   OH245609   2.353   4.485   0.157  0.1787  0.3641 -0.3283
 8065TIP3    H145610   2.447   4.472   0.146  0.3574  1.1776  0.1656
 8065TIP3    H245611   2.343   4.580   0.167 -0.8503  0.4177 -1.7745
 8066TIP3   OH245612   2.721   4.356   2.966  0.7355  0.2790 -0.2244
 8066TIP3    H145613   2.648   4.353   2.905  0.3596 -1.4656  0.2851
 8066TIP3    H245614   2.773   4.431   2.938 -0.9791  1.2329 -0.8864
 8067TIP3   OH245615   1.649   2.610   2.327 -0.3965 -0.1576 -0.0193
 8067TIP3    H145616   1.682   2.644   2.410  0.1791  1.9376 -1.0605
 8067TIP3    H245617   1.554   2.617   2.334 -0.3335  0.3115  0.3595
 8068TIP3   OH245618   1.337   1.173   5.458 -0.1019 -0.5288 -0.4056
 8068TIP3    H145619   1.363   1.247   5.403 -2.4677 -0.0609 -0.9526
 8068TIP3    H245620   1.383   1.187   5.540  1.2586  0.3055 -1.2876
 8069TIP3   OH245621   5.113   0.573  10.759 -0.2273 -0.5914  0.5475
 8069TIP3    H145622   5.142   0.663  10.771 -0.1763 -0.4252 -0.6694
 8069TIP3    H245623   5.079   0.571  10.669  0.8147 -2.0608  0.1636
 8070TIP3   OH245624   0.696   1.380  16.937  0.3078 -0.0116  0.1114
 8070TIP3    H145625   0.744   1.442  16.882  0.4527  0.9093  1.2429
 8070TIP3    H245626   0.756   1.361  17.009 -1.0662  1.2723  1.6194
 8071TIP3   OH245627   6.057   0.720   5.864 -0.2791 -0.2107 -0.9702
 8071TIP3    H145628   5.999   0.786   5.901 -0.1334 -0.6055 -0.0206
 8071TIP3    H245629   6.003   0.640   5.860  0.1549 -0.5518 -0.1789
 8072TIP3   OH245630   5.804   1.262  17.073 -0.3306  0.0753 -0.4584
 8072TIP3    H145631   5.814   1.357  17.067  0.4020  0.1491  1.4162
 8072TIP3    H245632   5.874   1.234  17.133 -0.5485 -1.6408 -0.9640
 8073TIP3   OH245633   0.028   2.223  11.382 -0.1702 -0.5451 -0.2056
 8073TIP3    H145634   0.045   2.142  11.432 -1.2315 -1.0144 -0.5920
 8073TIP3    H245635   0.042   2.293  11.446  0.3348 -1.0493  0.2492
 8074TIP3   OH245636   1.059   2.693  12.545 -0.5015 -0.1689  0.3776
 8074TIP3    H145637   1.118   2.751  12.594  0.7140 -0.6427 -0.4910
 8074TIP3    H245638   0.973   2.734  12.552  0.0933  1.0015  0.9363
 8075TIP3   OH245639   1.227   2.967   2.211  0.1909  0.1234 -0.1581
 8075TIP3    H145640   1.298   2.923   2.165  1.3633  2.3768 -0.5303
 8075TIP3    H245641   1.258   2.976   2.301  1.0190  2.4560 -0.6623
 8076TIP3   OH245642   6.191   2.823   3.836  0.2262  0.2738 -0.1088
 8076TIP3    H145643   6.275   2.870   3.838  0.2996  0.1273  0.4251
 8076TIP3    H245644   6.167   2.814   3.929  0.9403 -2.0347 -0.1018
 8077TIP3   OH245645   1.096   1.644  11.937 -0.4217 -0.1728  0.7616
 8077TIP3    H145646   1.075   1.699  11.862 -0.7791  0.2148  1.1481
 8077TIP3    H245647   1.129   1.563  11.898 -1.4607 -0.3232  0.1755
 8078TIP3   OH245648   6.073   0.930  16.984 -0.0576  0.1702 -0.0467
 8078TIP3    H145649   6.122   0.955  17.062  0.1213 -1.2428  0.3000
 8078TIP3    H245650   6.064   1.012  16.934 -1.4303  1.3947  2.1275
 8079TIP3   OH245651   4.911   5.705   3.389 -0.3135 -0.5959 -0.1670
 8079TIP3    H145652   4.819   5.706   3.362 -0.0031 -0.1263 -1.2191
 8079TIP3    H245653   4.924   5.617   3.426 -1.6582 -0.0398  1.6971
 8080TIP3   OH245654   4.184   0.231   4.332  0.1060 -0.2706  0.0753
 8080TIP3    H145655   4.139   0.284   4.266  0.7102 -0.7155 -0.7105
 8080TIP3    H245656   4.154   0.141   4.315  0.8749 -0.4972 -0.1181
 8081TIP3   OH245657   1.332   5.522   3.997  0.9456 -0.1011  0.4584
 8081TIP3    H145658   1.293   5.607   3.978 -1.8762 -0.7522  2.8552
 8081TIP3    H245659   1.315   5.469   3.920  2.0957  1.2802 -0.7647
 8082TIP3   OH245660   2.857   4.876   0.227 -0.2551 -0.0999  0.0211
 8082TIP3    H145661   2.926   4.817   0.195 -1.4332 -1.2565 -0.4186
 8082TIP3    H245662   2.851   4.945   0.161 -0.3611 -0.6603 -0.5563
 8083TIP3   OH245663   1.537   5.536  16.325  0.1671  0.0640  0.1928
 8083TIP3    H145664   1.551   5.630  16.328  0.7900 -0.0266  0.2758
 8083TIP3    H245665   1.492   5.515  16.407 -1.2304  0.4807 -0.4563
 8084TIP3   OH245666   6.148   0.907  12.868  0.6098 -0.3483 -0.0225
 8084TIP3    H145667   6.241   0.924  12.875  0.1165  2.2338  0.6933
 8084TIP3    H245668   6.115   0.917  12.957 -0.6381  0.6154 -0.5725
 8085TIP3   OH245669   2.721   1.105  12.508 -0.0329 -0.1989 -0.7459
 8085TIP3    H145670   2.731   1.105  12.413 -0.1189  0.6965 -0.7565
 8085TIP3    H245671   2.802   1.064  12.540 -0.0317 -0.5575 -1.2059
 8086TIP3   OH245672   6.585   2.792   2.056 -0.0296  0.4644  0.3111
 8086TIP3    H145673   6.519   2.860   2.067 -0.2023  0.1277  1.3726
 8086TIP3    H245674   6.567   2.754   1.969 -0.8052  0.8238  0.3206
 8087TIP3   OH245675   4.473   4.894  11.424  0.3995  0.4113 -0.9900
 8087TIP3    H145676   4.508   4.980  11.402 -0.3768  0.5237 -1.8187
 8087TIP3    H245677   4.411   4.910  11.494  1.3786  0.3190 -0.0871
 8088TIP3   OH245678   2.451   2.074   5.212  0.3598  0.1160  0.1574
 8088TIP3    H145679   2.446   1.979   5.203  0.1411  0.1872 -0.4778
 8088TIP3    H245680   2.499   2.103   5.134  0.2207  0.5512  0.2344
 8089TIP3   OH245681   6.510   1.160   0.513 -0.5615 -0.4029 -0.7172
 8089TIP3    H145682   6.497   1.197   0.600  1.0397  0.2216 -0.7387
 8089TIP3    H245683   6.422   1.130   0.487 -1.1105 -0.3186  0.9658
 8090TIP3   OH245684   5.068   4.998   2.322  0.4186 -0.2447 -0.2233
 8090TIP3    H145685   5.091   5.090   2.331 -2.0396  0.6049 -2.1159
 8090TIP3    H245686   4.984   4.989   2.367  1.2336 -1.8603  1.0410
 8091TIP3   OH245687   6.093   2.757  17.029 -0.2292 -0.1683  0.2012
 8091TIP3    H145688   6.031   2.822  16.996 -0.8692 -1.1857 -0.6334
 8091TIP3    H245689   6.145   2.805  17.093 -1.2203  0.9620  0.1941
 8092TIP3   OH245690   4.453   1.326   2.262  0.3766 -0.2942 -0.2042
 8092TIP3    H145691   4.528   1.322   2.322 -0.4575 -0.2483  0.8642
 8092TIP3    H245692   4.383   1.365   2.315  0.2525  1.8545 -1.8660
 8093TIP3   OH245693   0.692   2.507   1.667 -0.0116 -0.5350 -0.2627
 8093TIP3    H145694   0.785   2.527   1.676 -0.2593  0.8019 -0.4610
 8093TIP3    H245695   0.681   2.422   1.709  1.1132 -0.2379  0.6636
 8094TIP3   OH245696   3.056   4.134   4.247 -0.0220 -0.6069 -0.2173
 8094TIP3    H145697   2.975   4.126   4.197  1.0401 -0.7405 -1.9590
 8094TIP3    H245698   3.042   4.211   4.302 -2.2791 -2.1069  1.3831
 8095TIP3   OH245699   5.457   4.356  16.973  0.1030 -0.8034  0.1347
 8095TIP3    H145700   5.505   4.415  16.914  0.0308 -0.5154  0.3645
 8095TIP3    H245701   5.524   4.300  17.011  0.2106 -0.6614  0.1541
 8096TIP3   OH245702   4.874   4.449  13.039 -0.4575 -0.2858  0.3088
 8096TIP3    H145703   4.962   4.413  13.052 -0.1912 -1.1964 -3.6539
 8096TIP3    H245704   4.815   4.376  13.058 -0.3094 -0.1490  1.3225
 8097TIP3   OH245705   5.267   3.126  13.320  0.1790 -0.3158  0.2347
 8097TIP3    H145706   5.346   3.180  13.313 -1.3346  1.8694 -0.7859
 8097TIP3    H245707   5.253   3.116  13.414  2.1680 -1.5370  0.4339
 8098TIP3   OH245708   5.520   6.428  13.855 -0.3126 -0.6821 -0.1048
 8098TIP3    H145709   5.557   6.376  13.927 -1.4911  1.9756  2.4810
 8098TIP3    H245710   5.576   6.505  13.850 -1.4138  0.0904 -0.7207
 8099TIP3   OH245711   4.894   2.013  14.988 -0.0425  0.0935 -0.1323
 8099TIP3    H145712   4.799   2.009  15.001 -0.0127 -0.0525  0.0419
 8099TIP3    H245713   4.919   2.100  15.020  0.2411 -0.8142  2.2028
 8100TIP3   OH245714   0.995   6.244   1.772  0.2838  0.0912  0.0261
 8100TIP3    H145715   1.047   6.164   1.779 -1.0780 -0.8071  0.2026
 8100TIP3    H245716   1.017   6.294   1.850  0.5246 -0.5049  0.3440
 8101TIP3   OH245717   2.959   2.820  15.982  0.1320 -0.7650  0.1165
 8101TIP3    H145718   2.988   2.782  15.899  1.7270 -0.3970  0.5004
 8101TIP3    H245719   2.959   2.747  16.043  1.3449 -0.5459  0.3865
 8102TIP3   OH245720   0.294   1.355  12.527  0.1826 -0.2985 -0.5293
 8102TIP3    H145721   0.262   1.445  12.526  0.5406 -0.1626 -0.0177
 8102TIP3    H245722   0.225   1.304  12.485  0.6085  0.4236 -2.1592
 8103TIP3   OH245723   5.897   2.235  14.952  0.6222 -0.5149  0.1318
 8103TIP3    H145724   5.912   2.160  15.009  2.0289  0.3245  0.9161
 8103TIP3    H245725   5.955   2.221  14.877  0.0368 -0.7853 -0.2665
 8104TIP3   OH245726   2.046   1.901  10.757  0.3883 -0.1839  0.4642
 8104TIP3    H145727   2.089   1.886  10.673 -1.4888  1.6524 -0.8866
 8104TIP3    H245728   2.107   1.954  10.807  0.3602  1.1101 -0.8391
 8105TIP3   OH245729   3.575   1.455   5.943 -0.1580 -0.1832 -0.4863
 8105TIP3    H145730   3.549   1.511   6.016  0.2256  0.7157 -1.0297
 8105TIP3    H245731   3.500   1.453   5.885  0.2875  0.8126 -1.0953
 8106TIP3   OH245732   0.328   0.001  14.268  0.6977 -0.0773  0.3675
 8106TIP3    H145733   0.289   0.088  14.266  1.6620  0.3764  0.9792
 8106TIP3    H245734   0.308  -0.033  14.355 -1.0917 -1.1427 -0.4265
 8107TIP3   OH245735   3.963   0.475  13.414 -0.4059  0.0356  0.4669
 8107TIP3    H145736   3.935   0.443  13.328 -0.6485 -1.0981  0.9608
 8107TIP3    H245737   3.885   0.468  13.469  0.3764 -1.5646  1.4117
 8108TIP3   OH245738   3.108   6.065   2.906 -0.1481 -0.1064  0.7128
 8108TIP3    H145739   3.037   6.117   2.869 -0.7898 -0.0335  2.0446
 8108TIP3    H245740   3.108   6.085   2.999  3.4975  2.1314  0.3273
 8109TIP3   OH245741   2.646   4.036   0.271  0.0852  0.0218  0.3661
 8109TIP3    H145742   2.587   4.065   0.340 -0.3571  1.2107 -0.5077
 8109TIP3    H245743   2.633   4.099   0.200  0.7539 -1.0133 -0.6866
 8110TIP3   OH245744   6.459   0.618   2.294 -0.3364 -0.2058 -0.1276
 8110TIP3    H145745   6.499   0.531   2.286 -0.0634 -0.3326  2.3995
 8110TIP3    H245746   6.509   0.673   2.234  0.1423 -1.5442 -0.9993
 8111TIP3   OH245747   5.938   1.383   5.938  0.4446  0.5517 -0.0581
 8111TIP3    H145748   5.895   1.305   5.973  1.1839  0.2208  0.1233
 8111TIP3    H245749   6.030   1.372   5.962  0.9179  0.4845 -1.8185
 8112TIP3   OH245750   3.001   4.731   4.165 -0.0969 -0.3558  0.1246
 8112TIP3    H145751   3.061   4.756   4.235 -0.6500 -2.7585  1.5174
 8112TIP3    H245752   2.914   4.752   4.199 -0.3167 -0.8764 -0.1001
 8113TIP3   OH245753   2.453   3.680   5.124  0.1594 -0.0509  0.1714
 8113TIP3    H145754   2.470   3.709   5.214 -1.5050  0.0993  0.4497
 8113TIP3    H245755   2.411   3.754   5.082  2.5270  0.5285 -1.2978
 8114TIP3   OH245756   5.250   3.569   5.605 -0.3195 -0.0584 -0.4964
 8114TIP3    H145757   5.160   3.559   5.636 -0.1622 -0.5777 -0.2133
 8114TIP3    H245758   5.241   3.620   5.524 -0.9366 -0.7660 -0.8834
 8115TIP3   OH245759   2.313   5.572  12.461  0.2437  0.6355  0.2799
 8115TIP3    H145760   2.349   5.660  12.448  0.4584  0.8018  1.9132
 8115TIP3    H245761   2.311   5.561  12.556 -0.5041 -0.8330  0.1014
 8116TIP3   OH245762   5.519   0.763  16.414 -0.0543 -0.3534  0.1384
 8116TIP3    H145763   5.558   0.803  16.491  1.3539 -0.0501 -0.7196
 8116TIP3    H245764   5.575   0.688  16.394 -0.3198 -0.3458 -0.6729
 8117TIP3   OH245765   2.418   1.363   5.401  0.0417 -0.0640  0.2124
 8117TIP3    H145766   2.378   1.293   5.452 -0.5534  0.3682  0.3496
 8117TIP3    H245767   2.380   1.354   5.313 -2.1046  1.7222  0.9136
 8118TIP3   OH245768   3.337   1.609   2.992 -0.2466  0.3791  0.2183
 8118TIP3    H145769   3.413   1.600   2.935 -1.1291 -1.5291 -0.6863
 8118TIP3    H245770   3.362   1.565   3.073 -0.5958 -0.8014 -0.3038
 8119TIP3   OH245771   4.293   3.731  14.636  0.3858 -0.8162  0.2624
 8119TIP3    H145772   4.368   3.714  14.579 -0.6369 -1.3528 -0.9717
 8119TIP3    H245773   4.306   3.821  14.667  2.2248 -1.3756  1.1784
 8120TIP3   OH245774   2.597   4.261  15.972  0.1872  0.1886  0.8204
 8120TIP3    H145775   2.634   4.293  15.890  0.2570 -2.8647 -0.3866
 8120TIP3    H245776   2.650   4.301  16.040  2.4693 -0.1116 -0.7337
 8121TIP3   OH245777   1.346   6.677  16.352  0.3225  0.2859 -0.0675
 8121TIP3    H145778   1.416   6.612  16.341 -1.7692 -2.0039 -0.3601
 8121TIP3    H245779   1.390   6.754  16.387  3.1187 -0.8065 -1.0639
 8122TIP3   OH245780   1.115   0.961  15.718  0.1271 -0.0380 -0.4128
 8122TIP3    H145781   1.060   0.995  15.789  0.0847  0.1882 -0.5547
 8122TIP3    H245782   1.056   0.953  15.643  0.1373 -0.4224 -0.3814
 8123TIP3   OH245783   4.105   0.523   1.669  0.2851 -0.2666 -0.2221
 8123TIP3    H145784   4.148   0.531   1.584  0.4062 -1.7878 -0.3188
 8123TIP3    H245785   4.175   0.502   1.729  0.0750 -0.0149  0.1128
 8124TIP3   OH245786   1.691   4.229  16.256  0.0470  0.6152  0.8050
 8124TIP3    H145787   1.732   4.204  16.339 -0.5815  1.0446  1.2454
 8124TIP3    H245788   1.765   4.247  16.198  0.4934 -0.2838  1.0860
 8125TIP3   OH245789   2.160   6.395   2.796 -0.2527 -0.2954  0.9801
 8125TIP3    H145790   2.171   6.388   2.891  1.6014 -0.0484  0.8024
 8125TIP3    H245791   2.127   6.310   2.769  0.2082 -0.7115  1.7171
 8126TIP3   OH245792   1.849   3.148  11.243 -0.7608 -0.3907 -0.9971
 8126TIP3    H145793   1.826   3.241  11.239 -1.8426 -0.5109  1.4368
 8126TIP3    H245794   1.923   3.139  11.184  0.0758  2.2388 -0.4197
 8127TIP3   OH245795   5.694   2.304  15.123  0.8660  0.5294 -0.5226
 8127TIP3    H145796   5.757   2.287  15.053 -0.8312  0.3776 -2.0353
 8127TIP3    H245797   5.707   2.231  15.184  2.3484  0.6617 -0.6414
 8128TIP3   OH245798   0.832   4.054  16.681  0.4979 -0.5832  0.1308
 8128TIP3    H145799   0.737   4.046  16.695  0.5556  0.5208  1.1505
 8128TIP3    H245800   0.843   4.036  16.587 -0.8280  0.1487 -0.1881
 8129TIP3   OH245801   2.322   0.743  13.568  0.1779 -0.1124 -0.2352
 8129TIP3    H145802   2.382   0.715  13.498  1.0891  0.6770  0.2332
 8129TIP3    H245803   2.365   0.817  13.609 -1.3633  0.8108 -0.2292
 8130TIP3   OH245804   2.371   6.744  14.594 -0.1389  0.5273  0.4435
 8130TIP3    H145805   2.320   6.787  14.663  0.7774  1.2557  0.6696
 8130TIP3    H245806   2.353   6.651  14.606 -1.2265  0.7549  0.6789
 8131TIP3   OH245807   2.324   0.317  12.558 -0.1516  0.0298 -0.2022
 8131TIP3    H145808   2.284   0.399  12.587 -1.5473 -0.7761  0.2039
 8131TIP3    H245809   2.417   0.327  12.578 -0.7064  0.4440  2.4506
 8132TIP3   OH245810   1.839   5.750  16.050  0.5748 -0.4586  0.1214
 8132TIP3    H145811   1.806   5.757  15.961  1.4438 -0.7973 -0.2286
 8132TIP3    H245812   1.931   5.724  16.041  1.2856  1.5839  1.0651
 8133TIP3   OH245813   4.120   2.137  15.655  0.3369  0.0464  0.0856
 8133TIP3    H145814   4.119   2.073  15.726 -1.4650  0.7869  0.7589
 8133TIP3    H245815   4.149   2.088  15.578 -1.9092 -1.7993  0.3967
 8134TIP3   OH245816   6.391   5.895  12.045 -0.0864 -0.0217 -0.0999
 8134TIP3    H145817   6.480   5.922  12.022  0.4549 -1.2590  0.4467
 8134TIP3    H245818   6.348   5.879  11.962  1.3698 -2.9801 -0.3458
 8135TIP3   OH245819   5.084   3.576  12.500  0.1111  0.1586  0.2102
 8135TIP3    H145820   5.114   3.493  12.462 -0.4439  0.0656 -0.0360
 8135TIP3    H245821   5.157   3.636  12.488  0.0292  0.0653 -0.8119
 8136TIP3   OH245822   1.006   3.131  11.485 -0.2544 -0.2028 -0.3208
 8136TIP3    H145823   1.028   3.047  11.444  0.0949 -0.2305 -0.0772
 8136TIP3    H245824   0.965   3.182  11.415  0.9428 -0.0066 -0.8907
 8137TIP3   OH245825   3.492   5.108  13.972 -0.2298 -0.0282  0.6692
 8137TIP3    H145826   3.437   5.086  14.047  0.2980  0.5900  1.2521
 8137TIP3    H245827   3.581   5.096  14.003 -0.0240 -0.5192 -0.1073
 8138TIP3   OH245828   0.260   3.768  15.410  0.1066 -0.2601  0.4017
 8138TIP3    H145829   0.245   3.845  15.355 -1.1639 -0.7106  0.1025
 8138TIP3    H245830   0.339   3.727  15.374 -0.7795 -0.6108 -1.1693
 8139TIP3   OH245831   0.066   6.079   0.774  0.1207  0.4314  0.0175
 8139TIP3    H145832   0.085   5.991   0.741  1.0050  0.3778  0.6302
 8139TIP3    H245833   0.107   6.081   0.861  0.9909  1.7809 -0.4132
 8140TIP3   OH245834   2.192   4.717  16.272  0.1992 -0.7146 -0.3007
 8140TIP3    H145835   2.115   4.661  16.286 -0.1465  0.1057  1.2238
 8140TIP3    H245836   2.261   4.657  16.244 -0.6492 -1.6548 -0.3915
 8141TIP3   OH245837   1.160   5.713  16.092  0.0216 -0.0324 -0.5550
 8141TIP3    H145838   1.120   5.741  16.009  0.6081 -0.6403 -1.0468
 8141TIP3    H245839   1.118   5.630  16.112 -0.2661  0.2144 -0.1333
 8142TIP3   OH245840   0.500   1.376  17.160 -0.0078 -0.4466 -0.1227
 8142TIP3    H145841   0.406   1.361  17.166  0.0512 -1.2510 -1.1075
 8142TIP3    H245842   0.509   1.449  17.099 -0.1080  1.3266  1.9232
 8143TIP3   OH245843   3.855   4.723   5.985  0.7026 -0.0927 -0.4616
 8143TIP3    H145844   3.901   4.666   6.046  0.7872  0.0481 -0.3942
 8143TIP3    H245845   3.820   4.664   5.918  0.4838 -0.2592 -0.1960
 8144TIP3   OH245846   3.734   0.149   3.623  0.5459  0.1447 -0.0382
 8144TIP3    H145847   3.657   0.207   3.620 -0.1114 -0.7491 -0.7399
 8144TIP3    H245848   3.713   0.086   3.693  0.6471 -0.0845 -0.2143
 8145TIP3   OH245849   2.338   5.963   4.916  0.2812  0.0914 -0.1246
 8145TIP3    H145850   2.337   5.871   4.941 -4.4010  0.4265  1.3910
 8145TIP3    H245851   2.297   5.965   4.829 -0.9356  0.8551  0.4546
 8146TIP3   OH245852   6.753   5.564  13.698 -0.0521  0.2108  0.5753
 8146TIP3    H145853   6.669   5.519  13.683  0.7790 -1.2886  0.3587
 8146TIP3    H245854   6.736   5.621  13.773 -0.9972 -0.8175  1.1673
 8147TIP3   OH245855   3.916   2.220  13.426  0.1801 -0.2770 -0.1297
 8147TIP3    H145856   3.897   2.146  13.485  1.3713 -1.8963 -1.7161
 8147TIP3    H245857   3.864   2.202  13.348  0.5930  0.4838 -0.5801
 8148TIP3   OH245858   3.007   2.099  14.652 -0.4430  0.1233  0.1446
 8148TIP3    H145859   3.029   2.104  14.745 -1.0429 -0.8637  0.3493
 8148TIP3    H245860   2.985   2.189  14.627  0.6518  0.5570  0.7204
 8149TIP3   OH245861   5.044   1.639  15.460  0.1036  0.2174  0.1192
 8149TIP3    H145862   5.018   1.730  15.447  0.0682  0.0229 -1.1971
 8149TIP3    H245863   4.998   1.591  15.392  3.3254 -0.2332 -1.8380
 8150TIP3   OH245864   5.104   1.795   1.814 -0.2229 -0.0263  0.0683
 8150TIP3    H145865   5.176   1.799   1.876 -0.3973 -0.1549  0.2823
 8150TIP3    H245866   5.129   1.854   1.744  0.2922 -0.4001 -0.0705
 8151TIP3   OH245867   5.623   6.469  15.453  0.4478  0.3879  0.1424
 8151TIP3    H145868   5.663   6.386  15.426 -1.6015  0.0910 -2.1806
 8151TIP3    H245869   5.645   6.530  15.383 -1.4693  0.7256 -0.1891
 8152TIP3   OH245870   3.738   2.650   0.555 -0.0697 -0.7085  0.0823
 8152TIP3    H145871   3.750   2.676   0.647 -0.8886  0.1905 -0.0622
 8152TIP3    H245872   3.700   2.727   0.513  0.7307 -0.9630 -1.1213
 8153TIP3   OH245873   0.436   1.844  16.207  0.1132 -0.4639  0.3457
 8153TIP3    H145874   0.378   1.776  16.174 -1.0494  0.5506  0.2501
 8153TIP3    H245875   0.414   1.852  16.300 -0.8774  0.8488  0.0202
 8154TIP3   OH245876   2.163   6.777   1.014  0.1224 -0.2033 -0.2706
 8154TIP3    H145877   2.226   6.781   0.942  1.3967  1.0202  0.8766
 8154TIP3    H245878   2.194   6.706   1.069  0.6238  0.5063  0.3814
 8155TIP3   OH245879   5.727   4.999   3.948  0.7683 -0.3058 -0.2909
 8155TIP3    H145880   5.819   5.010   3.923  0.8360 -2.1040 -0.8941
 8155TIP3    H245881   5.730   4.947   4.028  0.2980  0.2828  0.1109
 8156TIP3   OH245882   6.697   4.197  11.860  0.1093  0.1911 -0.2029
 8156TIP3    H145883   6.682   4.286  11.893  0.6605 -0.2473  1.2675
 8156TIP3    H245884   6.629   4.144  11.902  0.6211 -0.3254 -0.0220
 8157TIP3   OH245885   4.457   3.716  17.136  0.5966 -0.2422  0.5555
 8157TIP3    H145886   4.445   3.754  17.050 -2.5716 -1.6635  0.2976
 8157TIP3    H245887   4.455   3.790  17.196 -1.1273  0.4037 -0.2773
 8158TIP3   OH245888   5.198   3.347  15.882 -0.4561  0.6388  0.3840
 8158TIP3    H145889   5.249   3.293  15.942  1.9983 -0.7212 -2.7975
 8158TIP3    H245890   5.132   3.288  15.846  1.4277 -0.0154 -2.1408
 8159TIP3   OH245891   6.541   6.177  14.892  0.1638 -0.2156 -0.0027
 8159TIP3    H145892   6.621   6.171  14.944  1.3108  0.2330 -1.6746
 8159TIP3    H245893   6.558   6.121  14.816 -1.3640 -0.6001 -0.0810
 8160TIP3   OH245894   1.296   5.550   0.777 -0.1227  0.4429 -0.5694
 8160TIP3    H145895   1.380   5.595   0.764 -0.6482  1.5748 -0.1291
 8160TIP3    H245896   1.231   5.617   0.756 -0.9093 -0.7921 -2.1124
 8161TIP3   OH245897   3.387   4.798   1.957  0.1560 -0.1985 -0.2535
 8161TIP3    H145898   3.424   4.710   1.945 -0.5375 -0.6103  0.5348
 8161TIP3    H245899   3.300   4.792   1.917  0.2183  0.2200 -0.4521
 8162TIP3   OH245900   2.904   4.512   1.226  0.2775 -0.6402  0.2388
 8162TIP3    H145901   2.961   4.465   1.287 -2.0865 -2.0927  1.3765
 8162TIP3    H245902   2.921   4.471   1.141  0.7472 -1.2345  0.6187
 8163TIP3   OH245903   6.105   6.094  16.611 -0.2852 -0.3848  0.1665
 8163TIP3    H145904   6.119   6.188  16.623 -0.3377 -0.4884  1.0751
 8163TIP3    H245905   6.141   6.076  16.524  0.5026  0.3134  0.3417
 8164TIP3   OH245906   5.990   6.391   4.094  0.2542 -0.0522 -0.2101
 8164TIP3    H145907   5.933   6.334   4.146 -0.0888  0.7856  0.3365
 8164TIP3    H245908   6.061   6.414   4.153 -0.4402  1.3753  0.0918
 8165TIP3   OH245909   2.740   0.526   2.175 -0.0203  0.2736 -0.0330
 8165TIP3    H145910   2.805   0.595   2.169  0.0065  0.3547  1.0396
 8165TIP3    H245911   2.780   0.451   2.130 -0.1778  1.0323 -1.4554
 8166TIP3   OH245912   4.410   0.414  12.510  0.0107  0.7784 -0.4093
 8166TIP3    H145913   4.481   0.353  12.529 -0.2227  0.4597 -0.5530
 8166TIP3    H245914   4.334   0.378  12.557  0.1184  1.4992  0.3207
 8167TIP3   OH245915   3.942   0.094   3.432  0.1733 -0.0072 -0.7047
 8167TIP3    H145916   4.030   0.099   3.470 -0.1965 -3.3113  0.7211
 8167TIP3    H245917   3.883   0.110   3.505 -0.4305  0.6315 -1.3337
 8168TIP3   OH245918   0.941   1.586  11.065 -0.1574  0.5009  0.2388
 8168TIP3    H145919   0.870   1.651  11.067  0.0960  0.8590 -1.2515
 8168TIP3    H245920   0.914   1.523  10.999 -0.9826 -1.6382  2.5615
 8169TIP3   OH245921   1.961   6.374  15.568 -0.0775  0.7641 -0.1224
 8169TIP3    H145922   2.036   6.383  15.626  0.2594  2.3411 -0.7920
 8169TIP3    H245923   1.920   6.291  15.594  1.4575  0.2669  0.7338
 8170TIP3   OH245924   4.906   2.079  10.461 -0.0493 -0.0722  0.3740
 8170TIP3    H145925   4.996   2.101  10.485 -0.1591  0.4277  0.3416
 8170TIP3    H245926   4.879   2.150  10.402 -1.7993  1.9427  3.4553
 8171TIP3   OH245927   1.201   0.542   3.084  0.7514  0.0566 -0.2917
 8171TIP3    H145928   1.274   0.490   3.117  0.5924 -0.6469 -1.0523
 8171TIP3    H245929   1.237   0.631   3.076  1.0470  0.0567  0.9112
 8172TIP3   OH245930   1.425   2.739   5.050 -0.4399  0.0223 -0.6251
 8172TIP3    H145931   1.341   2.696   5.036 -0.8342 -0.5195  2.9946
 8172TIP3    H245932   1.404   2.832   5.050 -0.4557  0.0546 -3.0240
 8173TIP3   OH245933   1.725   3.885  11.037  0.3292  0.3360 -0.6870
 8173TIP3    H145934   1.703   3.978  11.040  1.8554  0.6582  1.4822
 8173TIP3    H245935   1.688   3.849  11.117  0.7588 -0.6987 -0.9500
 8174TIP3   OH245936   1.575   3.416   3.937 -0.8290 -0.5713 -0.2088
 8174TIP3    H145937   1.593   3.476   4.009 -0.7421 -2.4183  1.3259
 8174TIP3    H245938   1.590   3.329   3.973  0.7243 -1.4655 -2.8873
 8175TIP3   OH245939   2.365   2.688   5.586  0.2810  0.3488  0.7012
 8175TIP3    H145940   2.319   2.628   5.527  1.2215  0.4786 -0.1648
 8175TIP3    H245941   2.388   2.634   5.661  0.2995 -0.1523  0.3361
 8176TIP3   OH245942   4.555   3.568   3.929  0.1717  0.7811  0.1947
 8176TIP3    H145943   4.518   3.480   3.917  0.6340  0.3807  1.6503
 8176TIP3    H245944   4.512   3.601   4.007  1.1233  1.2602  0.5156
 8177TIP3   OH245945   1.291   4.831   2.908  0.0636  0.8779  0.2304
 8177TIP3    H145946   1.219   4.854   2.967 -1.4867 -1.4556 -0.6680
 8177TIP3    H245947   1.284   4.893   2.836 -3.1091 -1.2167 -1.4184
 8178TIP3   OH245948   5.439   5.664   1.499 -1.0419  0.5140 -0.1633
 8178TIP3    H145949   5.372   5.606   1.462 -0.2202 -0.3264 -0.3439
 8178TIP3    H245950   5.518   5.611   1.502 -0.2989  1.5999 -0.2373
 8179TIP3   OH245951   5.300   4.687  11.286 -0.3873 -0.1049  0.0774
 8179TIP3    H145952   5.265   4.753  11.226 -2.7167 -0.7508  0.6913
 8179TIP3    H245953   5.230   4.623  11.296  0.4923 -0.7577  2.3965
 8180TIP3   OH245954   2.374   3.975   3.365  0.4565 -0.0751 -0.4211
 8180TIP3    H145955   2.303   3.919   3.395  1.3565  0.1063  2.1936
 8180TIP3    H245956   2.352   3.997   3.274 -2.3355 -0.7601  0.0712
 8181TIP3   OH245957   4.448   0.046  15.520  0.9208  0.0649 -0.4306
 8181TIP3    H145958   4.516   0.074  15.459  1.5738 -2.1764 -0.7692
 8181TIP3    H245959   4.384  -0.001  15.465  0.3607 -0.0006  0.2610
 8182TIP3   OH245960   2.216   2.219  15.358  0.1387  0.1954 -0.4387
 8182TIP3    H145961   2.168   2.168  15.293 -1.7044  0.1187  0.9340
 8182TIP3    H245962   2.162   2.297  15.371  0.6046  0.3124  0.8138
 8183TIP3   OH245963   5.918   2.559   3.694  0.0649  0.1495 -0.2945
 8183TIP3    H145964   5.901   2.645   3.731  0.8296 -0.2770  1.0880
 8183TIP3    H245965   5.969   2.576   3.614  1.8038  0.8927  0.9567
 8184TIP3   OH245966   1.024   6.658   2.315  0.5260 -0.8696 -0.0900
 8184TIP3    H145967   1.063   6.703   2.390  3.4172 -1.1656 -1.3277
 8184TIP3    H245968   0.951   6.713   2.288 -0.1651 -0.4511  2.5492
 8185TIP3   OH245969   6.003   5.419   0.012 -0.5779  0.2320  0.7091
 8185TIP3    H145970   6.074   5.419   0.077 -0.2827  1.3359  0.4043
 8185TIP3    H245971   5.989   5.327  -0.008  2.0663  0.0833 -0.6409
 8186TIP3   OH245972   5.997   4.234  12.595 -0.6214  0.3197 -0.1959
 8186TIP3    H145973   5.980   4.297  12.665  0.5461  1.3200 -0.7815
 8186TIP3    H245974   5.935   4.163  12.611 -2.3052  1.8345  0.1827
 8187TIP3   OH245975   3.866   1.576   1.146  0.1015 -0.4548  0.3224
 8187TIP3    H145976   3.838   1.498   1.194 -0.8183 -2.2551 -2.9644
 8187TIP3    H245977   3.946   1.604   1.190  0.0947 -2.8763  1.9583
 8188TIP3   OH245978   4.548   6.553  10.906  0.2880  0.0796  0.7267
 8188TIP3    H145979   4.566   6.464  10.874  1.2072 -0.0113  1.4824
 8188TIP3    H245980   4.625   6.576  10.957  0.7830  1.9579 -0.8273
 8189TIP3   OH245981   6.745   1.030   0.572  0.2379  0.1463  0.0806
 8189TIP3    H145982   6.778   1.001   0.486  1.2352 -0.8888  0.7893
 8189TIP3    H245983   6.663   1.075   0.553  0.8703  0.6732 -1.5090
 8190TIP3   OH245984   4.446   3.792   3.725  0.0513  0.0409  0.1539
 8190TIP3    H145985   4.366   3.815   3.772  0.2691  0.5923  0.2672
 8190TIP3    H245986   4.503   3.754   3.791  0.1802  0.3843  0.2455
 8191TIP3   OH245987   5.838   4.980   0.459  0.0209 -0.3318  0.5025
 8191TIP3    H145988   5.770   4.929   0.415  0.7265 -0.1153 -0.8611
 8191TIP3    H245989   5.908   4.987   0.394  1.7175 -1.3047  2.1958
 8192TIP3   OH245990   0.959   1.798   5.840  0.5833 -0.3235  0.0444
 8192TIP3    H145991   0.988   1.708   5.821 -0.4664 -0.7490  0.4385
 8192TIP3    H245992   0.891   1.788   5.907 -1.9558  0.4745 -2.3090
 8193TIP3   OH245993   6.474   1.518  14.146 -0.6935  0.1781  0.4023
 8193TIP3    H145994   6.522   1.449  14.100  0.4633  0.2126  1.5285
 8193TIP3    H245995   6.382   1.498  14.129 -0.3275  0.8721 -2.9086
 8194TIP3   OH245996   4.286   2.923   5.179  0.1926 -0.4035 -0.1116
 8194TIP3    H145997   4.359   2.905   5.119  1.0290 -2.3169  1.4283
 8194TIP3    H245998   4.319   2.991   5.238  0.5121 -0.8026  0.1738
 8195TIP3   OH245999   2.836   2.549   0.384  0.0109 -0.1616 -0.0245
 8195TIP3    H146000   2.799   2.461   0.382  0.4595 -0.3792  0.7578
 8195TIP3    H246001   2.761   2.607   0.400 -0.1405 -0.4987  0.4984
 8196TIP3   OH246002   1.245   0.774  14.967 -0.0435 -0.3786 -0.2112
 8196TIP3    H146003   1.305   0.769  14.892 -0.1057  0.7496 -0.3480
 8196TIP3    H246004   1.299   0.809  15.038 -1.0586  2.9656 -0.9718
 8197TIP3   OH246005   3.830   3.225   2.519  0.3241  0.2779 -0.2710
 8197TIP3    H146006   3.741   3.226   2.554  0.0549  1.5258 -0.9607
 8197TIP3    H246007   3.840   3.137   2.481 -0.4318 -0.0369  0.2446
 8198TIP3   OH246008   5.785   4.280   3.493 -0.1137  1.1470  0.3243
 8198TIP3    H146009   5.880   4.288   3.501  0.1458 -1.0926 -0.1123
 8198TIP3    H246010   5.755   4.260   3.582  0.1805 -1.0489 -0.0434
 8199TIP3   OH246011   1.339   1.136   1.117  0.0933 -0.0629  0.0121
 8199TIP3    H146012   1.307   1.151   1.028  0.0858  0.6269  0.1310
 8199TIP3    H246013   1.361   1.223   1.150  3.9087 -0.6821 -0.7238
 8200TIP3   OH246014   4.642   1.162   3.544 -0.3961  0.1120 -0.0283
 8200TIP3    H146015   4.564   1.200   3.504 -2.3546 -0.6058  2.9506
 8200TIP3    H246016   4.647   1.074   3.507  0.8932  1.2402 -2.6427
 8201TIP3   OH246017   3.104   6.442   3.377  0.3881  0.1272  0.6013
 8201TIP3    H146018   3.104   6.528   3.335 -1.3950  0.5386  1.3867
 8201TIP3    H246019   3.062   6.458   3.462  1.5269 -1.2009  1.4218
 8202TIP3   OH246020   4.129   1.912   5.769 -0.9748 -0.7125 -0.1739
 8202TIP3    H146021   4.174   1.962   5.700 -0.0835  0.9856  1.6154
 8202TIP3    H246022   4.199   1.887   5.829 -2.1326  0.1500  1.5478
 8203TIP3   OH246023   3.628   2.606   5.737  0.3190  0.1538 -0.0683
 8203TIP3    H146024   3.596   2.692   5.765  0.1846  0.7870 -2.0674
 8203TIP3    H246025   3.594   2.545   5.802 -0.4694  1.4838  0.7917
 8204TIP3   OH246026   4.963   4.951   0.770 -0.2795 -0.0821  0.2530
 8204TIP3    H146027   4.915   5.013   0.825  0.3109  1.8854 -1.3967
 8204TIP3    H246028   5.039   5.000   0.738  1.0020 -2.1161  0.0935
 8205TIP3   OH246029   1.086   3.344  12.418 -0.0857  0.4497 -0.3006
 8205TIP3    H146030   1.150   3.292  12.371  0.8918  1.0497  0.3462
 8205TIP3    H246031   1.132   3.425  12.440 -0.5745  0.2574  1.5186
 8206TIP3   OH246032   2.102   6.561   3.567 -0.1997  0.6124  0.5634
 8206TIP3    H146033   2.190   6.595   3.587 -0.6470  2.0903  0.0312
 8206TIP3    H246034   2.043   6.634   3.587 -1.1758  0.1118 -0.5069
 8207TIP3   OH246035   1.692   5.991  14.130 -0.4108 -0.6354  0.3370
 8207TIP3    H146036   1.644   6.049  14.189  2.1813  0.6098  1.3100
 8207TIP3    H246037   1.753   5.943  14.186  0.6612 -0.9336 -1.0361
 8208TIP3   OH246038   4.669   4.582  14.431  0.1070 -0.1044  0.1714
 8208TIP3    H146039   4.711   4.496  14.426 -0.4293 -0.3593 -0.0463
 8208TIP3    H246040   4.688   4.622  14.346 -0.5082 -0.4198 -0.1196
 8209TIP3   OH246041   4.257   0.869  11.996 -0.4757 -0.0030  0.2901
 8209TIP3    H146042   4.254   0.874  11.900  0.9735 -0.1404  0.2251
 8209TIP3    H246043   4.263   0.775  12.015  1.2579  0.1167  0.4234
 8210TIP3   OH246044   2.103   1.680   4.841 -0.4245  0.2848  0.4492
 8210TIP3    H146045   2.108   1.688   4.936  0.2860  0.6814  0.3841
 8210TIP3    H246046   2.194   1.664   4.814 -0.7754 -0.8709 -0.0696
 8211TIP3   OH246047   2.955   4.029  13.263 -0.3921 -0.0081  0.2098
 8211TIP3    H146048   2.925   4.075  13.341 -2.1236 -0.6036 -0.0674
 8211TIP3    H246049   2.925   4.084  13.190  3.9239  2.1816 -0.0596
 8212TIP3   OH246050   4.627   5.101  13.604 -0.9778 -0.3788  0.0286
 8212TIP3    H146051   4.576   5.113  13.523 -1.6903 -1.0125  0.3791
 8212TIP3    H246052   4.590   5.022  13.644  0.4904 -1.0271  0.1371
 8213TIP3   OH246053   4.526   3.686  12.056  0.2286 -0.1499  0.5213
 8213TIP3    H146054   4.472   3.611  12.079  0.2050 -1.3786 -3.1875
 8213TIP3    H246055   4.466   3.748  12.016  1.2603 -0.9251 -2.3325
 8214TIP3   OH246056   0.228   0.647   3.434 -0.2154  0.1055  0.0406
 8214TIP3    H146057   0.153   0.601   3.397 -0.4867  1.0146 -0.5698
 8214TIP3    H246058   0.304   0.599   3.401 -0.5154 -0.5534  0.3031
 8215TIP3   OH246059   3.142   4.340   5.874  0.4470 -0.3283 -0.1438
 8215TIP3    H146060   3.083   4.278   5.832 -1.7101  1.3096  0.3480
 8215TIP3    H246061   3.104   4.355   5.960  1.7183  0.5810  0.2780
 8216TIP3   OH246062   2.982   5.128  15.377  0.4072 -0.4447  0.2822
 8216TIP3    H146063   3.049   5.106  15.313 -0.6599 -2.0470 -0.3018
 8216TIP3    H246064   2.899   5.112  15.332 -0.3594 -1.4353  2.0082
 8217TIP3   OH246065   3.886   0.214   2.578 -0.5475 -1.0701 -0.0502
 8217TIP3    H146066   3.893   0.178   2.666  0.4696 -1.0960 -0.1265
 8217TIP3    H246067   3.906   0.307   2.588 -1.2521 -0.9101 -0.1333
 8218TIP3   OH246068   4.532   5.263   0.769  0.4494  0.3876  0.1408
 8218TIP3    H146069   4.619   5.273   0.731  0.5346 -0.7124  0.0284
 8218TIP3    H246070   4.540   5.301   0.857  0.7573  1.2192 -0.2410
 8219TIP3   OH246071   0.501   0.396  16.448  0.1598 -0.7763  0.3415
 8219TIP3    H146072   0.559   0.341  16.501  0.3447 -1.8840 -0.9861
 8219TIP3    H246073   0.543   0.400  16.362 -0.0862  1.0918  0.2752
 8220TIP3   OH246074   2.098   0.762  13.741  0.2449 -0.4600  1.1159
 8220TIP3    H146075   2.167   0.755  13.676 -0.7167  1.5290 -0.1756
 8220TIP3    H246076   2.144   0.774  13.824  1.4548  0.9449  0.2547
 8221TIP3   OH246077   0.833   2.689  15.222 -0.3216  0.1020  0.0212
 8221TIP3    H146078   0.818   2.599  15.250  0.2187 -0.6652 -2.0161
 8221TIP3    H246079   0.748   2.718  15.188 -0.0637 -0.2960 -1.0004
 8222TIP3   OH246080   5.327   0.993   0.177 -0.0507 -0.2268 -0.0510
 8222TIP3    H146081   5.396   0.927   0.185  2.0298  1.5814 -2.2294
 8222TIP3    H246082   5.313   1.001   0.083 -0.6017  2.0838  0.1982
 8223TIP3   OH246083   0.968   0.329  12.372  0.2694  0.0428 -0.2590
 8223TIP3    H146084   1.014   0.249  12.396  0.9840  0.2428 -0.9370
 8223TIP3    H246085   1.034   0.381  12.325  1.3769  3.3126  4.6416
 8224TIP3   OH246086   3.710   3.079   6.036 -0.1866 -0.4975 -0.3019
 8224TIP3    H146087   3.659   3.100   5.958  0.2932  1.2599 -0.1579
 8224TIP3    H246088   3.645   3.072   6.106 -0.5464 -1.3993 -0.7237
 8225TIP3   OH246089   2.441   1.186  16.197 -0.2358  0.8354 -0.2513
 8225TIP3    H146090   2.485   1.186  16.112 -0.1683  2.7251 -0.2253
 8225TIP3    H246091   2.511   1.198  16.261 -0.7122  3.4896 -0.1880
 8226TIP3   OH246092   0.444   5.303   5.677  0.1189  0.3735 -0.9630
 8226TIP3    H146093   0.499   5.335   5.606 -1.1281 -0.3817 -2.2885
 8226TIP3    H246094   0.463   5.209   5.680  2.4147  0.8415  1.7122
 8227TIP3   OH246095   4.586   0.749   1.838  0.1364  0.6819  0.3097
 8227TIP3    H146096   4.676   0.720   1.855 -0.3726 -1.1901 -0.1920
 8227TIP3    H246097   4.536   0.718   1.913 -0.4859 -0.0926 -0.4226
 8228TIP3   OH246098   1.349   4.439  10.560  0.3251  0.7050  0.6214
 8228TIP3    H146099   1.256   4.453  10.578  0.4601  3.7963 -0.8053
 8228TIP3    H246100   1.359   4.344  10.556 -2.7331  0.3427  0.9814
 8229TIP3   OH246101   5.535   0.736  15.397  0.1782 -0.3305 -0.4912
 8229TIP3    H146102   5.507   0.746  15.306 -0.1643 -1.8095 -0.5582
 8229TIP3    H246103   5.631   0.735  15.393  0.1595 -1.0206 -0.9217
 8230TIP3   OH246104   0.614   1.336  15.380  0.1404 -0.0682 -0.2848
 8230TIP3    H146105   0.529   1.313  15.341  0.1669 -1.2755  0.3762
 8230TIP3    H246106   0.666   1.256  15.373  0.4912  0.0136  1.2979
 8231TIP3   OH246107   1.759   4.045   5.728 -0.4157 -0.7951  0.1315
 8231TIP3    H146108   1.713   4.038   5.812  0.7161  0.4481  0.8688
 8231TIP3    H246109   1.852   4.050   5.752 -0.0835 -0.5343 -1.1950
 8232TIP3   OH246110   5.956   6.180   5.856 -0.2303  0.2387  0.3033
 8232TIP3    H146111   6.042   6.204   5.889  0.0173  0.1051 -0.2594
 8232TIP3    H246112   5.898   6.189   5.933  0.5639 -1.2920  1.1123
 8233TIP3   OH246113   0.800   5.582   4.651  1.0764  0.1235  0.6901
 8233TIP3    H146114   0.777   5.495   4.616  3.5366 -0.0854 -0.5313
 8233TIP3    H246115   0.811   5.567   4.745  1.8857 -1.0026  0.4354
 8234TIP3   OH246116   4.287   5.232   0.623  0.5465 -0.5062 -0.1768
 8234TIP3    H146117   4.313   5.192   0.540  0.4136 -1.5362  0.2744
 8234TIP3    H246118   4.357   5.209   0.683  0.9417  0.7525 -0.1462
 8235TIP3   OH246119   6.020   3.854   0.371 -0.0480  0.1388 -0.0618
 8235TIP3    H146120   6.079   3.877   0.300 -0.3220 -0.2482 -0.4187
 8235TIP3    H246121   5.938   3.898   0.349 -0.1495 -0.0257 -0.0096
 8236TIP3   OH246122   2.860   2.451   3.502 -0.6627 -0.5173 -0.0951
 8236TIP3    H146123   2.802   2.418   3.433  0.1192 -2.2964  0.0783
 8236TIP3    H246124   2.801   2.497   3.561 -1.9111 -2.1339 -0.0262
 8237TIP3   OH246125   3.658   0.299  15.770  0.4996  0.1371 -0.1951
 8237TIP3    H146126   3.715   0.263  15.837  2.0059  0.7262 -1.1282
 8237TIP3    H246127   3.694   0.385  15.751 -1.0997  0.7878 -0.3303
 8238TIP3   OH246128   0.204   0.384  11.701  0.1512  0.1608  0.2789
 8238TIP3    H146129   0.265   0.377  11.775  0.6144 -1.1749 -0.2270
 8238TIP3    H246130   0.189   0.478  11.692  1.5938  0.4649  0.8587
 8239TIP3   OH246131   4.164   4.287   0.166  0.5004  0.3020  0.1226
 8239TIP3    H146132   4.227   4.267   0.235  1.0991  1.5062 -0.0673
 8239TIP3    H246133   4.081   4.299   0.212  1.2146  2.7153  0.8435
 8240TIP3   OH246134   6.682   3.311   4.423  0.2884  0.1234  0.4971
 8240TIP3    H146135   6.762   3.273   4.460  0.0962  1.1582  2.0571
 8240TIP3    H246136   6.686   3.403   4.448 -0.6597  0.5051 -0.7277
 8241TIP3   OH246137   3.099   3.840   0.534 -0.1921 -0.2055 -0.0730
 8241TIP3    H146138   3.017   3.833   0.486  0.3487 -0.1935 -1.0038
 8241TIP3    H246139   3.167   3.827   0.468  0.5462 -0.9005  0.8028
 8242TIP3   OH246140   2.786   5.282   4.442  0.0972  0.0790  0.9827
 8242TIP3    H146141   2.695   5.270   4.416 -0.4731  1.4222  2.2997
 8242TIP3    H246142   2.811   5.200   4.484 -0.4655 -0.3084  0.5659
 8243TIP3   OH246143   4.075   0.542   4.434 -0.2226  0.5292 -0.0567
 8243TIP3    H146144   4.126   0.497   4.501 -0.1226 -0.0617 -0.5264
 8243TIP3    H246145   4.036   0.616   4.479 -2.0429 -1.1786  1.2375
 8244TIP3   OH246146   0.991   4.322  11.428  0.0523 -0.1517 -0.8758
 8244TIP3    H146147   1.073   4.372  11.422 -0.5696  0.7840 -1.5727
 8244TIP3    H246148   1.003   4.267  11.505  1.5518 -0.3912 -1.2668
 8245TIP3   OH246149   4.079   6.066  16.957  0.0144 -0.3683  0.4652
 8245TIP3    H146150   3.987   6.045  16.938  0.1643 -0.7091  0.0999
 8245TIP3    H246151   4.110   5.992  17.009  0.1782 -0.4139  0.3011
 8246TIP3   OH246152   2.274   0.091   2.789  0.4636 -0.1691  0.6251
 8246TIP3    H146153   2.287   0.011   2.841 -0.1610 -0.7388 -0.0868
 8246TIP3    H246154   2.277   0.161   2.853  0.0702 -0.8436  1.4022
 8247TIP3   OH246155   0.425   6.154   4.591 -0.0851  0.4095 -0.0946
 8247TIP3    H146156   0.407   6.094   4.518 -0.9802  1.2180 -0.5546
 8247TIP3    H246157   0.398   6.240   4.558 -1.9320  0.5570  1.7332
 8248TIP3   OH246158   1.686   0.479   4.202 -0.7180  0.1490 -0.0037
 8248TIP3    H146159   1.657   0.495   4.292 -0.1960  0.5575  0.0950
 8248TIP3    H246160   1.675   0.564   4.158 -2.6133 -0.4701 -0.7965
 8249TIP3   OH246161   4.279   3.964   4.896  0.2019  0.4367 -0.3300
 8249TIP3    H146162   4.292   3.992   4.987  0.4434  0.8146 -0.4829
 8249TIP3    H246163   4.184   3.962   4.884  0.1961  1.5272 -0.4337
 8250TIP3   OH246164   3.427   2.055  14.673 -0.0092  0.1077  0.4147
 8250TIP3    H146165   3.436   1.967  14.710 -0.4614  0.0656  0.4277
 8250TIP3    H246166   3.332   2.069  14.668  0.0280  0.0273 -0.9048
 8251TIP3   OH246167   3.722   3.230  15.251 -0.0555 -0.4042  0.7059
 8251TIP3    H146168   3.810   3.202  15.275  1.2023  2.5457 -0.3577
 8251TIP3    H246169   3.712   3.204  15.160 -0.6783 -1.5816  1.0921
 8252TIP3   OH246170   4.721   4.727   2.394  0.2539 -0.2251 -0.0075
 8252TIP3    H146171   4.680   4.695   2.314  0.1740 -0.8059  0.2612
 8252TIP3    H246172   4.667   4.802   2.421  0.3870  0.0802 -0.5890
 8253TIP3   OH246173   3.613   2.939  16.142 -0.5287  0.1617  0.2088
 8253TIP3    H146174   3.605   2.855  16.096 -0.3324 -0.6536  1.6600
 8253TIP3    H246175   3.522   2.970  16.150 -0.4410  1.3333 -2.5414
 8254TIP3   OH246176   5.513   3.868   4.523 -0.3564 -0.3961  0.1796
 8254TIP3    H146177   5.471   3.851   4.608 -0.1906 -1.5857  0.0344
 8254TIP3    H246178   5.547   3.957   4.531 -1.0605 -0.1938  1.0663
 8255TIP3   OH246179   1.729   5.665   4.834 -0.5478 -0.3656 -0.6687
 8255TIP3    H146180   1.657   5.724   4.858  0.6589  1.7328 -2.0753
 8255TIP3    H246181   1.692   5.609   4.766 -1.3340 -0.4066 -0.2193
 8256TIP3   OH246182   2.116   4.867  13.079  0.0489  0.0817  0.4569
 8256TIP3    H146183   2.037   4.912  13.048 -1.0879 -0.8183  1.9522
 8256TIP3    H246184   2.168   4.852  13.000 -2.9619 -2.5705 -1.1738
 8257TIP3   OH246185   5.156   3.826  15.068  0.4567 -0.7742 -0.1365
 8257TIP3    H146186   5.107   3.893  15.020 -0.2812 -0.9846  0.3290
 8257TIP3    H246187   5.191   3.871  15.144  1.8311 -0.3817 -0.9790
 8258TIP3   OH246188   4.734   3.046   3.771 -0.3295 -0.2359  0.0907
 8258TIP3    H146189   4.770   3.019   3.686  0.9125  0.1794  0.4689
 8258TIP3    H246190   4.805   3.095   3.813 -1.2952  0.4953  0.9247
 8259TIP3   OH246191   4.252   1.686   4.454 -0.1965 -0.3787 -0.3845
 8259TIP3    H146192   4.270   1.679   4.548  0.4862 -2.3736 -0.6341
 8259TIP3    H246193   4.296   1.610   4.416 -0.3106  0.5194 -2.3497
 8260TIP3   OH246194   3.696   6.313  16.464  0.5604  0.0529  0.3513
 8260TIP3    H146195   3.672   6.406  16.467  1.1432  0.2030  0.5106
 8260TIP3    H246196   3.778   6.312  16.414  0.8145 -0.3189  0.7813
 8261TIP3   OH246197   6.154   0.910  14.916 -0.1315 -0.0484  0.3438
 8261TIP3    H146198   6.197   0.995  14.928  2.8114 -0.8394 -3.5212
 8261TIP3    H246199   6.067   0.932  14.882  1.3779  1.4800 -2.7380
 8262TIP3   OH246200   4.916   5.416   4.428 -0.0136  0.3907 -0.1250
 8262TIP3    H146201   4.851   5.486   4.431 -1.0019 -0.5803  1.5496
 8262TIP3    H246202   4.969   5.429   4.506  0.3815 -0.1852 -0.2912
 8263TIP3   OH246203   1.536   3.382   1.141  0.1977 -0.4231 -0.2833
 8263TIP3    H146204   1.588   3.422   1.210 -0.3938  1.2979 -0.8218
 8263TIP3    H246205   1.574   3.415   1.060  0.8749 -2.4153 -0.8175
 8264TIP3   OH246206   4.517   6.340   3.205  0.0997  0.3579 -0.2753
 8264TIP3    H146207   4.600   6.371   3.169  0.5359 -0.1230  0.2967
 8264TIP3    H246208   4.541   6.264   3.257 -0.4376  1.4890  1.6440
 8265TIP3   OH246209   3.306   5.514  15.225  0.6392 -0.4061  0.3317
 8265TIP3    H146210   3.363   5.578  15.269  1.8960 -0.6219 -0.9417
 8265TIP3    H246211   3.330   5.430  15.265 -1.3570 -0.0460  2.3516
 8266TIP3   OH246212   1.906   4.866   3.484 -0.0125  0.1988  0.2668
 8266TIP3    H146213   1.956   4.907   3.414 -1.2997  1.5411  0.0873
 8266TIP3    H246214   1.896   4.775   3.458  0.9200  0.3046 -0.4764
 8267TIP3   OH246215   3.015   4.001   0.732 -0.4343 -0.3813  0.0770
 8267TIP3    H146216   3.065   3.947   0.671 -0.1148 -0.5684  0.4988
 8267TIP3    H246217   2.962   4.058   0.677  0.5806  0.1321 -0.3736
 8268TIP3   OH246218   3.288   5.929   0.475 -0.4202  0.5921 -0.1931
 8268TIP3    H146219   3.269   5.873   0.400 -0.7563 -1.9032  1.6901
 8268TIP3    H246220   3.384   5.929   0.480 -0.4282 -0.3817  0.1753
 8269TIP3   OH246221   0.737   0.672  16.105  0.2016 -0.0633  0.0738
 8269TIP3    H146222   0.766   0.582  16.119 -0.2513 -0.0663  0.9862
 8269TIP3    H246223   0.643   0.670  16.122  0.6306  1.1254  2.6853
 8270TIP3   OH246224   2.307   5.512  14.004  0.1128  0.1111  0.0887
 8270TIP3    H146225   2.359   5.489  14.081 -1.4531  0.4028  1.2764
 8270TIP3    H246226   2.225   5.464  14.016  0.6468 -1.5355 -2.5051
 8271TIP3   OH246227   2.838   6.525   0.184 -0.2662 -0.3042 -0.0699
 8271TIP3    H146228   2.900   6.458   0.211  1.5582  0.4617 -2.2143
 8271TIP3    H246229   2.891   6.604   0.176 -1.9295  0.8428  0.0223
 8272TIP3   OH246230   6.230   2.079  14.550  0.5744 -0.6626 -0.0494
 8272TIP3    H146231   6.319   2.047  14.565 -0.2116 -2.7162  0.3714
 8272TIP3    H246232   6.192   2.087  14.637  0.9033  1.9648 -0.1074
 8273TIP3   OH246233   2.931   6.698  17.091  0.0344 -0.1022 -0.4497
 8273TIP3    H146234   2.839   6.680  17.107 -0.0340  1.0899  0.5891
 8273TIP3    H246235   2.969   6.613  17.070 -0.5007 -1.3123  3.2063
 8274TIP3   OH246236   3.270   1.810   2.820 -0.5704 -0.4803  0.4399
 8274TIP3    H146237   3.244   1.783   2.732 -0.3123 -0.0172  0.2183
 8274TIP3    H246238   3.288   1.728   2.866 -2.3379 -0.8103  0.5829
 8275TIP3   OH246239   6.128   1.590   1.305 -0.2354  0.7794 -0.1646
 8275TIP3    H146240   6.131   1.672   1.256 -1.9111  0.8118 -0.2534
 8275TIP3    H246241   6.219   1.572   1.328  0.6839  0.5367 -3.7096
 8276TIP3   OH246242   1.229   1.964   3.809  0.6221  0.1487 -0.6710
 8276TIP3    H146243   1.260   2.034   3.866  0.6242 -0.8486  0.5707
 8276TIP3    H246244   1.308   1.914   3.788  0.2936 -0.7841  0.2673
 8277TIP3   OH246245   3.544   5.567  14.340 -0.0619  0.4554 -0.5371
 8277TIP3    H146246   3.590   5.484  14.329 -1.4023 -0.5160  1.0083
 8277TIP3    H246247   3.613   5.633  14.339  0.9524 -0.5752 -2.6146
 8278TIP3   OH246248   3.701   1.114   3.633  0.1505 -0.3946  0.0930
 8278TIP3    H146249   3.756   1.097   3.710  0.8382  0.4338 -0.2137
 8278TIP3    H246250   3.739   1.192   3.593 -3.3288  2.3317  1.8324
 8279TIP3   OH246251   1.384   5.297  13.446 -0.1766  0.2609  0.0077
 8279TIP3    H146252   1.290   5.280  13.436 -0.1019 -0.5517  0.6214
 8279TIP3    H246253   1.426   5.219  13.409  0.2024 -0.4668  1.8956
 8280TIP3   OH246254   4.976   0.078  16.676 -0.2546 -0.1882 -0.1717
 8280TIP3    H146255   4.923   0.085  16.756  0.6255 -1.0775  0.5042
 8280TIP3    H246256   5.028  -0.002  16.688 -0.1475 -0.3563 -1.6629
 8281TIP3   OH246257   2.463   0.009   3.156 -0.2306 -0.1601 -0.1756
 8281TIP3    H146258   2.396  -0.034   3.104 -0.9423  3.2223 -2.2343
 8281TIP3    H246259   2.418   0.032   3.238 -0.9171 -0.0424 -0.5787
 8282TIP3   OH246260   4.796   2.073  14.128  0.6471  1.1296  0.2776
 8282TIP3    H146261   4.820   1.997  14.075 -0.3045  0.9067  0.1535
 8282TIP3    H246262   4.723   2.113  14.081 -1.0388  0.2060  2.0593
 8283TIP3   OH246263   4.084   6.486  12.051  0.2331  0.1918  0.5810
 8283TIP3    H146264   4.043   6.498  11.965 -1.4132 -0.1207  1.3066
 8283TIP3    H246265   4.016   6.509  12.114  1.0065 -0.8256  1.8225
 8284TIP3   OH246266   6.357   4.472  14.190  0.6154 -0.1596  0.4374
 8284TIP3    H146267   6.262   4.473  14.179  0.6391 -1.3421  0.0824
 8284TIP3    H246268   6.389   4.418  14.117  1.4356 -0.9690  1.3812
 8285TIP3   OH246269   5.444   6.720  10.251 -0.3729 -0.3537  0.2375
 8285TIP3    H146270   5.488   6.802  10.228 -0.5421 -0.3689 -0.1342
 8285TIP3    H246271   5.425   6.729  10.345  0.1229 -0.2082  0.3259
 8286TIP3   OH246272   3.573   0.193   4.816  0.1373 -0.1208 -0.5758
 8286TIP3    H146273   3.614   0.128   4.873  0.6982  1.4273  0.8111
 8286TIP3    H246274   3.532   0.141   4.747 -0.0370 -1.9992  0.8894
 8287TIP3   OH246275   6.005   6.320  12.816 -0.1809 -0.6883 -0.6569
 8287TIP3    H146276   5.974   6.230  12.802  1.0951 -1.0683 -1.0950
 8287TIP3    H246277   6.089   6.324  12.771  2.0609 -0.7147  3.2690
 8288TIP3   OH246278   6.529   0.309  11.113  0.5014  0.0546  0.1311
 8288TIP3    H146279   6.534   0.294  11.018  0.2978  0.0855  0.1140
 8288TIP3    H246280   6.617   0.291  11.145  0.6805  0.4638 -0.1240
 8289TIP3   OH246281   5.401   0.663   4.126  0.6279 -0.3633 -0.0137
 8289TIP3    H146282   5.444   0.748   4.131  0.2573 -0.1820  0.1392
 8289TIP3    H246283   5.336   0.665   4.197 -0.9993  0.1531 -1.4748
 8290TIP3   OH246284   1.978   3.264  12.488  0.8509  0.0664 -0.3882
 8290TIP3    H146285   2.013   3.326  12.553  0.4044 -0.9635  0.8624
 8290TIP3    H246286   1.923   3.204  12.539  1.2701 -1.3650 -1.5719
 8291TIP3   OH246287   5.725   2.411  17.009  0.0806 -0.1276 -0.8068
 8291TIP3    H146288   5.736   2.504  17.027 -0.5515 -0.3827  1.0462
 8291TIP3    H246289   5.656   2.407  16.943  0.8393  0.7401 -1.6793
 8292TIP3   OH246290   4.695   3.823   4.148  0.3559 -0.1307 -0.0073
 8292TIP3    H146291   4.750   3.769   4.091  0.6167 -0.8840  0.9250
 8292TIP3    H246292   4.633   3.866   4.089  1.4751  0.1588 -0.9936
 8293TIP3   OH246293   1.462   0.751  14.781 -0.5658  0.3021 -0.2503
 8293TIP3    H146294   1.432   0.716  14.697 -0.7113  0.7187 -0.3775
 8293TIP3    H246295   1.492   0.839  14.760  0.2319  0.0832 -0.0171
 8294TIP3   OH246296   0.819   0.091   0.503 -0.4478 -0.0699 -0.0894
 8294TIP3    H146297   0.906   0.128   0.517 -0.9431  0.3217  2.0898
 8294TIP3    H246298   0.760   0.166   0.506 -1.2014 -0.7011  1.9454
 8295TIP3   OH246299   0.944   0.656  10.829  0.9092  0.6699 -0.2308
 8295TIP3    H146300   0.871   0.595  10.818  1.1402 -0.1499  2.4743
 8295TIP3    H246301   0.919   0.732  10.777 -1.5173  0.0605 -0.0256
 8296TIP3   OH246302   3.959   1.019   5.509  0.0004  0.2909 -0.4155
 8296TIP3    H146303   3.909   1.101   5.508  0.2336  0.4343 -0.7963
 8296TIP3    H246304   3.991   1.011   5.599  0.8277  1.1509 -0.6223
 8297TIP3   OH246305   4.524   3.466  16.493  0.5013 -0.7670 -0.1095
 8297TIP3    H146306   4.588   3.487  16.425 -1.3520  0.2044 -1.6159
 8297TIP3    H246307   4.533   3.372  16.507 -0.3288 -1.3443 -3.0709
 8298TIP3   OH246308   1.401   2.708   0.559  0.0037  0.5394 -0.1538
 8298TIP3    H146309   1.367   2.712   0.648  2.8128  1.0954  0.9555
 8298TIP3    H246310   1.432   2.797   0.541  0.6609  0.1174 -1.1839
 8299TIP3   OH246311   2.796   4.078   5.062 -0.0057  0.0078 -0.3050
 8299TIP3    H146312   2.834   4.111   5.143 -0.6622  1.1729 -0.4679
 8299TIP3    H246313   2.872   4.052   5.009  0.4247 -0.7118  0.6468
 8300TIP3   OH246314   2.825   1.221  16.306 -0.3145  0.2283  0.1699
 8300TIP3    H146315   2.915   1.189  16.305  0.5771  2.6050  0.1965
 8300TIP3    H246316   2.793   1.206  16.217  0.3571 -0.0221 -0.0325
 8301TIP3   OH246317   1.872   1.020  15.340  0.1333 -0.2188 -0.2903
 8301TIP3    H146318   1.853   0.982  15.254  0.0964 -0.2456 -0.2699
 8301TIP3    H246319   1.811   0.978  15.400  0.7314 -0.8218 -0.0948
 8302TIP3   OH246320   3.504   2.588  14.941 -0.1639 -0.3472  0.1416
 8302TIP3    H146321   3.435   2.648  14.911 -0.0685 -1.2693 -1.9603
 8302TIP3    H246322   3.481   2.503  14.902  1.6687 -0.8740  0.1747
 8303TIP3   OH246323   6.247   1.148   0.675  0.7108 -0.0306 -0.6202
 8303TIP3    H146324   6.220   1.240   0.673 -0.0489 -0.2429 -0.3020
 8303TIP3    H246325   6.214   1.115   0.759  0.3633 -0.7695 -1.0384
 8304TIP3   OH246326   6.555   5.518  13.306  0.2420 -0.8147 -1.0568
 8304TIP3    H146327   6.524   5.448  13.249  0.7160 -2.2027  0.3465
 8304TIP3    H246328   6.509   5.503  13.389  0.0320  0.7992 -0.8736
 8305TIP3   OH246329   3.534   2.885  11.616  0.0129 -0.3763  0.1968
 8305TIP3    H146330   3.607   2.940  11.643 -0.9028  0.5509  0.8017
 8305TIP3    H246331   3.567   2.840  11.537  1.1815  0.1200  0.3812
 8306TIP3   OH246332   3.900   3.731   0.660  0.0259 -0.2704 -0.1226
 8306TIP3    H146333   3.840   3.783   0.713 -0.3992  0.7954 -1.6330
 8306TIP3    H246334   3.854   3.648   0.646  0.6502 -1.0581  2.1600
 8307TIP3   OH246335   6.100   3.641  14.658  0.0823 -0.2967  0.6911
 8307TIP3    H146336   6.008   3.621  14.674  0.4118 -0.5438  2.3663
 8307TIP3    H246337   6.123   3.588  14.581 -1.1894 -0.1489  0.2025
 8308TIP3   OH246338   5.869   4.237  12.954 -0.0505  0.2083 -0.4077
 8308TIP3    H146339   5.831   4.162  12.999 -2.0092  0.8352 -0.9766
 8308TIP3    H246340   5.934   4.272  13.016 -0.1413 -1.0732  0.4321
 8309TIP3   OH246341   3.294   4.921   0.240 -0.1113 -0.5163 -0.4432
 8309TIP3    H146342   3.330   4.833   0.249 -2.0025 -1.1497  1.4961
 8309TIP3    H246343   3.347   4.975   0.299  2.7384  0.2304 -3.5903
 8310TIP3   OH246344   6.334   6.534   5.800 -0.2041  0.9045 -0.3496
 8310TIP3    H146345   6.422   6.498   5.811 -0.1772  0.3625 -2.1378
 8310TIP3    H246346   6.346   6.629   5.805  0.1145  0.7720  1.7693
 8311TIP3   OH246347   1.501   4.728  11.738  0.3859 -0.1933  0.0422
 8311TIP3    H146348   1.534   4.731  11.648  2.6841  0.9479  0.8701
 8311TIP3    H246349   1.488   4.820  11.762 -1.2288 -0.5325  0.5535
 8312TIP3   OH246350   3.890   0.393  14.388  0.2141 -0.2516  0.6998
 8312TIP3    H146351   3.831   0.418  14.316  0.0373  1.4650  1.3978
 8312TIP3    H246352   3.863   0.304  14.411 -0.5354 -0.3702 -0.5555
 8313TIP3   OH246353   6.538   5.239   6.265  0.0829 -0.3076  0.5611
 8313TIP3    H146354   6.474   5.189   6.215  1.3571 -0.1358 -1.2878
 8313TIP3    H246355   6.489   5.315   6.297 -1.0078 -0.9724  0.4733
 8314TIP3   OH246356   3.536   5.486   1.432 -0.3991 -0.2696  0.0022
 8314TIP3    H146357   3.526   5.493   1.527 -2.9073 -1.9451 -0.0977
 8314TIP3    H246358   3.531   5.576   1.400 -0.5200  0.2189  1.3739
 8315TIP3   OH246359   5.866   5.019  11.087 -0.0112  0.1917 -0.4499
 8315TIP3    H146360   5.832   5.070  11.014 -0.9738  0.5777  0.2566
 8315TIP3    H246361   5.804   4.947  11.097  0.8609 -0.6371 -0.8757
 8316TIP3   OH246362   6.535   0.153   1.494 -0.4398  0.2926  0.3556
 8316TIP3    H146363   6.573   0.241   1.487 -0.7994  0.5243  1.2105
 8316TIP3    H246364   6.511   0.145   1.587 -2.2189  0.0589 -0.1029
 8317TIP3   OH246365   1.424   4.530  12.854 -0.0036  0.4086 -0.2226
 8317TIP3    H146366   1.430   4.618  12.818 -0.6183  0.2604 -0.6923
 8317TIP3    H246367   1.474   4.476  12.793  1.7056  0.6729  0.9056
 8318TIP3   OH246368   2.894   3.962   4.676  0.1998  0.0675 -0.0640
 8318TIP3    H146369   2.971   3.990   4.627  1.1885 -0.5308  1.1103
 8318TIP3    H246370   2.923   3.884   4.723 -0.8030  0.4415  1.1998
 8319TIP3   OH246371   3.689   6.245  14.226 -0.5695 -0.3647 -0.3728
 8319TIP3    H146372   3.653   6.324  14.185  0.7083  1.7905  2.4303
 8319TIP3    H246373   3.614   6.207  14.272 -1.0226 -0.3442 -1.0887
 8320TIP3   OH246374   5.039   1.844  16.448  0.1896 -0.1120  0.2443
 8320TIP3    H146375   4.987   1.905  16.500 -0.3930 -1.0096  0.7314
 8320TIP3    H246376   5.068   1.895  16.372 -1.3153  0.4156  0.0203
 8321TIP3   OH246377   0.238   1.034   1.732  0.1645  0.0285 -0.1004
 8321TIP3    H146378   0.201   0.952   1.765 -4.4775  2.5900  1.4552
 8321TIP3    H246379   0.206   1.041   1.642 -0.1781  0.4958  0.0513
 8322TIP3   OH246380   4.524   2.707  13.495  0.1160  0.3656 -0.2140
 8322TIP3    H146381   4.513   2.616  13.467 -0.8319  0.3299  0.2617
 8322TIP3    H246382   4.619   2.720  13.499  0.2959  0.2823 -3.1564
 8323TIP3   OH246383   4.749   1.433   1.459 -0.5424 -0.3725  0.1155
 8323TIP3    H146384   4.802   1.425   1.539 -0.5310  1.3185  0.2835
 8323TIP3    H246385   4.710   1.520   1.465  0.6611  0.3884 -2.4771
 8324TIP3   OH246386   1.318   0.251  14.398 -0.1402 -0.7142 -0.4101
 8324TIP3    H146387   1.364   0.256  14.481 -1.2374 -3.3287  0.4023
 8324TIP3    H246388   1.382   0.281  14.333  2.5399 -3.7110  0.7444
 8325TIP3   OH246389   1.917   5.934   4.879  0.1395  0.4517  0.2312
 8325TIP3    H146390   1.938   5.846   4.849  2.6641  0.6971  1.1580
 8325TIP3    H246391   1.927   5.930   4.974 -1.7474  1.2438  0.4909
 8326TIP3   OH246392   6.575   6.769   2.606 -0.3208  0.0534 -0.5170
 8326TIP3    H146393   6.667   6.792   2.591 -0.2699 -1.5857 -3.0284
 8326TIP3    H246394   6.540   6.841   2.659  2.4148  0.6646  0.5254
 8327TIP3   OH246395   5.738   4.960  14.335 -0.1133 -0.3853 -0.4894
 8327TIP3    H146396   5.678   5.024  14.295 -1.1036 -1.4405 -0.7084
 8327TIP3    H246397   5.775   4.912  14.261  2.0409  1.1137 -0.4566
 8328TIP3   OH246398   2.242   3.469  13.965  0.0155  0.8589  0.6175
 8328TIP3    H146399   2.235   3.563  13.944 -1.8812  0.5954 -0.0351
 8328TIP3    H246400   2.186   3.426  13.900  1.8795 -0.8493  0.1042
 8329TIP3   OH246401   1.550   2.399  16.035  0.4914  0.5506  0.4718
 8329TIP3    H146402   1.595   2.429  15.956  1.6865 -1.0032  0.5265
 8329TIP3    H246403   1.571   2.465  16.101  2.8386 -0.1994  0.5223
 8330TIP3   OH246404   1.763   4.182   5.386  0.1273  0.0564 -0.3623
 8330TIP3    H146405   1.760   4.090   5.411  2.4274 -0.3090 -1.3076
 8330TIP3    H246406   1.671   4.205   5.369 -0.6869 -1.5390  1.5954
 8331TIP3   OH246407   2.814   0.729  13.082  0.5014  0.0730  0.1165
 8331TIP3    H146408   2.900   0.759  13.053  0.7107 -0.8244 -0.1955
 8331TIP3    H246409   2.764   0.810  13.097  0.6896  0.5792 -1.8191
 8332TIP3   OH246410   6.712   1.688   3.594 -0.1825  1.1093 -0.0141
 8332TIP3    H146411   6.766   1.751   3.641 -0.1780  1.9738 -1.1902
 8332TIP3    H246412   6.742   1.603   3.627  2.4151  1.5245 -1.2154
 8333TIP3   OH246413   4.291   6.380  14.349  0.0004  0.0774  0.5604
 8333TIP3    H146414   4.368   6.436  14.350  1.2295 -1.5930  0.4160
 8333TIP3    H246415   4.320   6.299  14.309 -2.1842 -0.0903 -0.7894
 8334TIP3   OH246416   4.658   2.973   6.736  0.0248 -0.9112  0.2300
 8334TIP3    H146417   4.565   2.952   6.738 -0.1732  0.0792  1.4893
 8334TIP3    H246418   4.664   3.050   6.680  0.6855 -3.7712 -3.8847
 8335TIP3   OH246419   1.549   2.086  10.838  0.1464  0.1677 -0.1804
 8335TIP3    H146420   1.560   2.144  10.763  0.9364  3.0016  2.0649
 8335TIP3    H246421   1.631   2.093  10.887 -1.4761  0.7447  2.5698
 8336TIP3   OH246422   2.973   0.599   0.126  0.2298 -0.4844 -0.2450
 8336TIP3    H146423   2.974   0.507   0.150  0.6558 -0.5632 -0.5602
 8336TIP3    H246424   2.931   0.643   0.201  0.6622 -0.8496  0.2145
 8337TIP3   OH246425   6.456   3.392  14.947  0.4263  0.2627 -0.0417
 8337TIP3    H146426   6.535   3.410  14.998  1.4440  1.2517 -1.8730
 8337TIP3    H246427   6.463   3.451  14.871 -1.8824  0.0837 -0.4414
 8338TIP3   OH246428   2.153   3.654   5.287 -0.1109 -0.1349  0.7979
 8338TIP3    H146429   2.176   3.583   5.346 -4.2495 -1.6037  0.8172
 8338TIP3    H246430   2.115   3.721   5.344  3.4765  2.0596  0.7468
 8339TIP3   OH246431   3.436   5.266   4.087  0.3458 -0.6978  0.1660
 8339TIP3    H146432   3.353   5.314   4.079  1.7119  1.5692 -0.8468
 8339TIP3    H246433   3.442   5.215   4.006  0.8811  0.6824 -0.6721
 8340TIP3   OH246434   3.888   0.728  15.484  0.0121 -0.0948  0.1021
 8340TIP3    H146435   3.910   0.817  15.508  2.5852 -0.1893 -1.7487
 8340TIP3    H246436   3.887   0.728  15.388 -0.7676 -1.8595  0.0762
 8341TIP3   OH246437   0.483   1.042   3.382  0.0079  0.1627 -0.2852
 8341TIP3    H146438   0.494   1.025   3.476  0.4767  1.2444 -0.1375
 8341TIP3    H246439   0.406   0.990   3.358 -0.5105  0.3861  0.8405
 8342TIP3   OH246440   0.947   0.381  11.345 -0.7421  0.0015  0.2758
 8342TIP3    H146441   0.921   0.464  11.307  0.4866  0.2763  0.0221
 8342TIP3    H246442   0.866   0.329  11.348 -1.6384  1.4147  1.0164
 8343TIP3   OH246443   6.527   3.744  12.263  0.1408 -0.1186 -0.1900
 8343TIP3    H146444   6.602   3.715  12.315  1.1861  1.7806 -0.6052
 8343TIP3    H246445   6.501   3.827  12.303 -0.8360 -0.0480 -0.9571
 8344TIP3   OH246446   1.889   5.008   2.734  0.4277 -0.0240  0.3912
 8344TIP3    H146447   1.903   5.009   2.829  1.1630  1.7043  0.2721
 8344TIP3    H246448   1.795   4.992   2.725  0.2851  0.1773  1.4237
 8345TIP3   OH246449   4.174   0.315   0.452  0.0029 -0.2881 -0.8805
 8345TIP3    H146450   4.235   0.302   0.380  0.3991 -3.8892  0.0446
 8345TIP3    H246451   4.087   0.309   0.412  0.2336 -0.0614 -1.4069
 8346TIP3   OH246452   1.263   5.589   4.559 -0.3691  0.0971  0.7954
 8346TIP3    H146453   1.283   5.678   4.528 -0.4169 -0.7629 -1.8612
 8346TIP3    H246454   1.168   5.580   4.547  0.1259 -1.5576 -2.6292
 8347TIP3   OH246455   1.010   5.435  16.107  0.0406  0.1866  0.0563
 8347TIP3    H146456   0.968   5.397  16.184 -0.5509 -1.0348 -0.8498
 8347TIP3    H246457   1.090   5.384  16.095  0.5856  0.9591  0.3820
 8348TIP3   OH246458   4.918   5.438  11.624 -0.5181  0.1692  0.2373
 8348TIP3    H146459   4.908   5.529  11.652  0.3371  0.7268 -1.2049
 8348TIP3    H246460   4.879   5.436  11.536  1.8485 -0.2179 -0.8311
 8349TIP3   OH246461   0.646   5.074  11.349  0.1027  0.2098  0.2802
 8349TIP3    H146462   0.560   5.040  11.321 -0.0851 -0.2107  1.3385
 8349TIP3    H246463   0.626   5.132  11.423  0.7544 -0.0812  0.6872
 8350TIP3   OH246464   1.899   2.672  10.356  0.3175 -0.0579  0.2958
 8350TIP3    H146465   1.838   2.678  10.429  1.2165  0.0266  1.0474
 8350TIP3    H246466   1.863   2.731  10.289  0.2698  0.9929  1.2329
 8351TIP3   OH246467   3.100   6.062   4.602  0.3861  0.5761 -0.2866
 8351TIP3    H146468   3.143   6.085   4.684 -2.8049  1.7592  1.1548
 8351TIP3    H246469   3.084   5.968   4.608  2.2090  0.2398 -0.5806
 8352TIP3   OH246470   1.276   1.122   6.087 -0.1030 -0.0017 -0.0148
 8352TIP3    H146471   1.205   1.121   6.151  0.6639 -0.5071  0.8362
 8352TIP3    H246472   1.233   1.141   6.004 -1.4587 -1.8910  0.2262
 8353TIP3   OH246473   1.368   2.755  17.144 -0.2535 -0.5805  0.2659
 8353TIP3    H146474   1.412   2.677  17.110  0.1475  0.7899 -2.4822
 8353TIP3    H246475   1.433   2.825  17.138 -1.3392  0.4791  0.4571
 8354TIP3   OH246476   5.517   5.086   2.344  0.2792  0.4632 -0.2104
 8354TIP3    H146477   5.565   5.154   2.297 -0.0495  1.2882  0.6424
 8354TIP3    H246478   5.462   5.133   2.407 -0.5846 -0.5418 -0.1863
 8355TIP3   OH246479   4.836   5.290  14.881  0.4307 -0.3052 -0.2553
 8355TIP3    H146480   4.832   5.277  14.787  1.1376  0.7828 -0.4503
 8355TIP3    H246481   4.748   5.271  14.912  0.3929 -1.4353 -1.0299
 8356TIP3   OH246482   4.413   6.698   2.180 -0.1060 -0.1720  0.0467
 8356TIP3    H146483   4.366   6.780   2.198 -0.0733 -0.4189  1.3262
 8356TIP3    H246484   4.346   6.639   2.146 -1.0044 -0.8640  2.8501
 8357TIP3   OH246485   4.832   4.526  12.744  0.0209  0.0145 -0.1631
 8357TIP3    H146486   4.750   4.535  12.793  0.3347  1.0777  0.1588
 8357TIP3    H246487   4.804   4.493  12.658 -0.8372  1.2400 -0.3643
 8358TIP3   OH246488   4.475   6.584  16.259  0.0839 -0.5455 -0.8349
 8358TIP3    H146489   4.559   6.601  16.302  0.2597 -1.0944 -0.9615
 8358TIP3    H246490   4.488   6.615  16.169 -0.1849  0.3195 -0.5799
 8359TIP3   OH246491   5.347   6.682   3.538 -0.3468  0.7132  0.2472
 8359TIP3    H146492   5.333   6.748   3.470  0.3966  0.4817 -0.1397
 8359TIP3    H246493   5.302   6.717   3.615 -0.9939  1.0868 -0.2997
 8360TIP3   OH246494   3.796   0.368  12.667  0.5216 -0.1285  0.5794
 8360TIP3    H146495   3.728   0.305  12.692  0.3281  0.2078  0.8900
 8360TIP3    H246496   3.797   0.433  12.737  3.0132 -1.5847  1.9939
 8361TIP3   OH246497   5.668   2.187  11.508  0.3823  0.3387  0.5715
 8361TIP3    H146498   5.617   2.107  11.499  1.1869 -0.2926  1.4344
 8361TIP3    H246499   5.624   2.251  11.453 -0.9177 -0.3871  0.7617
 8362TIP3   OH246500   1.433   2.612  14.295 -0.0715  0.3858  0.2525
 8362TIP3    H146501   1.362   2.667  14.328  2.6979  2.2058  3.3717
 8362TIP3    H246502   1.429   2.533  14.349  1.9161  1.6445  2.3041
 8363TIP3   OH246503   0.515   2.179  17.107  0.3325  0.0666  0.3643
 8363TIP3    H146504   0.501   2.115  17.037  1.4394 -0.8286  0.9443
 8363TIP3    H246505   0.435   2.174  17.160 -0.4506  0.6540 -0.7552
 8364TIP3   OH246506   6.572   0.866   4.604  0.5458  0.1535  0.3263
 8364TIP3    H146507   6.525   0.923   4.543 -0.0496 -0.0049  0.6379
 8364TIP3    H246508   6.664   0.873   4.577  0.1960 -0.5223 -1.1002
 8365TIP3   OH246509   2.362   4.717   6.029  0.6427 -0.1457 -0.0228
 8365TIP3    H146510   2.414   4.792   6.001  0.0234  0.2269 -0.2046
 8365TIP3    H246511   2.322   4.745   6.111  0.4713 -0.3026 -0.0530
 8366TIP3   OH246512   5.710   3.652   5.178  0.0269  0.0633 -0.3712
 8366TIP3    H146513   5.753   3.568   5.194 -0.3936  0.2935  2.2174
 8366TIP3    H246514   5.783   3.715   5.170  0.3195 -0.4287 -1.6351
 8367TIP3   OH246515   3.252   3.741  12.917  0.0720  0.9471 -0.8987
 8367TIP3    H146516   3.228   3.653  12.945  2.7147  0.3608 -0.4135
 8367TIP3    H246517   3.230   3.743  12.824 -0.3763 -0.0690 -0.8221
 8368TIP3   OH246518   1.527   5.755  13.670 -0.5722  0.1758  0.3032
 8368TIP3    H146519   1.608   5.711  13.644 -0.1547  2.3675 -2.3937
 8368TIP3    H246520   1.458   5.707  13.623 -0.4384  0.4272 -0.1631
 8369TIP3   OH246521   2.120   1.695  11.269 -0.2020 -0.2231  0.4273
 8369TIP3    H146522   2.117   1.608  11.308 -0.3319 -0.9362 -1.1544
 8369TIP3    H246523   2.135   1.680  11.176  0.7817  1.4778  0.2835
 8370TIP3   OH246524   6.267   1.661   0.030 -0.4046 -0.0810  0.3778
 8370TIP3    H146525   6.311   1.600  -0.029  1.1969  2.7260 -1.4694
 8370TIP3    H246526   6.325   1.667   0.106  1.4724  1.9936 -1.1300
 8371TIP3   OH246527   5.260   4.601   5.207 -0.3460  0.1033 -0.3748
 8371TIP3    H146528   5.332   4.540   5.190  0.0795  1.0563 -2.1263
 8371TIP3    H246529   5.261   4.614   5.302  0.1877 -1.8215 -0.0986
 8372TIP3   OH246530   3.165   5.891   5.068  0.1178 -0.8874  0.4166
 8372TIP3    H146531   3.089   5.844   5.104  0.3514 -0.7709  1.0688
 8372TIP3    H246532   3.212   5.923   5.145  0.3715 -0.2305 -0.0111
 8373TIP3   OH246533   5.814   6.488   1.361 -0.0308 -0.1694  0.3625
 8373TIP3    H146534   5.750   6.458   1.426  1.3315 -2.2272  0.7912
 8373TIP3    H246535   5.876   6.541   1.411  1.2436 -2.0819  0.8519
 8374TIP3   OH246536   4.413   5.285   5.413 -0.3887 -0.0615 -0.0455
 8374TIP3    H146537   4.339   5.224   5.404 -0.7074  0.1860  0.8361
 8374TIP3    H246538   4.480   5.235   5.460 -0.3021 -0.0255 -0.1305
 8375TIP3   OH246539   0.274   4.755   0.003  0.2106 -0.3527 -0.3646
 8375TIP3    H146540   0.332   4.707  -0.056 -0.2762  0.8956 -1.9021
 8375TIP3    H246541   0.255   4.836  -0.044  0.3420  0.9625  1.8115
 8376TIP3   OH246542   1.745   4.653   0.884  0.2827  0.0355 -0.4757
 8376TIP3    H146543   1.805   4.588   0.849  1.6025  1.2464 -0.5303
 8376TIP3    H246544   1.710   4.698   0.807  1.6407  1.3445 -0.3603
 8377TIP3   OH246545   0.695   1.407  16.017 -0.1795  0.0582  0.1202
 8377TIP3    H146546   0.728   1.395  16.106 -0.0571 -2.0552 -0.1858
 8377TIP3    H246547   0.646   1.489  16.020  1.3655  0.9673  1.6732
 8378TIP3   OH246548   3.046   4.530   0.541 -0.4422 -0.4119 -0.1119
 8378TIP3    H146549   3.020   4.467   0.475 -1.5491 -0.6848  0.5649
 8378TIP3    H246550   2.992   4.608   0.523  0.0669 -0.0871 -0.2290
 8379TIP3   OH246551   6.464   5.028   6.070  0.1151  0.3549 -0.5601
 8379TIP3    H146552   6.382   4.980   6.081 -0.5832  2.0529  2.2832
 8379TIP3    H246553   6.530   4.973   6.112 -0.7188  1.8752  2.8850
 8380TIP3   OH246554   2.929   4.151  11.723  0.5258  0.0038  0.4216
 8380TIP3    H146555   2.977   4.146  11.805  3.1236  2.2667 -0.8969
 8380TIP3    H246556   2.991   4.188  11.660 -2.2587  0.9947 -1.8941
 8381TIP3   OH246557   3.469   2.299  13.626 -0.0966  0.8204  0.6311
 8381TIP3    H146558   3.531   2.229  13.645 -0.2555  0.7285  0.8134
 8381TIP3    H246559   3.491   2.369  13.688  0.3520  1.1050  0.1434
 8382TIP3   OH246560   6.132   0.885  16.319  0.7089 -0.5454  0.1249
 8382TIP3    H146561   6.072   0.884  16.394  0.1253  0.1547 -0.3348
 8382TIP3    H246562   6.206   0.830  16.347  0.4410 -0.3856  1.1672
 8383TIP3   OH246563   5.401   6.280   3.942  0.5519 -0.2716 -0.0241
 8383TIP3    H146564   5.415   6.329   3.861 -0.7075  1.2476  0.6702
 8383TIP3    H246565   5.345   6.335   3.995 -0.9307 -2.4772  0.7824
 8384TIP3   OH246566   2.643   1.878   4.917  0.2397 -0.1727  0.2390
 8384TIP3    H146567   2.666   1.963   4.956 -0.1462  0.5765 -1.1341
 8384TIP3    H246568   2.721   1.824   4.930  0.7789  0.6379  0.4327
 8385TIP3   OH246569   1.687   0.730   4.092 -0.0928 -0.0352 -0.0258
 8385TIP3    H146570   1.708   0.801   4.153  0.5625 -0.0440 -0.2439
 8385TIP3    H246571   1.772   0.696   4.064 -0.4009 -0.8887  0.0549
 8386TIP3   OH246572   3.534   3.737  15.084  0.2206 -0.0314  0.2904
 8386TIP3    H146573   3.472   3.804  15.111 -0.3657  0.4420 -2.0573
 8386TIP3    H246574   3.615   3.784  15.066  0.6328 -0.3480  1.3159
 8387TIP3   OH246575   3.809   1.233   1.591  0.7266  0.7163 -0.2447
 8387TIP3    H146576   3.856   1.274   1.664 -0.7940 -0.1233  1.2149
 8387TIP3    H246577   3.737   1.293   1.572  0.3900  0.3191 -0.2302
 8388TIP3   OH246578   6.304   6.673  10.510  0.2119  0.1882 -0.6494
 8388TIP3    H146579   6.282   6.743  10.571  0.7876  0.0339 -0.2505
 8388TIP3    H246580   6.399   6.664  10.517  0.1200 -0.7790 -0.5338
 8389TIP3   OH246581   4.285   4.382   3.920 -0.4756 -0.0251  0.6307
 8389TIP3    H146582   4.286   4.459   3.977 -1.3711  0.3871  0.1068
 8389TIP3    H246583   4.193   4.356   3.918 -0.4651  0.0391 -0.7279
 8390TIP3   OH246584   6.200   4.186  12.215  0.5369 -0.6747  0.4863
 8390TIP3    H146585   6.254   4.137  12.277 -0.6442 -2.5110  0.0959
 8390TIP3    H246586   6.123   4.131  12.202 -1.3499  1.7848  0.8547
 8391TIP3   OH246587   4.471   2.594   5.450 -0.0091 -0.0478  0.1671
 8391TIP3    H146588   4.486   2.688   5.436 -2.9918  0.5028  0.4886
 8391TIP3    H246589   4.490   2.581   5.543 -0.5834  0.4431  0.3552
 8392TIP3   OH246590   0.528   3.492   4.473 -0.0113 -0.1311 -0.0926
 8392TIP3    H146591   0.595   3.454   4.416  1.4502  1.6148  0.4322
 8392TIP3    H246592   0.469   3.538   4.413 -0.5807 -1.3756 -0.5177
 8393TIP3   OH246593   0.129   6.749  13.151  0.1792  0.5194  0.4811
 8393TIP3    H146594   0.202   6.807  13.171 -1.9514  2.7151  2.2448
 8393TIP3    H246595   0.084   6.791  13.078  0.2691 -0.4235 -0.1165
 8394TIP3   OH246596   4.326   2.866  16.983 -0.2920 -0.5794  0.0343
 8394TIP3    H146597   4.254   2.834  17.038 -0.1767  0.2549  0.6723
 8394TIP3    H246598   4.404   2.858  17.038 -0.1953  0.3795  0.0439
 8395TIP3   OH246599   3.704   2.713   0.002 -0.1555 -0.2446  0.4829
 8395TIP3    H146600   3.709   2.668   0.087  0.5342  0.3185  0.7514
 8395TIP3    H246601   3.704   2.806   0.025 -1.4453 -0.1002 -0.0804
 8396TIP3   OH246602   3.052   2.497  16.366  0.3272 -0.1278 -0.4827
 8396TIP3    H146603   3.009   2.582  16.366  1.9087  0.8050  4.4579
 8396TIP3    H246604   3.007   2.447  16.433  0.9005 -2.4318 -1.7611
 8397TIP3   OH246605   2.120   3.507  13.577 -0.0387  0.4296 -0.3077
 8397TIP3    H146606   2.162   3.592  13.593  0.3748  0.4140 -1.2961
 8397TIP3    H246607   2.177   3.444  13.622 -2.4421  1.0342  3.8119
 8398TIP3   OH246608   5.268   2.301  12.285  0.2257 -0.3988  0.0385
 8398TIP3    H146609   5.337   2.236  12.273 -0.5334 -1.4973  1.5412
 8398TIP3    H246610   5.314   2.383  12.303  1.1646 -0.6479 -1.1930
 8399TIP3   OH246611   3.892   3.483  14.214 -0.1775  0.3059  0.4122
 8399TIP3    H146612   3.822   3.545  14.235 -1.0144 -0.2423 -0.6786
 8399TIP3    H246613   3.972   3.535  14.217 -0.6540  0.9934  1.4408
 8400TIP3   OH246614   5.615   4.590   2.191 -0.6331  0.1308 -0.1675
 8400TIP3    H146615   5.668   4.637   2.256 -0.2856  1.3074 -1.2759
 8400TIP3    H246616   5.678   4.557   2.128 -1.1350  0.8574 -1.0679
 8401TIP3   OH246617   5.381   3.649  16.961 -0.0662 -0.4109 -0.0156
 8401TIP3    H146618   5.337   3.708  17.022 -0.2564  0.0682 -0.6036
 8401TIP3    H246619   5.458   3.618  17.008  0.7936  1.4037 -0.1996
 8402TIP3   OH246620   2.876   3.194   4.252 -0.1237  0.0767 -0.2134
 8402TIP3    H146621   2.940   3.168   4.320  1.8532  3.9687 -0.4202
 8402TIP3    H246622   2.793   3.197   4.298  0.8552  0.6841  1.5804
 8403TIP3   OH246623   6.422   3.738  14.510  0.1198  0.1624 -1.0031
 8403TIP3    H146624   6.409   3.668  14.446 -1.3188 -0.8375  0.3661
 8403TIP3    H246625   6.514   3.729  14.537  0.4421 -0.0572 -2.1396
 8404TIP3   OH246626   3.671   1.815  12.346  0.2183 -0.2454  0.3722
 8404TIP3    H146627   3.590   1.768  12.326 -0.8325  2.0595 -1.0163
 8404TIP3    H246628   3.690   1.865  12.267  3.3132 -1.1199  0.4989
 8405TIP3   OH246629   4.633   3.972  16.155 -0.7776 -0.4550  0.3199
 8405TIP3    H146630   4.593   4.054  16.184  0.9860  0.1892  1.0033
 8405TIP3    H246631   4.607   3.908  16.221 -0.9135 -0.1003  0.6145
 8406TIP3   OH246632   1.363   4.133  14.846 -0.1675 -0.2263 -0.3217
 8406TIP3    H146633   1.318   4.215  14.869 -1.9931 -0.2980 -3.3859
 8406TIP3    H246634   1.421   4.157  14.774  2.7152 -0.7480  1.7204
 8407TIP3   OH246635   6.734   5.582  15.308 -0.7954  0.5115 -1.0532
 8407TIP3    H146636   6.701   5.544  15.389  0.7617  0.4083 -0.4362
 8407TIP3    H246637   6.707   5.674  15.311 -0.1081  0.6843 -0.0597
 8408TIP3   OH246638   3.188   0.790  16.350  0.7371  0.3769 -1.3907
 8408TIP3    H146639   3.238   0.711  16.333 -0.6522 -0.5491 -1.2564
 8408TIP3    H246640   3.097   0.764  16.337  0.1421  1.4954  0.3453
 8409TIP3   OH246641   4.634   2.579   2.308 -0.1144 -0.1508 -0.3669
 8409TIP3    H146642   4.620   2.488   2.336 -0.9200  0.9235  2.9558
 8409TIP3    H246643   4.721   2.601   2.340 -0.6998  0.8202  0.6102
 8410TIP3   OH246644   0.354   0.720  14.596  0.0247  0.1230  0.3255
 8410TIP3    H146645   0.372   0.706  14.504 -0.4511 -0.6113  0.3373
 8410TIP3    H246646   0.362   0.814  14.608  0.8230  0.1401 -0.3002
 8411TIP3   OH246647   3.230   3.922  14.553  0.4952 -0.3520  0.5560
 8411TIP3    H146648   3.259   3.941  14.464  0.3367 -1.4189  0.2721
 8411TIP3    H246649   3.250   3.830  14.566 -1.7003 -0.8415  0.7501
 8412TIP3   OH246650   2.049   3.298  12.227 -0.1018 -0.2609 -0.5105
 8412TIP3    H146651   2.036   3.346  12.309 -0.4703 -0.7081 -0.3095
 8412TIP3    H246652   2.036   3.206  12.250  1.6787 -0.5653 -0.6746
 8413TIP3   OH246653   1.485   5.006   0.272  0.0073  0.2050 -0.1576
 8413TIP3    H146654   1.536   4.938   0.226  0.0638  0.4826 -0.5070
 8413TIP3    H246655   1.409   4.959   0.306  1.6962 -0.7543  2.5149
 8414TIP3   OH246656   5.437   2.538   4.520  0.1105 -0.1144 -0.0162
 8414TIP3    H146657   5.424   2.458   4.572  3.0594  0.1189  1.1607
 8414TIP3    H246658   5.510   2.518   4.463  0.4587  1.5267 -0.1680
 8415TIP3   OH246659   1.143   6.680  13.407 -0.5523  1.2102 -0.0537
 8415TIP3    H146660   1.113   6.758  13.454 -0.0765  1.1962  0.2750
 8415TIP3    H246661   1.064   6.645  13.366 -1.3435  0.1331  2.3203
 8416TIP3   OH246662   3.942   4.368   0.308  0.2332  0.2853 -0.7850
 8416TIP3    H146663   3.947   4.329   0.396  1.1469  0.0158 -0.9552
 8416TIP3    H246664   3.959   4.461   0.323 -1.6370  0.5860 -0.4203
 8417TIP3   OH246665   6.394   3.126   6.368  0.2785  0.1342 -0.5029
 8417TIP3    H146666   6.486   3.139   6.391  0.1620  1.2597 -0.6219
 8417TIP3    H246667   6.382   3.031   6.369  1.1812  0.0199  0.5205
 8418TIP3   OH246668   2.817   5.914  13.138 -0.9845 -0.6191 -0.4263
 8418TIP3    H146669   2.744   5.975  13.147  0.5051  1.1223  0.0319
 8418TIP3    H246670   2.833   5.884  13.228  1.2007  1.8073  0.0457
 8419TIP3   OH246671   1.132   0.200  15.140  0.1682  0.2438 -0.9619
 8419TIP3    H146672   1.150   0.137  15.070  1.5931  0.9691 -1.2576
 8419TIP3    H246673   1.050   0.242  15.114 -0.0097 -0.4364 -1.5068
 8420TIP3   OH246674   6.513   6.298   3.982  0.2309  0.5196 -0.6779
 8420TIP3    H146675   6.563   6.228   4.023 -0.2929  0.4329 -0.1791
 8420TIP3    H246676   6.572   6.334   3.915  1.1624  0.7847  0.2792
 8421TIP3   OH246677   4.376   1.517  16.959 -0.0780  0.4111  0.0781
 8421TIP3    H146678   4.372   1.612  16.961 -2.4275  0.3358  1.0936
 8421TIP3    H246679   4.428   1.494  17.036 -0.0960  0.8679  0.2305
 8422TIP3   OH246680   0.661   0.977   5.766 -0.3073  0.5302 -0.0242
 8422TIP3    H146681   0.657   0.885   5.743  0.3590  0.5134 -0.0908
 8422TIP3    H246682   0.636   0.980   5.859 -0.3072  0.2793 -0.0175
 8423TIP3   OH246683   1.934   3.578  15.261  0.4384 -0.0089  0.0413
 8423TIP3    H146684   1.911   3.485  15.260 -0.5531  0.2143 -3.4664
 8423TIP3    H246685   1.869   3.620  15.204  2.3796  2.4811 -0.4332
 8424TIP3   OH246686   5.357   5.236   2.504  0.0288 -0.0471  0.3880
 8424TIP3    H146687   5.264   5.218   2.491  0.1009 -0.1842  0.0439
 8424TIP3    H246688   5.359   5.313   2.561 -0.3032  0.3278 -0.0952
 8425TIP3   OH246689   4.961   3.249  15.952  0.0468 -0.0466  0.1275
 8425TIP3    H146690   4.945   3.155  15.964 -0.1626  0.0465  0.5719
 8425TIP3    H246691   4.992   3.280  16.037  1.6643 -0.0229 -0.4417
 8426TIP3   OH246692   5.984   0.134  14.032 -0.2106 -0.5221  0.3398
 8426TIP3    H146693   5.896   0.108  14.061 -0.3492 -1.2309 -0.6700
 8426TIP3    H246694   5.968   0.208  13.973 -0.1043 -0.4251  0.4348
 8427TIP3   OH246695   5.816   1.608  15.290  0.2906  0.0212  0.3292
 8427TIP3    H146696   5.876   1.613  15.365  0.6928 -0.5475  0.0537
 8427TIP3    H246697   5.828   1.519  15.256  1.7875  0.9998 -1.7987
 8428TIP3   OH246698   2.604   1.086  11.194 -0.2758  0.6520 -0.6966
 8428TIP3    H146699   2.682   1.142  11.190 -0.3061  0.7051 -0.5497
 8428TIP3    H246700   2.533   1.146  11.217 -0.0969  0.3525  0.6678
 8429TIP3   OH246701   1.473   1.646  14.476 -0.0787  0.6525 -0.0341
 8429TIP3    H146702   1.414   1.720  14.459  1.0164  1.0734 -2.0849
 8429TIP3    H246703   1.557   1.686  14.496  0.1175 -0.0118  0.4931
 8430TIP3   OH246704   0.590   1.982  13.408 -0.2508 -0.2228  0.0232
 8430TIP3    H146705   0.661   2.023  13.359  0.0741  1.0802  1.5237
 8430TIP3    H246706   0.515   2.039  13.394 -0.3846 -0.3226  0.3265
 8431TIP3   OH246707   5.071   3.058   5.500  1.0657 -0.5244 -0.7061
 8431TIP3    H146708   5.055   3.060   5.406  0.3953  0.9052 -0.5789
 8431TIP3    H246709   5.031   3.139   5.533  2.3859 -0.3911  0.6285
 8432TIP3   OH246710   1.275   6.302   3.238 -0.2415  0.3304 -0.3054
 8432TIP3    H146711   1.182   6.280   3.246  0.0346 -1.3659 -1.5260
 8432TIP3    H246712   1.282   6.350   3.156 -0.0940  0.8497  0.0067
 8433TIP3   OH246713   3.349   0.080  12.081  0.0233  0.0582  0.5749
 8433TIP3    H146714   3.297   0.125  12.148 -0.3254 -0.5258  0.6946
 8433TIP3    H246715   3.300   0.001  12.061 -1.1319  1.4007 -2.1418
 8434TIP3   OH246716   6.189   0.845  11.423 -0.8726  0.2004  0.2879
 8434TIP3    H146717   6.174   0.817  11.514 -2.8075 -3.5692 -1.1018
 8434TIP3    H246718   6.244   0.776  11.386 -1.8237  0.6437 -1.9961
 8435TIP3   OH246719   6.620   6.490   0.605  0.0429 -0.0355 -0.0531
 8435TIP3    H146720   6.698   6.436   0.618  0.7875  0.8584 -0.6865
 8435TIP3    H246721   6.652   6.580   0.616 -1.1595  0.2819  0.9438
 8436TIP3   OH246722   1.649   5.331  10.997 -0.1042 -0.2270 -0.5795
 8436TIP3    H146723   1.639   5.266  11.066  0.4028 -0.9278 -1.1627
 8436TIP3    H246724   1.600   5.407  11.029 -0.0310 -0.6075  0.4611
 8437TIP3   OH246725   1.457   4.638   2.243  0.1560  0.2038  0.7027
 8437TIP3    H146726   1.482   4.716   2.194 -0.4345  1.2285  1.9968
 8437TIP3    H246727   1.408   4.584   2.181  2.3280 -0.0934 -0.7860
 8438TIP3   OH246728   2.022   0.981  12.855 -0.3394 -0.3301  0.3527
 8438TIP3    H146729   1.936   1.020  12.873 -0.6708 -0.3301 -1.1277
 8438TIP3    H246730   2.006   0.886  12.860 -1.0588 -0.4124 -2.4351
 8439TIP3   OH246731   4.633   3.955  12.018 -0.8765 -0.0449  0.2460
 8439TIP3    H146732   4.689   4.010  12.072  0.1901  0.4251 -1.2972
 8439TIP3    H246733   4.547   3.959  12.060 -0.7516  2.5489  0.3401
 8440TIP3   OH246734   2.197   1.412   1.344  0.3316 -0.0715  0.9759
 8440TIP3    H146735   2.255   1.425   1.420  0.2485  0.2458  0.9834
 8440TIP3    H246736   2.246   1.351   1.288  0.5116 -0.0964  1.1568
 8441TIP3   OH246737   5.292   3.594   1.462 -0.0158  1.4894  0.1198
 8441TIP3    H146738   5.234   3.669   1.481 -0.3921  1.3657 -0.5069
 8441TIP3    H246739   5.322   3.610   1.373 -0.3882  0.7058 -0.1521
 8442TIP3   OH246740   2.203   2.660   0.835  0.0088 -0.2565  0.0410
 8442TIP3    H146741   2.213   2.738   0.890 -1.5695 -0.2219  0.2802
 8442TIP3    H246742   2.279   2.662   0.777  0.1371  1.2919  0.2533
 8443TIP3   OH246743   0.924   2.572   2.252  0.0556  0.5634  0.3647
 8443TIP3    H146744   0.914   2.630   2.177  1.4698  0.4809  0.0937
 8443TIP3    H246745   0.970   2.496   2.217 -1.0451 -0.3674  0.8919
 8444TIP3   OH246746   2.316   4.611  13.058 -0.1530 -0.8890 -0.1074
 8444TIP3    H146747   2.403   4.645  13.033 -0.3438  0.1216  0.5702
 8444TIP3    H246748   2.296   4.655  13.140 -1.8458 -0.1744 -0.8717
 8445TIP3   OH246749   4.696   2.692   1.218  0.3923  0.4279  0.3325
 8445TIP3    H146750   4.681   2.749   1.143  0.9224  1.6904  1.1542
 8445TIP3    H246751   4.652   2.737   1.291  0.8493 -0.1880  1.0020
 8446TIP3   OH246752   0.656   6.559  14.635  0.0541 -0.4358 -0.2180
 8446TIP3    H146753   0.584   6.504  14.669  0.3242 -0.5331  0.1972
 8446TIP3    H246754   0.717   6.565  14.708 -1.5792  3.2688  0.9430
 8447TIP3   OH246755   2.175   5.002   0.347  0.0868 -0.4752  0.2379
 8447TIP3    H146756   2.128   5.071   0.300 -0.1929 -1.6452 -1.2290
 8447TIP3    H246757   2.106   4.953   0.392  0.0883 -1.0020 -0.3302
 8448TIP3   OH246758   4.787   4.339   4.181 -0.2645  0.0636  0.0468
 8448TIP3    H146759   4.694   4.322   4.169 -0.1671  0.5682 -1.5947
 8448TIP3    H246760   4.792   4.429   4.212 -0.3305 -0.0595  0.4179
 8449TIP3   OH246761   5.699   1.487   2.109  0.7409  0.0791  0.1918
 8449TIP3    H146762   5.795   1.491   2.106  0.8175 -1.3045  0.1432
 8449TIP3    H246763   5.674   1.461   2.020  0.4735 -1.7591  0.7792
 8450TIP3   OH246764   4.234   5.089   5.453  0.2757 -0.2672 -0.4436
 8450TIP3    H146765   4.161   5.027   5.454  0.4387 -0.4666 -0.6681
 8450TIP3    H246766   4.285   5.066   5.530 -0.2544  0.3069  0.0838
 8451TIP3   OH246767   1.403   3.305  11.303 -0.1109  0.3986 -0.0529
 8451TIP3    H146768   1.381   3.217  11.272 -0.8379  1.1333 -1.6552
 8451TIP3    H246769   1.465   3.338  11.239  0.0859  1.0997  0.4972
 8452TIP3   OH246770   4.656   0.986  17.049 -0.6597 -0.3005  0.5023
 8452TIP3    H146771   4.746   0.989  17.081  0.0464 -0.2249 -1.4773
 8452TIP3    H246772   4.636   1.077  17.025 -1.3223 -0.2895  1.0654
 8453TIP3   OH246773   6.169   6.454  10.050  0.3380 -0.4191  0.2919
 8453TIP3    H146774   6.092   6.458  10.106 -0.3086 -1.5499 -0.5073
 8453TIP3    H246775   6.232   6.512  10.093 -0.7482  0.0803  1.2503
 8454TIP3   OH246776   5.725   0.998  16.000  0.4699  0.8107 -0.0681
 8454TIP3    H146777   5.758   0.963  15.917  1.3499  1.5205 -0.0194
 8454TIP3    H246778   5.748   0.930  16.065 -1.2343 -0.2713 -0.5731
 8455TIP3   OH246779   4.315   5.764   3.043  0.0721 -0.0734 -0.0667
 8455TIP3    H146780   4.295   5.835   2.983  1.4379 -0.9368 -1.6193
 8455TIP3    H246781   4.336   5.690   2.986  0.1450 -1.2900  1.4930
 8456TIP3   OH246782   4.848   6.024  13.701  0.1259  0.4008  0.3535
 8456TIP3    H146783   4.916   6.024  13.768  0.2568  2.1439  0.2499
 8456TIP3    H246784   4.777   5.970  13.739  0.1222  1.5039  1.9802
 8457TIP3   OH246785   5.940   2.647   5.564 -0.4083  1.1301  0.1020
 8457TIP3    H146786   5.870   2.674   5.504 -0.3815 -0.8364 -0.8271
 8457TIP3    H246787   6.001   2.597   5.510  0.7206  1.1619  1.3244
 8458TIP3   OH246788   5.559   1.360  14.937 -0.1674  0.1814  0.0662
 8458TIP3    H146789   5.549   1.384  15.029 -0.9669  0.2295 -0.0384
 8458TIP3    H246790   5.533   1.438  14.889 -0.7739 -0.1980 -0.2262
 8459TIP3   OH246791   0.849   5.015   4.974  0.8144  0.4401 -0.7583
 8459TIP3    H146792   0.887   5.030   4.888  0.3914  0.2801 -0.9731
 8459TIP3    H246793   0.898   4.941   5.010  1.4735  0.9696 -0.5689
 8460TIP3   OH246794   4.632   5.499  10.579  0.1106 -0.2780  0.5229
 8460TIP3    H146795   4.675   5.582  10.562  0.6276 -0.8822 -1.1915
 8460TIP3    H246796   4.541   5.513  10.552  0.3231 -0.4321 -0.2795
 8461TIP3   OH246797   1.025   6.680   5.163  0.0293  0.1236  0.3478
 8461TIP3    H146798   1.104   6.728   5.137  0.9407 -1.3691  0.2977
 8461TIP3    H246799   0.993   6.640   5.082  0.7328 -1.4420  0.8286
 8462TIP3   OH246800   2.122   1.309   3.136 -0.0181 -0.2302  0.3665
 8462TIP3    H146801   2.200   1.327   3.083  0.6955 -1.0475  1.1220
 8462TIP3    H246802   2.120   1.380   3.200 -0.4113  0.2946 -0.2213
 8463TIP3   OH246803   2.999   1.706   3.213  0.0431  0.5120  0.4124
 8463TIP3    H146804   2.952   1.746   3.286  0.4460  0.4598  0.7105
 8463TIP3    H246805   3.060   1.645   3.256  0.8148  1.0332  0.0749
 8464TIP3   OH246806   2.770   5.921   4.851 -0.6202  0.3701 -0.1932
 8464TIP3    H146807   2.778   5.826   4.843 -0.0744  0.5019 -1.2989
 8464TIP3    H246808   2.832   5.944   4.921 -1.8297 -0.2378  1.1082
 8465TIP3   OH246809   6.668   4.937  15.214 -0.0952  0.3950 -0.3735
 8465TIP3    H146810   6.583   4.911  15.177  0.4447 -1.0991 -0.5739
 8465TIP3    H246811   6.727   4.866  15.191  1.3472  1.6950 -0.6969
 8466TIP3   OH246812   2.646   2.580   3.626  0.4532  0.6699 -0.8204
 8466TIP3    H146813   2.550   2.585   3.633  0.6031 -0.0975  2.1114
 8466TIP3    H246814   2.675   2.671   3.635  0.1296  0.6491  0.4279
 8467TIP3   OH246815   2.386   5.997  15.607 -0.5450  0.3112 -0.3429
 8467TIP3    H146816   2.384   6.082  15.651 -0.4659 -0.8069  1.8728
 8467TIP3    H246817   2.458   5.950  15.649 -1.6448 -1.4496 -0.4161
 8468TIP3   OH246818   6.374   5.821   1.702 -0.1954 -0.2610 -1.3096
 8468TIP3    H146819   6.384   5.912   1.676  0.6185  0.0508  0.0802
 8468TIP3    H246820   6.297   5.820   1.759 -0.6690 -0.5790 -1.9472
 8469TIP3   OH246821   4.529   3.601  12.678 -0.1272  0.1309  0.2794
 8469TIP3    H146822   4.473   3.641  12.611 -0.1643  1.1507  0.9083
 8469TIP3    H246823   4.616   3.599  12.638 -0.9137 -3.1237 -1.4062
 8470TIP3   OH246824   3.581   1.500   4.920  0.0779 -0.3766  0.5064
 8470TIP3    H146825   3.502   1.475   4.872  0.5516  0.5999 -0.8117
 8470TIP3    H246826   3.653   1.479   4.861  0.5258  3.3102 -0.3649
 8471TIP3   OH246827   1.117   1.526  14.125 -0.0981 -0.6862  0.1558
 8471TIP3    H146828   1.123   1.483  14.040  2.1348  1.6283 -0.9617
 8471TIP3    H246829   1.051   1.594  14.113  0.1248 -0.4431  0.2848
 8472TIP3   OH246830   0.747   1.760  11.674  0.6129  0.1532 -0.8087
 8472TIP3    H146831   0.675   1.708  11.640 -0.7208  1.7409 -0.4844
 8472TIP3    H246832   0.781   1.807  11.598 -1.2860  2.4130 -0.3505
 8473TIP3   OH246833   4.587   3.890   0.544 -0.0749  0.3668 -0.1009
 8473TIP3    H146834   4.564   3.959   0.482 -0.8492  1.0973  0.9745
 8473TIP3    H246835   4.666   3.922   0.588 -0.5118  0.6393  0.4937
 8474TIP3   OH246836   0.970   2.426   3.368  0.6144  0.5250 -0.4055
 8474TIP3    H146837   0.992   2.411   3.460 -2.5418  1.9760  0.6408
 8474TIP3    H246838   0.932   2.343   3.339  1.8683 -0.0260 -0.5203
 8475TIP3   OH246839   2.077   1.169  15.200  0.5842  0.3803 -0.6586
 8475TIP3    H146840   2.000   1.133  15.244  2.2603 -0.3157  1.8150
 8475TIP3    H246841   2.080   1.123  15.116 -1.1387 -0.2958 -0.3783
 8476TIP3   OH246842   5.192   0.417  11.299 -0.1599  0.3130 -0.1711
 8476TIP3    H146843   5.104   0.401  11.265 -0.4117  0.6485  0.3268
 8476TIP3    H246844   5.245   0.432  11.220 -0.5292  0.0524 -0.4748
 8477TIP3   OH246845   0.531   3.306  12.581 -0.1951  0.0244  0.1224
 8477TIP3    H146846   0.530   3.359  12.501 -0.4900 -1.7455 -1.0775
 8477TIP3    H246847   0.439   3.294  12.604 -0.0906  1.1152  1.1344
 8478TIP3   OH246848   2.130   6.219  12.876 -0.4023  0.2434 -0.2948
 8478TIP3    H146849   2.218   6.181  12.877 -0.4522  0.1055 -1.4852
 8478TIP3    H246850   2.099   6.208  12.787 -1.6989  0.1606  0.1532
 8479TIP3   OH246851   0.368   4.262   0.859 -0.7059  0.3951 -0.4583
 8479TIP3    H146852   0.448   4.233   0.815 -1.1059 -0.9461 -0.3285
 8479TIP3    H246853   0.399   4.304   0.939 -0.0966  0.5734 -0.7814
 8480TIP3   OH246854   4.425   6.087  15.834 -0.2822 -0.0337  0.6057
 8480TIP3    H146855   4.408   6.036  15.755 -1.8066 -2.0282  2.1488
 8480TIP3    H246856   4.366   6.162  15.826 -0.2050 -0.0606 -0.2948
 8481TIP3   OH246857   0.263   3.694  10.336  0.0639 -0.2346  0.1384
 8481TIP3    H146858   0.334   3.658  10.388  0.4551  1.6371  0.9265
 8481TIP3    H246859   0.293   3.781  10.311 -2.0569  0.6883  0.7036
 8482TIP3   OH246860   5.094   3.306  12.417 -0.3527 -0.1111 -0.0904
 8482TIP3    H146861   5.080   3.263  12.501 -2.1448  0.7185  0.0594
 8482TIP3    H246862   5.185   3.286  12.395 -0.4843 -2.1175  1.0174
 8483TIP3   OH246863   4.346   0.137  12.513  0.4872 -0.3384 -0.3501
 8483TIP3    H146864   4.278   0.074  12.491  0.9274 -1.1063  0.4618
 8483TIP3    H246865   4.405   0.136  12.437  0.1760 -0.4660 -0.5906
 8484TIP3   OH246866   2.038   3.934  16.940 -0.0462 -0.1977  0.7471
 8484TIP3    H146867   1.944   3.924  16.923 -0.1136  1.8786 -0.2918
 8484TIP3    H246868   2.043   3.981  17.023  0.0939 -0.6236  0.9849
 8485TIP3   OH246869   1.638   4.726   3.901 -0.0830 -0.3697 -0.2008
 8485TIP3    H146870   1.626   4.638   3.865 -0.5561 -0.2378 -0.3781
 8485TIP3    H246871   1.549   4.762   3.905 -0.1206 -0.6380  1.7617
 8486TIP3   OH246872   5.878   5.417   4.384 -0.2129 -0.5575  1.0152
 8486TIP3    H146873   5.898   5.497   4.433  1.1425 -0.5130  0.4105
 8486TIP3    H246874   5.823   5.446   4.312  1.5570  0.1154 -0.1198
 8487TIP3   OH246875   3.265   5.368   3.546 -0.1833 -1.2533 -0.0418
 8487TIP3    H146876   3.352   5.332   3.564  0.0915 -0.1094  0.9435
 8487TIP3    H246877   3.281   5.443   3.489 -0.5719 -1.2713 -0.1785
 8488TIP3   OH246878   5.243   2.077   0.132  0.3619  0.2744  0.3593
 8488TIP3    H146879   5.266   2.009   0.195  0.1152 -0.3200 -0.1935
 8488TIP3    H246880   5.166   2.044   0.087  2.0218 -0.4636 -2.0318
 8489TIP3   OH246881   6.601   5.473  15.080 -0.1462  0.4126  0.2392
 8489TIP3    H146882   6.650   5.516  15.151  0.7598  0.7387 -0.5673
 8489TIP3    H246883   6.626   5.522  15.002 -1.4526  0.3097 -0.2544
 8490TIP3   OH246884   4.276   5.192  13.610  0.0133  0.1995  0.3733
 8490TIP3    H146885   4.246   5.114  13.563  0.6088 -1.7255  3.0841
 8490TIP3    H246886   4.320   5.244  13.543 -0.8138 -1.5695 -1.6007
 8491TIP3   OH246887   0.263   6.740   0.804 -0.0510 -0.6304 -0.3818
 8491TIP3    H146888   0.236   6.755   0.894  2.9199  1.0885  0.3021
 8491TIP3    H246889   0.220   6.809   0.753  0.4827  0.1060  0.1640
 8492TIP3   OH246890   3.253   5.689  11.398 -0.4766 -0.0898 -0.3826
 8492TIP3    H146891   3.210   5.667  11.480 -0.3217  0.3427 -0.1819
 8492TIP3    H246892   3.184   5.724  11.343 -0.4305  0.3490 -0.1585
 8493TIP3   OH246893   5.664   6.422   3.700  0.2142  0.7084  0.3823
 8493TIP3    H146894   5.695   6.371   3.775  0.4076 -0.3455 -0.4128
 8493TIP3    H246895   5.729   6.408   3.632  0.0301  1.6524 -0.0036
 8494TIP3   OH246896   3.849   0.929   3.797 -0.2901 -0.7569  0.2304
 8494TIP3    H146897   3.865   0.951   3.889  0.0125  2.2926 -0.5127
 8494TIP3    H246898   3.936   0.921   3.759 -0.4369  0.1155 -0.2794
 8495TIP3   OH246899   1.725   4.238  13.407 -0.2834 -0.1763  0.5390
 8495TIP3    H146900   1.772   4.320  13.420  1.9690 -1.5128  1.0964
 8495TIP3    H246901   1.636   4.256  13.438  0.2029  2.0246  0.7093
 8496TIP3   OH246902   4.502   3.505  13.310 -0.2346 -0.5809 -0.2530
 8496TIP3    H146903   4.544   3.480  13.393 -0.4459 -0.2149 -0.0337
 8496TIP3    H246904   4.443   3.433  13.290  0.3203 -0.9854 -0.4389
 8497TIP3   OH246905   0.752   2.750   1.930 -0.1754 -0.2701  0.2579
 8497TIP3    H146906   0.756   2.824   1.991 -1.9278  0.6655 -0.7073
 8497TIP3    H246907   0.841   2.715   1.929  1.5598  3.8895 -1.7417
 8498TIP3   OH246908   1.078   3.820   0.725  0.2477  0.1130  0.4953
 8498TIP3    H146909   1.166   3.796   0.697 -0.2599 -0.9077 -0.2695
 8498TIP3    H246910   1.020   3.777   0.662 -0.7704  1.5453  0.4257
 8499TIP3   OH246911   4.980   4.835   1.179  0.2405  0.0626 -0.2999
 8499TIP3    H146912   4.925   4.895   1.130  1.2490 -0.0672 -1.6141
 8499TIP3    H246913   4.926   4.758   1.192 -0.7434  0.8856  0.5987
 8500TIP3   OH246914   1.084   0.012  14.080 -0.2302 -0.0694 -0.0705
 8500TIP3    H146915   1.010   0.062  14.112 -0.4104 -0.0067 -0.5795
 8500TIP3    H246916   1.052  -0.030  13.999 -0.6978 -2.5679  1.3534
 8501TIP3   OH246917   1.006   1.366   3.645  0.1845  0.3492 -0.7646
 8501TIP3    H146918   1.051   1.314   3.711  0.7832  0.3838 -1.1473
 8501TIP3    H246919   0.967   1.439   3.694  0.7274  0.4408 -0.4695
 8502TIP3   OH246920   1.436   0.110   5.149  0.1768  0.1131 -1.0522
 8502TIP3    H146921   1.501   0.049   5.184  0.8346  0.3866 -1.7824
 8502TIP3    H246922   1.417   0.169   5.222  0.2504 -0.3641 -0.6362
 8503TIP3   OH246923   6.727   4.857   3.682 -0.1403 -0.1213  0.0533
 8503TIP3    H146924   6.776   4.930   3.645 -0.3963 -0.2412 -0.5365
 8503TIP3    H246925   6.785   4.781   3.672 -0.1491 -0.1252  0.0303
 8504TIP3   OH246926   3.427   2.086   3.134 -0.4575  0.0870 -0.0959
 8504TIP3    H146927   3.379   2.012   3.171 -0.3283  0.1718  0.2461
 8504TIP3    H246928   3.501   2.045   3.087 -1.2196 -0.0755 -1.1609
 8505TIP3   OH246929   1.470   2.068   4.873  1.0669  0.4082 -0.0831
 8505TIP3    H146930   1.455   1.975   4.889 -1.8411  1.1278  1.7220
 8505TIP3    H246931   1.449   2.080   4.780  1.2059 -0.6939 -0.2597
 8506TIP3   OH246932   6.172   5.520   5.409  0.1751  0.3118  0.2598
 8506TIP3    H146933   6.209   5.491   5.493 -0.4164 -0.8313  0.1347
 8506TIP3    H246934   6.109   5.589   5.433  0.6544  0.6037  0.6765
 8507TIP3   OH246935   1.048   4.915  14.323  0.1709  0.4013  0.7519
 8507TIP3    H146936   1.113   4.871  14.378  0.2640 -0.7945 -0.2942
 8507TIP3    H246937   1.092   4.993  14.290  1.0875 -0.4110  0.0439
 8508TIP3   OH246938   1.184   1.319  13.519  0.3003 -0.2607 -0.1034
 8508TIP3    H146939   1.180   1.379  13.594 -1.6989 -0.4036 -0.0861
 8508TIP3    H246940   1.200   1.233  13.558 -1.0247 -0.3796  0.1883
 8509TIP3   OH246941   1.717   1.225   1.700 -0.7108 -0.4015 -0.5000
 8509TIP3    H146942   1.736   1.318   1.688 -1.4076 -0.1654  0.1605
 8509TIP3    H246943   1.786   1.180   1.653  1.8332  0.4048  2.3280
 8510TIP3   OH246944   4.476   4.139  14.903  0.3233  0.0538 -0.1909
 8510TIP3    H146945   4.565   4.113  14.925  0.6315  1.7573  0.6646
 8510TIP3    H246946   4.482   4.232  14.880 -1.5627  0.8606  2.2385
 8511TIP3   OH246947   6.019   2.781  13.211  0.5900 -0.2686 -0.3678
 8511TIP3    H146948   5.947   2.824  13.166  0.6878  1.2745  0.8895
 8511TIP3    H246949   6.094   2.792  13.153  0.6516  1.4504 -0.0025
 8512TIP3   OH246950   0.190   4.409   3.696  0.0079 -0.1502 -0.3839
 8512TIP3    H146951   0.231   4.387   3.779  1.0948 -0.0892 -0.8955
 8512TIP3    H246952   0.203   4.332   3.641 -1.8405 -0.6858 -0.0834
 8513TIP3   OH246953   0.137   3.970   5.392  0.2491  0.3731  0.1756
 8513TIP3    H146954   0.190   4.047   5.370  1.4203  0.0698  1.8137
 8513TIP3    H246955   0.169   3.902   5.333 -0.3245  0.9690 -0.8208
 8514TIP3   OH246956   3.061   0.785  14.179  0.2702 -0.5456  0.6885
 8514TIP3    H146957   3.042   0.725  14.107  0.3213 -0.8077  0.8916
 8514TIP3    H246958   2.995   0.766  14.245  0.6285 -0.7722  0.9867
 8515TIP3   OH246959   6.198   5.600  13.398 -0.5332  0.1086  0.1161
 8515TIP3    H146960   6.269   5.660  13.422 -0.0867 -0.7694  1.0329
 8515TIP3    H246961   6.122   5.657  13.383  0.1449  0.9844 -0.0550
 8516TIP3   OH246962   2.588   3.097   3.934 -0.5774 -0.2929 -0.1833
 8516TIP3    H146963   2.577   3.048   4.016  0.1991  0.6955  0.5281
 8516TIP3    H246964   2.499   3.115   3.906 -0.8565 -0.4191  0.5845
 8517TIP3   OH246965   2.801   4.775  14.462  0.2301 -0.1467  0.2052
 8517TIP3    H146966   2.851   4.854  14.441  0.3633 -0.5269 -0.9551
 8517TIP3    H246967   2.716   4.788  14.421  0.9116 -1.4325 -1.7146
 8518TIP3   OH246968   3.584   3.823  14.011 -0.5229  0.0474 -0.0121
 8518TIP3    H146969   3.499   3.866  14.017 -0.2811  0.8219 -1.7080
 8518TIP3    H246970   3.600   3.816  13.917  1.7378  0.8264  0.2849
 8519TIP3   OH246971   1.070   1.273   2.676 -0.2447 -0.1429 -0.0466
 8519TIP3    H146972   1.122   1.249   2.752 -0.1034 -2.1809 -0.7457
 8519TIP3    H246973   1.124   1.335   2.628  0.2497  0.0845  0.8139
 8520TIP3   OH246974   5.971   0.955   0.374 -0.1363  0.0333 -0.3576
 8520TIP3    H146975   5.943   1.031   0.323  1.0669  2.0689  1.9011
 8520TIP3    H246976   5.894   0.898   0.377 -0.9999  1.0669 -2.2345
 8521TIP3   OH246977   5.827   5.459   6.742  0.3699 -0.5032  0.0165
 8521TIP3    H146978   5.742   5.452   6.697  0.4640 -0.4014 -0.1755
 8521TIP3    H246979   5.882   5.393   6.701  0.7421  0.2135 -0.6563
 8522TIP3   OH246980   1.152   3.020   0.858  0.0468  0.0369 -0.4252
 8522TIP3    H146981   1.066   3.050   0.888 -0.3867 -1.4048 -0.2096
 8522TIP3    H246982   1.215   3.071   0.909 -0.6798 -0.2753  0.7906
 8523TIP3   OH246983   1.057   2.400   0.693 -0.0882  0.1462 -0.2467
 8523TIP3    H146984   1.011   2.406   0.610 -1.0125  0.2513  0.2655
 8523TIP3    H246985   1.098   2.486   0.704 -0.7602  0.4568 -0.1409
 8524TIP3   OH246986   5.564   5.157   0.000  0.1474 -0.2196  0.3398
 8524TIP3    H146987   5.628   5.182  -0.066  0.6104 -0.7115  0.6035
 8524TIP3    H246988   5.483   5.144  -0.049 -0.0355  1.4752  0.1432
 8525TIP3   OH246989   1.029   2.929  14.769  0.2473 -0.1257 -0.5679
 8525TIP3    H146990   1.000   2.863  14.833  2.1993  0.6794  1.2159
 8525TIP3    H246991   1.095   2.883  14.717  2.4747  0.6620  1.4383
 8526TIP3   OH246992   3.215   0.428   5.584  0.2955  0.6077 -0.3362
 8526TIP3    H146993   3.252   0.452   5.669  0.6608  0.2932 -0.4037
 8526TIP3    H246994   3.264   0.480   5.521  1.3776 -0.6002 -0.5189
 8527TIP3   OH246995   5.495   3.506  12.508 -0.7078 -0.6541  0.8015
 8527TIP3    H146996   5.588   3.486  12.503 -0.4177  0.1418  2.6062
 8527TIP3    H246997   5.452   3.421  12.519 -0.3983 -1.2198 -1.9862
 8528TIP3   OH246998   3.177   0.400  16.991  0.1724  0.3234  0.8093
 8528TIP3    H146999   3.238   0.472  16.976  0.3980  0.0370  0.3500
 8528TIP3    H247000   3.177   0.351  16.909 -0.8324  0.4379  0.7287
 8529TIP3   OH247001   6.017   6.472  14.853 -0.0426  0.2747  0.4760
 8529TIP3    H147002   6.051   6.543  14.908  0.9637 -0.9237  1.4457
 8529TIP3    H247003   6.092   6.413  14.841 -0.1179  0.7721 -2.6374
 8530TIP3   OH247004   6.288   0.273  11.875  0.3591 -0.2487  0.0149
 8530TIP3    H147005   6.251   0.299  11.791  1.7041 -0.2365 -0.5777
 8530TIP3    H247006   6.261   0.182  11.887 -0.5321  0.0070 -0.0312
 8531TIP3   OH247007   5.164   0.962  12.620 -0.7212 -0.1684 -0.4960
 8531TIP3    H147008   5.219   0.903  12.568 -1.6610  0.4222 -2.2080
 8531TIP3    H247009   5.224   1.031  12.648 -0.0944 -0.7549 -0.3514
 8532TIP3   OH247010   1.111   6.574  17.203 -0.1667 -0.1215 -0.0489
 8532TIP3    H147011   1.049   6.565  17.275  0.4796 -0.0784  0.5157
 8532TIP3    H247012   1.128   6.668  17.198 -0.8562 -0.0312 -0.8098
 8533TIP3   OH247013   3.620   5.149  15.381  0.2664 -0.1874 -0.1860
 8533TIP3    H147014   3.638   5.096  15.304  1.2889 -0.5390  0.2848
 8533TIP3    H247015   3.620   5.239  15.349  0.9848 -0.3127 -0.5345
 8534TIP3   OH247016   2.657   5.078  13.351  0.0913 -0.3725  0.3455
 8534TIP3    H147017   2.748   5.066  13.322 -0.8307 -0.7377 -2.5599
 8534TIP3    H247018   2.653   5.168  13.383  0.9213  0.4071 -1.6983
 8535TIP3   OH247019   3.435   1.629   0.511 -0.5375 -0.1138 -0.3377
 8535TIP3    H147020   3.361   1.687   0.495 -0.6907 -0.5283 -1.1718
 8535TIP3    H247021   3.408   1.577   0.586  0.0488  1.6269  1.1038
 8536TIP3   OH247022   6.590   5.847   0.610 -0.5791 -0.1442  0.0577
 8536TIP3    H147023   6.573   5.765   0.564  0.5995  0.2447 -1.0813
 8536TIP3    H247024   6.601   5.822   0.702 -0.2185 -1.2510 -0.2865
 8537TIP3   OH247025   0.578   2.822  16.115 -0.0513  0.0076  0.8271
 8537TIP3    H147026   0.519   2.804  16.188  1.6068  2.1060  2.7265
 8537TIP3    H247027   0.664   2.791  16.145  0.6974  1.0822 -0.1641
 8538TIP3   OH247028   2.472   2.522  11.358  0.3259  0.3328  0.4417
 8538TIP3    H147029   2.479   2.615  11.339  2.4299  0.1055 -0.0219
 8538TIP3    H247030   2.558   2.498  11.391 -0.2015 -1.4514  0.5688
 8539TIP3   OH247031   2.289   2.027  12.461 -0.5358 -0.5361 -0.1834
 8539TIP3    H147032   2.270   2.077  12.381  0.4841 -1.8492 -1.2650
 8539TIP3    H247033   2.384   2.017  12.461 -0.4475  0.0859  1.6007
 8540TIP3   OH247034   1.670   1.817   2.216 -0.3638  0.1388  0.0812
 8540TIP3    H147035   1.667   1.849   2.306 -0.4312 -0.7849  0.4018
 8540TIP3    H247036   1.608   1.873   2.169  1.3495  2.1422  0.1183
 8541TIP3   OH247037   1.724   5.670   5.536  0.1516 -0.1106  0.4452
 8541TIP3    H147038   1.773   5.588   5.546 -0.3021 -0.4033  0.2975
 8541TIP3    H247039   1.638   5.643   5.505  0.4775  0.5413 -1.0546
 8542TIP3   OH247040   6.590   1.033  13.964 -0.6298 -0.2104  0.3498
 8542TIP3    H147041   6.557   0.944  13.968  2.5307 -1.4708  0.2873
 8542TIP3    H247042   6.681   1.023  13.936  0.2980  2.9010  2.0185
 8543TIP3   OH247043   2.087   1.500  11.627  0.1914  0.8172  0.0735
 8543TIP3    H147044   2.081   1.405  11.630 -0.2713  0.8845  3.2118
 8543TIP3    H247045   1.997   1.530  11.615  0.4823  0.8717 -2.1942
 8544TIP3   OH247046   6.308   2.451  15.741  0.2468 -0.7049  0.0182
 8544TIP3    H147047   6.218   2.422  15.756 -0.3927  2.1351  2.2163
 8544TIP3    H247048   6.317   2.452  15.646 -1.7462 -1.8779 -0.2272
 8545TIP3   OH247049   2.979   4.788   6.501 -0.0416 -0.0130 -0.0550
 8545TIP3    H147050   2.925   4.806   6.578 -1.3484  0.0890 -0.9768
 8545TIP3    H247051   3.025   4.707   6.522  0.8087  0.8443  1.4492
 8546TIP3   OH247052   0.686   3.479  15.215  0.2087  0.4234 -0.3699
 8546TIP3    H147053   0.759   3.490  15.276  0.0000  2.5297 -0.4837
 8546TIP3    H247054   0.728   3.453  15.133  0.6167 -0.7774  0.1963
 8547TIP3   OH247055   6.074   1.601  14.404 -0.3964  0.5690  0.2383
 8547TIP3    H147056   6.126   1.532  14.362 -2.1058 -1.4570  1.4003
 8547TIP3    H247057   5.993   1.604  14.354 -0.6554  1.2201  0.6850
 8548TIP3   OH247058   3.990   0.507   3.273 -0.5176  0.0587  0.4532
 8548TIP3    H147059   3.994   0.589   3.224 -0.7983  0.5475  1.2485
 8548TIP3    H247060   3.988   0.533   3.365 -1.5364 -0.8003  0.6881
 8549TIP3   OH247061   0.247   6.764   1.989 -0.9306 -0.4906  0.1665
 8549TIP3    H147062   0.250   6.738   2.081 -0.2397  0.8479  0.5436
 8549TIP3    H247063   0.265   6.684   1.941 -1.5197 -1.2502  1.1921
 8550TIP3   OH247064   1.324   6.447  12.270 -0.1407  0.2432 -0.4535
 8550TIP3    H147065   1.242   6.399  12.258  0.3279 -0.5929 -0.3501
 8550TIP3    H247066   1.338   6.492  12.187 -1.8915  2.2399  0.3181
 8551TIP3   OH247067   3.471   4.724   4.384  0.1377  0.3862  0.3462
 8551TIP3    H147068   3.408   4.781   4.428 -1.4110  0.0718 -1.3640
 8551TIP3    H247069   3.529   4.784   4.337 -0.3531  0.6206  0.0338
 8552TIP3   OH247070   2.733   0.601   2.575  0.4467 -0.1906 -0.0984
 8552TIP3    H147071   2.713   0.673   2.515 -0.9339  0.6035  1.2317
 8552TIP3    H247072   2.665   0.536   2.558  0.1060 -0.0025  0.5199
 8553TIP3   OH247073   3.391   1.592  14.985  0.2920 -0.2747  0.7877
 8553TIP3    H147074   3.460   1.602  15.049 -1.4544 -2.8866  3.1743
 8553TIP3    H247075   3.312   1.577  15.036 -2.1590  2.8279 -1.8372
 8554TIP3   OH247076   6.641   5.224   6.530 -0.8242 -0.3465  1.0425
 8554TIP3    H147077   6.614   5.219   6.438 -0.7898 -1.0491  1.0676
 8554TIP3    H247078   6.577   5.282   6.571 -0.7881  0.0463  0.5578
 8555TIP3   OH247079   2.924   0.177   1.757  0.8521  0.2527 -0.0547
 8555TIP3    H147080   2.916   0.084   1.777  0.2777  0.2645 -0.2450
 8555TIP3    H247081   2.986   0.181   1.684  3.6130  0.2563  2.1921
 8556TIP3   OH247082   3.377   6.746  13.849  0.0827  0.2030  0.7675
 8556TIP3    H147083   3.282   6.749  13.861  0.1340 -0.2281  1.3074
 8556TIP3    H247084   3.395   6.657  13.820  0.1622  0.7244 -0.8055
 8557TIP3   OH247085   3.215   0.567  16.028  0.4593  0.3831 -0.3647
 8557TIP3    H147086   3.294   0.514  16.012  0.2914 -0.3017  0.9920
 8557TIP3    H247087   3.235   0.616  16.107 -1.0980 -1.0689  0.9678
 8558TIP3   OH247088   3.019   4.390   4.437 -0.0451  0.8894 -0.1742
 8558TIP3    H147089   3.044   4.389   4.530  0.9167 -0.1240 -0.4283
 8558TIP3    H247090   2.927   4.417   4.437 -0.9431 -1.9274  1.3138
 8559TIP3   OH247091   5.573   3.708  13.050 -0.2779 -0.4554  0.5984
 8559TIP3    H147092   5.593   3.794  13.014 -2.2725  0.1415  0.8945
 8559TIP3    H247093   5.487   3.686  13.016  0.9980 -3.1936 -0.9957
 8560TIP3   OH247094   4.999   1.250  11.623  0.5672  0.6635 -0.2912
 8560TIP3    H147095   5.029   1.248  11.532 -1.7763 -1.1321 -1.0626
 8560TIP3    H247096   5.033   1.169  11.661 -1.0395 -0.0800 -0.4327
 8561TIP3   OH247097   1.119   0.341  11.812 -0.6858 -0.0059 -0.6337
 8561TIP3    H147098   1.096   0.423  11.857 -2.9032 -1.8393  1.7003
 8561TIP3    H247099   1.039   0.289  11.815  0.5731 -2.1201 -2.4522
 8562TIP3   OH247100   5.722   5.660  12.781  0.0495 -0.0316 -0.0550
 8562TIP3    H147101   5.763   5.628  12.700 -1.3145  1.2813 -1.3201
 8562TIP3    H247102   5.753   5.601  12.849  3.7154  0.6536 -1.0038
 8563TIP3   OH247103   4.734   6.745   0.247  0.0575 -0.2726  0.0989
 8563TIP3    H147104   4.681   6.821   0.274 -0.0947 -0.3992  0.1600
 8563TIP3    H247105   4.819   6.760   0.287 -0.1581 -0.4436  0.6314
 8564TIP3   OH247106   1.395   3.645   5.913 -0.5581 -0.5297 -0.3509
 8564TIP3    H147107   1.391   3.613   6.003  1.1091  1.3711  0.4284
 8564TIP3    H247108   1.377   3.568   5.859 -0.2918 -1.9515  1.5639
 8565TIP3   OH247109   0.950   5.451  14.344  0.0799 -0.6160 -0.1994
 8565TIP3    H147110   1.015   5.414  14.403 -0.0386 -2.0897 -0.9821
 8565TIP3    H247111   0.866   5.416  14.375 -0.2355  0.4031  0.1310
 8566TIP3   OH247112   4.184   5.989   3.545 -0.2156  0.3693 -0.1237
 8566TIP3    H147113   4.131   5.923   3.589  0.5765  0.9584  1.7708
 8566TIP3    H247114   4.123   6.035   3.487 -1.6857  0.6721  1.6058
 8567TIP3   OH247115   2.536   5.118  12.940  0.9798  0.0930 -0.6111
 8567TIP3    H147116   2.459   5.080  12.897  1.1271  0.9170 -1.6443
 8567TIP3    H247117   2.509   5.208  12.961  1.4181  0.1631 -0.3425
 8568TIP3   OH247118   5.978   0.006   5.204 -0.1820 -0.0868 -0.0187
 8568TIP3    H147119   5.899  -0.000   5.257 -0.8446  0.3605 -0.9330
 8568TIP3    H247120   6.045   0.041   5.263 -1.0047  0.7512  0.4171
 8569TIP3   OH247121   0.588   2.489  12.621 -0.2381 -0.0099  0.4430
 8569TIP3    H147122   0.674   2.482  12.662 -0.5354 -1.2209  0.9003
 8569TIP3    H247123   0.527   2.458  12.688 -0.8833 -0.5381 -0.3770
 8570TIP3   OH247124   2.235   1.907   0.979 -0.2738 -0.1932  0.2007
 8570TIP3    H147125   2.205   1.995   1.004  0.0523  0.1311 -0.5223
 8570TIP3    H247126   2.162   1.850   1.003 -0.4366  0.2558  0.8034
 8571TIP3   OH247127   4.851   4.349   4.999  0.3944 -0.4276  0.4890
 8571TIP3    H147128   4.929   4.402   4.985 -0.7117  1.1742  0.1292
 8571TIP3    H247129   4.784   4.413   5.024  0.0774 -2.1292  4.4042
 8572TIP3   OH247130   0.633   2.107  15.880  0.2017 -0.0665  0.2800
 8572TIP3    H147131   0.662   2.106  15.789  0.8796  0.7179  0.4769
 8572TIP3    H247132   0.715   2.110  15.931 -0.1940  1.3503  0.8635
 8573TIP3   OH247133   5.174   4.713  12.262 -0.0191  0.7916 -0.3710
 8573TIP3    H147134   5.092   4.706  12.310 -0.8443  0.9147 -1.7298
 8573TIP3    H247135   5.214   4.626  12.271 -0.0421  0.8837  0.7163
 8574TIP3   OH247136   2.537   0.142   2.691 -0.2324 -0.1797  0.6606
 8574TIP3    H147137   2.583   0.095   2.761 -0.6083 -2.8861 -0.8351
 8574TIP3    H247138   2.444   0.137   2.716 -0.2039  0.4707  0.8996
 8575TIP3   OH247139   3.216   2.505  12.679  0.1383 -0.2634 -0.3460
 8575TIP3    H147140   3.216   2.413  12.705 -0.6032 -0.4171 -0.8781
 8575TIP3    H247141   3.227   2.553  12.761  2.1372 -0.8657 -0.2554
 8576TIP3   OH247142   2.644   2.717  15.725 -0.0755  0.2577  0.2590
 8576TIP3    H147143   2.676   2.777  15.792  0.7227  1.3396 -1.0481
 8576TIP3    H247144   2.700   2.734  15.649 -0.2276 -1.7309 -0.3336
 8577TIP3   OH247145   3.654   4.495  14.768  0.4743  0.8291 -0.0176
 8577TIP3    H147146   3.570   4.539  14.755  0.1363  0.4053  0.7177
 8577TIP3    H247147   3.716   4.565  14.788 -0.1492  0.9462  1.5628
 8578TIP3   OH247148   3.348   5.160   3.837  0.2894  0.5377  0.5692
 8578TIP3    H147149   3.270   5.197   3.794  1.2064  1.5561 -0.2660
 8578TIP3    H247150   3.328   5.067   3.848  0.5244 -0.0623 -3.3043
 8579TIP3   OH247151   1.906   1.530  12.259  0.0667  0.0668 -0.4586
 8579TIP3    H147152   1.824   1.572  12.283  0.6730  0.7971  0.3666
 8579TIP3    H247153   1.890   1.493  12.172 -1.4957 -0.8288  0.1873
 8580TIP3   OH247154   4.277   6.105   3.222  0.0502 -0.1213  0.3986
 8580TIP3    H147155   4.230   6.110   3.139  0.6079 -0.2876  0.0726
 8580TIP3    H247156   4.219   6.149   3.285  0.8307  2.5043 -0.6312
 8581TIP3   OH247157   4.681   3.747   1.215  0.2943 -0.4022  0.1690
 8581TIP3    H147158   4.734   3.727   1.292  0.7449  0.7057  0.1519
 8581TIP3    H247159   4.735   3.722   1.141  1.0736  1.2967  0.1301
 8582TIP3   OH247160   4.096   2.363   5.857  0.3230 -0.4524  1.1401
 8582TIP3    H147161   4.028   2.298   5.869 -1.9517  1.5952 -0.2778
 8582TIP3    H247162   4.092   2.418   5.935 -0.2186  0.1568  0.6897
 8583TIP3   OH247163   1.474   4.187   2.324 -0.0113 -0.5006  0.1829
 8583TIP3    H147164   1.461   4.114   2.263  1.6824  1.2411 -2.3682
 8583TIP3    H247165   1.418   4.257   2.290  0.2123  0.1781  1.2032
 8584TIP3   OH247166   1.494   1.604  11.744  0.4317  0.6153 -0.1597
 8584TIP3    H147167   1.435   1.546  11.696  1.7575  0.4297 -1.6030
 8584TIP3    H247168   1.436   1.667  11.787 -0.8285  0.6807 -1.8844
 8585TIP3   OH247169   0.577   0.907  15.000  0.3025 -0.2439  0.4267
 8585TIP3    H147170   0.662   0.902  15.043  0.0918  0.0161  0.8764
 8585TIP3    H247171   0.572   0.827  14.948  0.2965 -0.8921  1.3959
 8586TIP3   OH247172   0.849   0.945  16.751 -0.1656 -0.2544 -0.7981
 8586TIP3    H147173   0.867   0.957  16.845 -0.6449  0.3240 -0.7829
 8586TIP3    H247174   0.857   0.851  16.738 -2.5583 -0.6435  0.3406
 8587TIP3   OH247175   4.634   5.619   2.608 -0.2753  0.4569  0.3665
 8587TIP3    H147176   4.711   5.640   2.555  0.2287  1.5086  1.4765
 8587TIP3    H247177   4.670   5.582   2.689 -0.8664  2.0337  1.3750
 8588TIP3   OH247178   0.699   1.366  14.696 -0.4636  0.6618  0.0932
 8588TIP3    H147179   0.776   1.407  14.656  0.3298 -1.1847 -0.3193
 8588TIP3    H247180   0.723   1.354  14.788  0.4822 -1.5515 -0.4033
 8589TIP3   OH247181   5.587   5.309  13.330 -0.2848 -0.5417 -0.1016
 8589TIP3    H147182   5.569   5.252  13.255  1.4265 -0.4888 -0.5626
 8589TIP3    H247183   5.555   5.259  13.406 -1.2516 -0.9541 -0.7668
 8590TIP3   OH247184   2.209   0.570  15.749  0.0614  0.1270 -0.2172
 8590TIP3    H147185   2.270   0.625  15.701 -1.2446  1.1087 -0.7956
 8590TIP3    H247186   2.161   0.523  15.681  0.6477 -1.1655  0.2476
 8591TIP3   OH247187   4.699   5.539   2.861 -0.1343 -0.4748  0.1422
 8591TIP3    H147188   4.630   5.495   2.910  0.4171 -0.6760  0.7401
 8591TIP3    H247189   4.779   5.520   2.910  0.0936  1.2717  0.4520
 8592TIP3   OH247190   1.114   1.934   0.057 -0.5395  0.6439 -0.8195
 8592TIP3    H147191   1.047   1.869   0.082  1.0666 -1.1334 -1.0261
 8592TIP3    H247192   1.105   1.941  -0.039 -1.0967  1.1890 -0.7350
 8593TIP3   OH247193   2.099   3.915   0.148  0.3806  0.8566  0.6332
 8593TIP3    H147194   2.137   3.864   0.077 -0.2942  0.5235  0.5118
 8593TIP3    H247195   2.051   3.985   0.105  0.0227  0.6901  0.7561
 8594TIP3   OH247196   4.042   2.833   4.387 -0.0579 -0.6102 -0.0921
 8594TIP3    H147197   4.057   2.743   4.358  1.9722 -0.1754 -0.5141
 8594TIP3    H247198   3.969   2.864   4.332 -0.8614 -2.0237  0.1589
 8595TIP3   OH247199   0.446   6.136   3.414 -0.4370  0.3489  0.1694
 8595TIP3    H147200   0.490   6.090   3.343 -1.1617 -0.9334  0.5394
 8595TIP3    H247201   0.516   6.153   3.478  0.0815  0.9022 -0.5416
 8596TIP3   OH247202   2.499   6.291  11.382  0.1862  0.3155 -0.3881
 8596TIP3    H147203   2.556   6.215  11.367  0.0512  0.4545 -1.6034
 8596TIP3    H247204   2.528   6.356  11.318 -1.8469  0.0922 -1.5734
 8597TIP3   OH247205   3.402   2.599  16.173  0.0474  0.1129  0.3930
 8597TIP3    H147206   3.350   2.659  16.119  0.8243  0.6020  0.1953
 8597TIP3    H247207   3.488   2.598  16.133  0.8730  1.1021  2.0996
 8598TIP3   OH247208   6.637   2.819  14.217  0.6399 -0.4946 -0.3601
 8598TIP3    H147209   6.689   2.795  14.294  1.8689 -1.5221 -1.4787
 8598TIP3    H247210   6.641   2.914  14.214 -1.6338 -0.2424  2.3373
 8599TIP3   OH247211   0.529   0.099  14.893 -1.0464 -0.5975 -0.4235
 8599TIP3    H147212   0.601   0.109  14.955 -1.2441 -0.0475 -0.2810
 8599TIP3    H247213   0.465   0.044  14.938 -1.2788 -0.0340 -0.0602
 8600TIP3   OH247214   4.126   0.729  14.383  0.2787 -0.6946  0.1372
 8600TIP3    H147215   4.156   0.645  14.349 -0.5065 -0.4578 -1.2044
 8600TIP3    H247216   4.198   0.789  14.365  1.3794 -1.3421  2.3038
 8601TIP3   OH247217   3.586   0.703  12.501 -0.3675  0.1791 -0.2293
 8601TIP3    H147218   3.643   0.766  12.544  0.9303 -0.1246 -1.4394
 8601TIP3    H247219   3.644   0.630  12.478 -1.3833 -0.4533 -0.8572
 8602TIP3   OH247220   1.310   3.260   4.736  0.0886  0.3126 -0.2204
 8602TIP3    H147221   1.216   3.271   4.744 -0.2369 -1.4652 -1.3507
 8602TIP3    H247222   1.325   3.167   4.752  1.7297  0.6913  0.5493
 8603TIP3   OH247223   0.203   1.083  12.224 -0.1243 -0.2817 -0.5892
 8603TIP3    H147224   0.153   1.022  12.170  0.6674 -1.0492 -0.4826
 8603TIP3    H247225   0.273   1.029  12.261 -0.1133  0.4405  0.4579
 8604TIP3   OH247226   4.117   4.108  11.665  0.2523  0.6796  0.2450
 8604TIP3    H147227   4.120   4.096  11.760 -0.8238 -3.2990 -0.1394
 8604TIP3    H247228   4.206   4.090  11.636  0.2633  0.5023  0.3848
 8605TIP3   OH247229   2.025   1.792  14.501  0.2681 -0.3967  0.2600
 8605TIP3    H147230   1.956   1.768  14.439  0.1131  0.8181 -0.0441
 8605TIP3    H247231   2.096   1.827  14.446  0.7191 -0.6808  0.6545
 8606TIP3   OH247232   3.134   5.406  12.846 -0.7798 -0.2010  0.3030
 8606TIP3    H147233   3.108   5.498  12.852 -3.9947 -0.9873 -0.5411
 8606TIP3    H247234   3.137   5.388  12.752 -0.4980 -1.0285  0.4658
 8607TIP3   OH247235   5.381   1.209   3.387  0.0071  0.2204 -0.5463
 8607TIP3    H147236   5.299   1.173   3.422  0.3162 -0.0004 -0.0370
 8607TIP3    H247237   5.359   1.299   3.362 -0.5407 -0.0287 -0.9728
 8608TIP3   OH247238   0.645   1.062   2.910  0.6008 -0.2416 -0.2539
 8608TIP3    H147239   0.735   1.074   2.879  1.5523 -0.0566  2.4088
 8608TIP3    H247240   0.649   0.985   2.968 -0.6118  0.6450  1.0563
 8609TIP3   OH247241   2.058   3.707  14.188  0.0089  0.3807 -0.6590
 8609TIP3    H147242   2.048   3.615  14.165 -0.2193  0.0321  0.7888
 8609TIP3    H247243   2.093   3.748  14.109  1.2372 -1.1621 -0.9478
 8610TIP3   OH247244   2.638   1.168   5.337  0.2822 -0.3751  0.4819
 8610TIP3    H147245   2.653   1.226   5.262 -0.0139 -1.5548 -0.5114
 8610TIP3    H247246   2.722   1.164   5.382 -0.0436  1.8940  1.3559
 8611TIP3   OH247247   0.228   0.331   5.946 -0.8043  0.1505 -0.4839
 8611TIP3    H147248   0.259   0.338   6.036 -0.1100 -1.6767 -0.5602
 8611TIP3    H247249   0.180   0.412   5.931  1.1219  1.5682  0.7394
 8612TIP3   OH247250   0.702   2.346   1.252 -0.2895 -0.7307  0.0060
 8612TIP3    H147251   0.760   2.340   1.328 -0.8182 -0.1016  0.4566
 8612TIP3    H247252   0.649   2.424   1.267  1.7611  1.2475 -2.4980
 8613TIP3   OH247253   4.244   3.199   3.731 -0.0728  0.0259 -0.1137
 8613TIP3    H147254   4.336   3.178   3.750  0.0766  2.5330  2.2397
 8613TIP3    H247255   4.196   3.120   3.754  1.2279 -0.3845  1.3136
 8614TIP3   OH247256   4.150   0.811   1.663  0.2880  0.2556  0.3674
 8614TIP3    H147257   4.118   0.728   1.629 -2.1006  0.8485  1.0465
 8614TIP3    H247258   4.224   0.833   1.607 -0.4694 -1.2131 -1.2557
 8615TIP3   OH247259   0.577   4.862  13.394 -0.7614 -0.1954  0.7177
 8615TIP3    H147260   0.498   4.812  13.413 -0.2964 -1.5237 -0.6521
 8615TIP3    H247261   0.649   4.802  13.415 -0.1570  0.3746  0.3058
 8616TIP3   OH247262   4.471   2.204  16.022 -0.1703 -0.0031 -0.2281
 8616TIP3    H147263   4.502   2.141  15.957 -0.4918 -1.0598  0.6057
 8616TIP3    H247264   4.402   2.252  15.979  0.7010  0.4011 -1.1814
 8617TIP3   OH247265   6.557   3.743   5.695 -0.9549 -0.2079 -0.5110
 8617TIP3    H147266   6.498   3.772   5.765 -0.4152 -1.0320  0.3001
 8617TIP3    H247267   6.579   3.652   5.718  0.2247 -0.0784 -1.0673
 8618TIP3   OH247268   4.481   3.278  13.862 -0.8093 -0.6849  0.1090
 8618TIP3    H147269   4.449   3.226  13.936  1.7483 -0.9797  1.0648
 8618TIP3    H247270   4.553   3.329  13.898 -0.5595  0.3862 -1.8242
 8619TIP3   OH247271   0.754   1.429   6.688 -0.0757 -0.5130 -0.0117
 8619TIP3    H147272   0.844   1.406   6.708  0.0400  0.2841  0.4051
 8619TIP3    H247273   0.758   1.521   6.661 -0.6478 -0.7037 -0.7624
 8620TIP3   OH247274   0.861   2.892   4.351  0.1482  0.4700 -0.3688
 8620TIP3    H147275   0.941   2.931   4.386 -0.0077  0.7950 -0.3674
 8620TIP3    H247276   0.870   2.798   4.369  0.5826  0.4885 -0.4815
 8621TIP3   OH247277   4.846   5.604   5.395  0.5056  0.1541 -0.1104
 8621TIP3    H147278   4.793   5.682   5.381  0.0771  0.0859  1.1008
 8621TIP3    H247279   4.879   5.613   5.484  1.1633 -0.6250 -0.2696
 8622TIP3   OH247280   5.613   4.013   4.183 -0.3486 -0.2308 -0.0366
 8622TIP3    H147281   5.653   3.927   4.198  0.5202  0.1001 -0.4646
 8622TIP3    H247282   5.535   3.994   4.131  2.3618 -0.3198 -4.2324
 8623TIP3   OH247283   3.111   5.948   0.697 -0.1560  0.4287  0.9305
 8623TIP3    H147284   3.111   5.863   0.742 -4.4252 -0.9259 -1.3412
 8623TIP3    H247285   3.175   5.938   0.627 -0.9331 -1.1440  0.4088
 8624TIP3   OH247286   2.343   1.983   3.761 -0.4478 -0.3030  0.2569
 8624TIP3    H147287   2.407   2.045   3.796 -0.7071 -0.4327  0.9544
 8624TIP3    H247288   2.356   1.988   3.666 -1.4126  1.8879  0.2002
 8625TIP3   OH247289   2.554   5.375   4.346  0.3352  0.4002  0.0733
 8625TIP3    H147290   2.495   5.357   4.273 -0.3687  1.5621  0.3411
 8625TIP3    H247291   2.509   5.443   4.397  0.9815 -0.1447  1.3866
 8626TIP3   OH247292   5.242   5.283   0.617 -0.3876 -0.0465  0.1076
 8626TIP3    H147293   5.324   5.244   0.587 -1.2778 -1.8601 -0.0159
 8626TIP3    H247294   5.203   5.216   0.673 -1.0049  1.4565  1.5038
 8627TIP3   OH247295   4.771   2.916  14.574  0.4386  0.0999  1.0236
 8627TIP3    H147296   4.737   2.870  14.651 -0.9817 -0.4000  0.1041
 8627TIP3    H247297   4.702   2.979  14.551 -0.2209 -1.3963 -1.2650
 8628TIP3   OH247298   1.755   2.573   6.437 -0.6479 -0.1256  0.0484
 8628TIP3    H147299   1.844   2.538   6.439  0.8120  3.4585  2.3118
 8628TIP3    H247300   1.740   2.597   6.345  0.2652 -1.8007 -0.5467
 8629TIP3   OH247301   0.859   4.039  15.899 -0.2753 -0.6373 -0.0225
 8629TIP3    H147302   0.809   3.957  15.900  0.6608 -1.2223 -0.5252
 8629TIP3    H247303   0.921   4.028  15.827 -2.3926  1.8829 -2.3492
 8630TIP3   OH247304   1.663   5.953   5.539 -0.1107 -0.0393 -0.0459
 8630TIP3    H147305   1.670   5.868   5.495 -1.9259 -0.2513  0.0589
 8630TIP3    H247306   1.633   5.932   5.627  1.0513  0.5929  0.5120
 8631TIP3   OH247307   5.068   1.635  16.903  0.1520  0.2756 -0.0329
 8631TIP3    H147308   5.118   1.578  16.845  2.3770  0.5455  1.5585
 8631TIP3    H247309   5.121   1.714  16.910 -1.2167  1.1594  0.5578
 8632TIP3   OH247310   4.652   5.800   5.495  0.0584  0.4839 -0.0896
 8632TIP3    H147311   4.565   5.838   5.485 -0.0955  0.3242  0.6449
 8632TIP3    H247312   4.669   5.801   5.589  2.1279  3.3069 -0.4303
 8633TIP3   OH247313   0.602   3.755   4.952  0.2025 -0.8207 -0.5498
 8633TIP3    H147314   0.580   3.783   4.863 -0.2650 -0.6354 -0.3797
 8633TIP3    H247315   0.572   3.827   5.007  1.2792 -0.5509 -0.3084
 8634TIP3   OH247316   3.636   6.510  14.137 -0.1113  0.5023 -0.0699
 8634TIP3    H147317   3.615   6.454  14.062 -2.5287 -1.0036  1.6404
 8634TIP3    H247318   3.581   6.587  14.125  0.5630  0.9089 -0.5719
 8635TIP3   OH247319   6.554   5.854   5.571  0.1837  0.1453 -0.8450
 8635TIP3    H147320   6.508   5.785   5.523  0.0724  0.5140 -1.2764
 8635TIP3    H247321   6.539   5.933   5.519  0.0776  0.5481 -0.2100
 8636TIP3   OH247322   2.457   5.440  12.906  0.5907  0.5015  0.2201
 8636TIP3    H147323   2.470   5.446  13.001  0.9303  0.2074  0.1911
 8636TIP3    H247324   2.517   5.506  12.870 -1.3391  2.3883  0.3346
 8637TIP3   OH247325   4.796   1.749   3.973 -0.1820 -0.1669 -0.3038
 8637TIP3    H147326   4.782   1.714   4.061 -0.7631 -0.0948 -0.3669
 8637TIP3    H247327   4.804   1.843   3.987 -1.8280  0.0221 -0.4957
 8638TIP3   OH247328   6.572   3.490   5.089  0.1623  0.4355 -0.7784
 8638TIP3    H147329   6.593   3.407   5.132  1.7947 -0.0298 -2.4036
 8638TIP3    H247330   6.477   3.488   5.079 -0.0075 -0.4362  0.7662
 8639TIP3   OH247331   2.213   6.278  11.561 -0.4696  0.1687  0.2811
 8639TIP3    H147332   2.134   6.329  11.544  0.0874  1.0393  0.2561
 8639TIP3    H247333   2.184   6.187  11.562 -1.4803  0.4893  0.3289
 8640TIP3   OH247334   5.302   6.604  15.190 -0.0021  0.1128 -0.1958
 8640TIP3    H147335   5.271   6.642  15.272 -0.8069  0.1014 -0.4933
 8640TIP3    H247336   5.367   6.666  15.158 -1.1258  1.1142 -0.5552
 8641TIP3   OH247337   5.988   1.270  11.935  0.2309  0.5471  0.5646
 8641TIP3    H147338   5.970   1.233  12.021  1.6945  1.1342  1.1385
 8641TIP3    H247339   6.045   1.345  11.952  0.6824  0.5660 -0.9309
 8642TIP3   OH247340   4.433   3.533   4.382 -0.1594 -0.3037  0.1428
 8642TIP3    H147341   4.421   3.441   4.405  1.5499 -0.8215 -0.9259
 8642TIP3    H247342   4.464   3.575   4.462 -0.3533 -0.7713  0.4623
 8643TIP3   OH247343   2.272   6.321  16.719 -0.5557 -0.5716  0.2046
 8643TIP3    H147344   2.213   6.380  16.671 -0.8527 -0.3934  0.7797
 8643TIP3    H247345   2.316   6.378  16.783  0.8665 -0.5501 -0.7847
 8644TIP3   OH247346   1.835   3.999   0.344  0.2480 -0.1804 -1.2298
 8644TIP3    H147347   1.772   4.070   0.351 -0.0721 -0.5381 -0.3988
 8644TIP3    H247348   1.920   4.039   0.360  0.0349 -0.0389 -0.4244
 8645TIP3   OH247349   0.090   5.538   5.475  0.1391  0.2932 -0.1529
 8645TIP3    H147350   0.182   5.519   5.460  0.5312 -0.1124  2.4126
 8645TIP3    H247351   0.044   5.499   5.401  1.8669 -1.3528 -0.3907
 8646TIP3   OH247352   3.341   0.836   3.187  0.2549 -0.0221  0.0533
 8646TIP3    H147353   3.309   0.859   3.274  1.5494 -0.7382  0.7416
 8646TIP3    H247354   3.291   0.758   3.162 -0.2808  0.3210  0.0555
 8647TIP3   OH247355   1.613   5.670  11.860  0.5259  0.3405  0.5119
 8647TIP3    H147356   1.597   5.581  11.892 -1.0759  1.0849  1.8467
 8647TIP3    H247357   1.595   5.665  11.766 -2.7708 -0.0476  1.1064
 8648TIP3   OH247358   4.858   3.860   1.661 -0.1430 -0.3009 -0.2463
 8648TIP3    H147359   4.833   3.922   1.729  0.0345 -0.8073  0.2928
 8648TIP3    H247360   4.860   3.775   1.706  1.0801 -0.4812 -0.6181
 8649TIP3   OH247361   0.690   2.743   0.604  0.3919  0.2192 -0.0081
 8649TIP3    H147362   0.729   2.660   0.577 -2.0987 -0.7756 -0.6336
 8649TIP3    H247363   0.667   2.786   0.522  2.5946  2.0337  0.2690
 8650TIP3   OH247364   3.282   1.197   4.395  0.0562  0.0122  0.5505
 8650TIP3    H147365   3.286   1.110   4.355 -1.3859 -0.3502  1.1852
 8650TIP3    H247366   3.366   1.237   4.371  0.0935 -0.9641 -1.0522
 8651TIP3   OH247367   0.861   2.890  13.512 -0.0742 -0.1284  0.8275
 8651TIP3    H147368   0.926   2.897  13.582  0.1892 -2.3463  0.8644
 8651TIP3    H247369   0.797   2.828  13.546 -0.7231 -0.0899 -0.3180
 8652TIP3   OH247370   1.088   6.317  15.467  0.7036 -0.1961 -0.0968
 8652TIP3    H147371   1.173   6.295  15.429  0.4144 -0.4542 -0.5957
 8652TIP3    H247372   1.026   6.262  15.420  0.4297 -1.0869  1.2841
 8653TIP3   OH247373   3.676   0.266  14.830  0.1166  0.0390 -0.3186
 8653TIP3    H147374   3.711   0.298  14.913 -2.1514  0.1514  0.6527
 8653TIP3    H247375   3.701   0.333  14.766  1.5943  0.1250  0.3424
 8654TIP3   OH247376   5.483   3.519  15.404 -0.3233 -0.1987  0.1181
 8654TIP3    H147377   5.568   3.491  15.370  0.2665 -0.4314  1.7637
 8654TIP3    H247378   5.483   3.614  15.395  0.2680 -0.1664  0.4932
 8655TIP3   OH247379   5.024   1.839   0.286  0.6247 -0.2715  0.2987
 8655TIP3    H147380   5.089   1.819   0.354  0.2218  0.5827  0.9507
 8655TIP3    H247381   4.966   1.902   0.327  0.5329  0.4696 -0.9447
 8656TIP3   OH247382   1.093   2.018  15.333  0.3876 -0.2123  0.3453
 8656TIP3    H147383   1.090   1.929  15.368  1.3582 -0.2747  0.2820
 8656TIP3    H247384   1.174   2.021  15.283  0.1218  0.5669 -0.0480
 8657TIP3   OH247385   3.824   2.343  13.128  0.8486 -0.1975  0.5125
 8657TIP3    H147386   3.895   2.387  13.175  0.7458  0.9702 -0.3947
 8657TIP3    H247387   3.744   2.372  13.173  0.8102  0.1858  0.1980
 8658TIP3   OH247388   4.825   6.283  16.595 -0.2611 -0.4694 -0.2562
 8658TIP3    H147389   4.799   6.316  16.509  0.1174 -1.2822 -0.6923
 8658TIP3    H247390   4.921   6.287  16.595 -0.2544 -0.5654  0.0831
 8659TIP3   OH247391   0.093   4.992  14.733  0.4433  0.4218  0.1714
 8659TIP3    H147392   0.065   5.037  14.813 -1.6574  0.5819 -0.6174
 8659TIP3    H247393   0.021   4.931  14.714  0.8278  0.5332 -1.7262
 8660TIP3   OH247394   0.682   0.274   1.763 -0.0122  0.0201 -0.5034
 8660TIP3    H147395   0.679   0.307   1.673 -0.9361  0.6584 -0.2558
 8660TIP3    H247396   0.617   0.204   1.765  0.9856 -0.9094 -0.6814
 8661TIP3   OH247397   6.578   1.251  15.904 -0.1677 -0.3268  0.1463
 8661TIP3    H147398   6.620   1.197  15.836 -0.3948  0.2769 -0.4873
 8661TIP3    H247399   6.495   1.279  15.864 -0.0689  0.4553  0.4866
 8662TIP3   OH247400   5.996   1.843   2.084  0.5849  0.4971  0.6594
 8662TIP3    H147401   6.037   1.896   2.015 -0.1953  2.4150  1.6354
 8662TIP3    H247402   5.921   1.896   2.113 -1.1044 -1.8230  0.6250
 8663TIP3   OH247403   4.993   3.378  14.644  0.3670  0.5998 -1.1038
 8663TIP3    H147404   4.988   3.292  14.603  2.3010  0.3782 -0.9122
 8663TIP3    H247405   4.920   3.378  14.706 -0.1618 -0.5739 -1.7023
 8664TIP3   OH247406   5.687   2.211   2.208  0.0065  0.3837 -0.0872
 8664TIP3    H147407   5.660   2.291   2.161 -1.4904  0.9328  1.6678
 8664TIP3    H247408   5.751   2.241   2.272  0.0238  0.0565  0.0487
 8665TIP3   OH247409   0.256   0.848  12.854 -0.1564 -0.4614 -0.0216
 8665TIP3    H147410   0.319   0.856  12.926 -0.4333  0.1019  0.1594
 8665TIP3    H247411   0.191   0.785  12.886  1.2087 -2.3245 -0.8601
 8666TIP3   OH247412   3.740   5.111  16.601  0.5110 -0.6970  0.1392
 8666TIP3    H147413   3.645   5.115  16.587  0.3327 -4.4604  0.0166
 8666TIP3    H247414   3.760   5.193  16.647 -2.3644  1.3467 -2.0551
 8667TIP3   OH247415   6.139   3.627  13.330  0.6264  0.5253 -0.4462
 8667TIP3    H147416   6.062   3.639  13.386  1.6558  1.2352  0.8416
 8667TIP3    H247417   6.105   3.636  13.241 -0.8314  0.5655  0.0942
 8668TIP3   OH247418   2.474   5.631   1.264 -0.7187  0.2679 -0.1105
 8668TIP3    H147419   2.488   5.539   1.286  0.7504  0.3864 -0.5026
 8668TIP3    H247420   2.387   5.633   1.224 -0.3570 -1.1166 -0.9885
 8669TIP3   OH247421   6.168   4.691  11.633 -0.2617  0.1337 -0.7755
 8669TIP3    H147422   6.121   4.631  11.691 -2.5295  0.2720 -2.3712
 8669TIP3    H247423   6.241   4.723  11.685 -1.3026 -0.9669  1.4507
 8670TIP3   OH247424   5.845   0.762  11.276 -0.1080  0.0846  0.0681
 8670TIP3    H147425   5.902   0.827  11.236 -0.8385  1.6930  1.5758
 8670TIP3    H247426   5.895   0.681  11.273  1.0008  0.7961 -1.4259
 8671TIP3   OH247427   1.097   4.301   4.626  0.1176  0.0930 -0.1916
 8671TIP3    H147428   1.128   4.261   4.708  0.0441 -0.7614 -0.5741
 8671TIP3    H247429   1.173   4.351   4.594  0.0164  0.7748  0.6003
 8672TIP3   OH247430   1.673   1.929  13.590  0.2252  0.1411  0.0196
 8672TIP3    H147431   1.729   1.937  13.513  0.3980 -2.5208 -0.1953
 8672TIP3    H247432   1.733   1.917  13.663 -0.0041 -1.4264 -0.0306
 8673TIP3   OH247433   0.376   4.652  16.753 -0.1136  0.2450  0.0800
 8673TIP3    H147434   0.368   4.726  16.692 -1.2471  0.6132  0.6624
 8673TIP3    H247435   0.321   4.584  16.715  0.6821 -0.1927 -0.2912
 8674TIP3   OH247436   4.913   6.520   4.129  0.0759  0.1018  0.5348
 8674TIP3    H147437   4.859   6.491   4.055 -0.1339 -0.9887  1.1125
 8674TIP3    H247438   4.860   6.502   4.206  0.9780 -0.3290  1.0615
 8675TIP3   OH247439   2.533   4.862  15.353  0.1032  0.2306  0.2162
 8675TIP3    H147440   2.573   4.777  15.372  0.7617  0.6107  0.5743
 8675TIP3    H247441   2.484   4.848  15.273 -0.2162 -0.6230  0.5527
 8676TIP3   OH247442   2.209   4.970  16.375  0.0916  0.1480 -0.4846
 8676TIP3    H147443   2.304   4.974  16.382  0.0232  0.9441  0.2514
 8676TIP3    H247444   2.189   4.879  16.355  0.9979 -0.0674 -0.4160
 8677TIP3   OH247445   1.916   3.971  12.922  0.1220  0.5810 -0.4872
 8677TIP3    H147446   1.841   3.998  12.868 -2.2036 -0.7450  1.9420
 8677TIP3    H247447   1.924   4.041  12.987 -1.3063 -0.9483  1.3950
 8678TIP3   OH247448   4.691   0.739  12.082 -0.1112  0.1160 -0.1107
 8678TIP3    H147449   4.621   0.799  12.055 -0.0084  0.2435 -0.0930
 8678TIP3    H247450   4.766   0.764  12.029  0.4677  1.2064  1.1796
 8679TIP3   OH247451   2.976   3.061  13.333 -0.3617 -0.5392  0.2581
 8679TIP3    H147452   2.953   2.971  13.353 -1.6371 -0.2021  0.3383
 8679TIP3    H247453   2.924   3.083  13.255  1.2098 -0.4122 -0.7853
 8680TIP3   OH247454   6.724   4.406  13.688  0.5702  0.3077 -0.3408
 8680TIP3    H147455   6.639   4.378  13.652  0.7053 -0.5636 -0.0031
 8680TIP3    H247456   6.747   4.337  13.751  0.1118  2.0408  1.7984
 8681TIP3   OH247457   4.819   0.458  13.510 -0.6657  0.3571 -0.4970
 8681TIP3    H147458   4.750   0.478  13.446 -1.2801 -1.4137 -0.4038
 8681TIP3    H247459   4.889   0.417  13.459 -0.5892  0.1783 -0.2471
 8682TIP3   OH247460   2.465   1.517   4.841 -0.4331  0.2217  0.2740
 8682TIP3    H147461   2.445   1.604   4.876 -0.1444  0.9062 -1.2151
 8682TIP3    H247462   2.557   1.504   4.861 -0.4626  0.2870  0.4501
 8683TIP3   OH247463   5.278   4.495   0.826 -0.1039 -0.6665 -0.3191
 8683TIP3    H147464   5.217   4.567   0.808  0.7835 -0.2045 -1.5448
 8683TIP3    H247465   5.329   4.525   0.901  2.3222  1.3369 -2.6611
 8684TIP3   OH247466   1.359   1.424   4.900 -0.2437 -0.2625  0.0637
 8684TIP3    H147467   1.273   1.386   4.916 -1.1003  1.5565 -0.1119
 8684TIP3    H247468   1.387   1.457   4.985 -0.4841  0.6924 -0.2310
 8685TIP3   OH247469   2.337   3.814   2.419  0.0057 -0.4821  0.1078
 8685TIP3    H147470   2.289   3.891   2.391 -0.6024 -2.2291 -3.9965
 8685TIP3    H247471   2.277   3.768   2.479 -1.1935  0.1970 -0.5583
 8686TIP3   OH247472   5.168   6.240  14.084  0.4179 -0.6967  0.7882
 8686TIP3    H147473   5.208   6.308  14.138 -1.2358  1.1354 -0.2309
 8686TIP3    H247474   5.089   6.215  14.132 -0.9555  0.8055 -0.6284
 8687TIP3   OH247475   1.371   0.480  13.256 -0.3049 -0.0221 -0.1870
 8687TIP3    H147476   1.414   0.448  13.176 -1.8959  1.2531 -1.5974
 8687TIP3    H247477   1.312   0.548  13.225 -0.6009  0.8239  2.1775
 8688TIP3   OH247478   3.463   3.721   6.678  0.3690  0.0665  0.4823
 8688TIP3    H147479   3.451   3.798   6.733  1.6569  1.1491 -0.7319
 8688TIP3    H247480   3.380   3.710   6.633  0.5310  1.3967 -0.1569
 8689TIP3   OH247481   6.011   0.620  17.101 -0.7561  0.2302 -0.5046
 8689TIP3    H147482   6.086   0.678  17.085 -1.1424  0.5172 -1.3262
 8689TIP3    H247483   5.951   0.673  17.153  0.0412 -0.3401  1.0096
 8690TIP3   OH247484   5.920   2.415   1.964  0.1417 -0.0668 -0.0983
 8690TIP3    H147485   6.007   2.377   1.955  0.0921  0.0196 -0.9169
 8690TIP3    H247486   5.901   2.409   2.058 -0.1985 -2.8227 -0.3067
 8691TIP3   OH247487   5.089   3.795  15.857 -0.4860 -0.9767 -0.0129
 8691TIP3    H147488   5.050   3.856  15.919 -0.5519 -0.7989 -0.2259
 8691TIP3    H247489   5.052   3.710  15.879 -1.3675 -0.7325 -0.5181
 8692TIP3   OH247490   5.428   4.261  15.528 -0.0530 -0.2694 -0.3599
 8692TIP3    H147491   5.464   4.343  15.495 -2.4230  0.9313 -0.0376
 8692TIP3    H247492   5.505   4.204  15.538  1.5995  1.8028 -0.8024
 8693TIP3   OH247493   5.092   3.270   2.884  0.2098  0.2235  0.2858
 8693TIP3    H147494   5.033   3.313   2.822  0.4990 -0.4302 -0.4637
 8693TIP3    H247495   5.151   3.340   2.914 -0.1796  0.6245  0.1218
 8694TIP3   OH247496   6.411   2.086  15.521  0.3820 -0.3501 -0.0132
 8694TIP3    H147497   6.488   2.030  15.525  1.5345  1.2741  1.6515
 8694TIP3    H247498   6.417   2.140  15.601 -1.7893  0.6618 -0.5110
 8695TIP3   OH247499   4.918   2.915   3.604 -0.4344 -0.7862  0.4315
 8695TIP3    H147500   4.925   2.847   3.538  0.2915 -1.6412  1.3802
 8695TIP3    H247501   4.936   2.996   3.557 -1.9863 -1.1581 -0.8471
 8696TIP3   OH247502   0.766   4.663  15.670 -0.2730  0.7361  0.6222
 8696TIP3    H147503   0.831   4.651  15.600  0.9577 -0.0256  1.8615
 8696TIP3    H247504   0.814   4.644  15.751 -2.0744  0.0444  1.5580
 8697TIP3   OH247505   3.094   3.891   2.112 -0.6853  0.3649 -0.5496
 8697TIP3    H147506   3.122   3.961   2.053 -0.2222 -0.2628 -1.0720
 8697TIP3    H247507   2.999   3.885   2.097 -0.7109  0.8006 -0.5847
 8698TIP3   OH247508   4.842   0.942   5.385 -0.3629  0.3004 -0.1084
 8698TIP3    H147509   4.892   1.023   5.374 -2.1780  1.0752 -3.2510
 8698TIP3    H247510   4.808   0.947   5.474 -0.0136  2.7403 -0.0769
 8699TIP3   OH247511   1.942   0.469   3.602  0.0916 -0.5828  0.7330
 8699TIP3    H147512   1.867   0.514   3.563  0.4540 -0.6377 -0.0340
 8699TIP3    H247513   1.966   0.402   3.538 -0.8070 -2.2702  2.1108
 8700TIP3   OH247514   4.640   0.698  16.479  0.0815  0.4958 -0.2997
 8700TIP3    H147515   4.615   0.679  16.389  1.8332 -0.5083 -0.5892
 8700TIP3    H247516   4.678   0.786  16.475  0.3962  0.3492 -0.5977
 8701TIP3   OH247517   4.009   0.763  11.539  0.5461 -0.1675  0.1168
 8701TIP3    H147518   4.006   0.859  11.528 -2.8850 -0.3852 -1.5372
 8701TIP3    H247519   4.064   0.750  11.616  0.9474  3.1467  0.5042
 8702TIP3   OH247520   1.710   6.052   1.121  0.2981 -0.2259 -0.1141
 8702TIP3    H147521   1.770   6.026   1.191  0.3957 -0.7478 -0.3900
 8702TIP3    H247522   1.652   5.977   1.110 -1.3000  0.8044  1.0990
 8703TIP3   OH247523   4.504   6.566  17.054  0.0571  0.5643 -0.0972
 8703TIP3    H147524   4.579   6.592  17.108  0.9837  0.5258 -1.3262
 8703TIP3    H247525   4.495   6.638  16.991  0.0065 -0.1352 -0.8926
 8704TIP3   OH247526   6.146   2.452  11.441 -0.0454 -0.4518  0.2176
 8704TIP3    H147527   6.203   2.438  11.518 -0.4637 -1.0613  0.4199
 8704TIP3    H247528   6.062   2.413  11.467 -1.2734  2.5131  0.8228
 8705TIP3   OH247529   0.363   5.682  15.704  0.0891 -0.1864  0.0550
 8705TIP3    H147530   0.338   5.754  15.763 -0.0080 -0.2969  0.1486
 8705TIP3    H247531   0.280   5.641  15.680  0.0013  0.7095 -1.2466
 8706TIP3   OH247532   1.238   0.656   4.455  0.1936 -0.5191 -0.0717
 8706TIP3    H147533   1.156   0.683   4.497 -0.1698 -1.9007  0.1352
 8706TIP3    H247534   1.297   0.635   4.527  0.4309 -0.4098 -0.2314
 8707TIP3   OH247535   1.886   0.594   1.833 -0.2297 -0.4701 -0.3401
 8707TIP3    H147536   1.924   0.595   1.920 -0.0625  0.7416 -0.4193
 8707TIP3    H247537   1.953   0.631   1.777  0.1791 -2.4378 -1.2179
 8708TIP3   OH247538   2.916   2.144   1.695  0.3742  0.1729 -0.1171
 8708TIP3    H147539   2.863   2.124   1.772 -0.3662 -0.9459 -0.8924
 8708TIP3    H247540   2.918   2.062   1.645 -0.5638  1.3242 -2.1250
 8709TIP3   OH247541   6.407   3.244  16.789 -0.6688  0.5746  0.0260
 8709TIP3    H147542   6.470   3.172  16.792 -1.9762 -0.6017 -0.4014
 8709TIP3    H247543   6.449   3.314  16.839  1.0161 -0.1576 -0.3387
 8710TIP3   OH247544   3.390   4.718   1.280  0.5398  0.0447 -0.3294
 8710TIP3    H147545   3.321   4.656   1.258 -0.5586  1.3944 -0.7999
 8710TIP3    H247546   3.469   4.665   1.287 -0.5001 -1.4916 -0.0059
 8711TIP3   OH247547   3.068   6.381  11.099 -0.5296 -0.3266 -0.4587
 8711TIP3    H147548   3.118   6.300  11.097  2.6384  1.5365 -0.3160
 8711TIP3    H247549   3.059   6.406  11.007 -1.1197 -0.5977 -0.4784
 8712TIP3   OH247550   3.075   6.729   1.472 -0.1384  0.4058  0.4406
 8712TIP3    H147551   3.093   6.659   1.535  3.3414  2.1259  1.5326
 8712TIP3    H247552   3.039   6.800   1.525 -2.6790 -0.1325 -0.5010
 8713TIP3   OH247553   5.771   3.151   6.789 -0.5184  0.0907 -0.2213
 8713TIP3    H147554   5.815   3.076   6.829 -0.0450  0.7839  0.5865
 8713TIP3    H247555   5.708   3.113   6.728 -1.7220 -0.9967  1.6757
 8714TIP3   OH247556   2.928   6.006  15.802  0.0114  0.1453  0.0741
 8714TIP3    H147557   3.013   6.019  15.844 -0.2321 -1.0222  0.9419
 8714TIP3    H247558   2.945   5.939  15.735 -0.0985  0.3769 -0.1903
 8715TIP3   OH247559   6.436   1.527   1.270  0.4033  0.1892  0.9621
 8715TIP3    H147560   6.515   1.556   1.224  0.5385 -1.5251  0.0551
 8715TIP3    H247561   6.463   1.517   1.361  1.7436 -2.0671  0.3729
 8716TIP3   OH247562   5.111   3.765   3.292 -0.1142 -0.2668 -0.3975
 8716TIP3    H147563   5.033   3.809   3.327 -0.0487 -0.2730 -0.2450
 8716TIP3    H247564   5.158   3.832   3.244  0.6606  0.1447  0.9253
 8717TIP3   OH247565   1.701   0.511   6.732 -0.4208 -0.0148  0.1389
 8717TIP3    H147566   1.742   0.522   6.646  0.4811 -0.4263  0.5020
 8717TIP3    H247567   1.729   0.424   6.760 -2.0979 -0.5760  0.1191
 8718TIP3   OH247568   2.409   2.988   5.618 -0.3547 -0.2821 -0.1481
 8718TIP3    H147569   2.388   3.010   5.709 -1.1599 -1.1093 -0.1269
 8718TIP3    H247570   2.377   2.898   5.607  2.2739 -1.2262 -0.4316
 8719TIP3   OH247571   0.528   0.350   4.305 -0.2641 -0.0782 -0.3701
 8719TIP3    H147572   0.494   0.436   4.330  0.0184  0.0825 -0.5414
 8719TIP3    H247573   0.458   0.289   4.330 -0.2227  0.1384  0.2852
 8720TIP3   OH247574   2.915   0.210  11.918  0.1303 -0.7242 -0.2883
 8720TIP3    H147575   2.827   0.193  11.951  0.6294 -2.4306  0.2360
 8720TIP3    H247576   2.905   0.215  11.823 -0.8966  1.5649 -0.0957
 8721TIP3   OH247577   0.945   3.483   5.062 -0.3491 -0.2430  0.6975
 8721TIP3    H147578   0.961   3.576   5.078 -0.5994  0.2963 -1.9074
 8721TIP3    H247579   0.858   3.481   5.021  0.7901 -1.3320 -1.7291
 8722TIP3   OH247580   4.827   3.316  13.204  0.3816 -0.3470  0.2544
 8722TIP3    H147581   4.793   3.347  13.120  3.5186 -1.3626 -1.4718
 8722TIP3    H247582   4.812   3.389  13.264  0.0658  1.2522 -1.7032
 8723TIP3   OH247583   5.132   5.762  16.240 -0.6871 -0.2027 -0.8179
 8723TIP3    H147584   5.050   5.735  16.283  0.7698 -1.3287  1.3552
 8723TIP3    H247585   5.200   5.740  16.303  1.3337  0.4743 -2.7111
 8724TIP3   OH247586   4.345   4.521  16.287  0.2180  0.7265 -0.1188
 8724TIP3    H147587   4.365   4.528  16.381  2.2413 -0.0509 -0.4638
 8724TIP3    H247588   4.276   4.456  16.282  0.6576  0.1809  0.7732
 8725TIP3   OH247589   3.577   0.071   5.574  0.5355  0.2493  0.5034
 8725TIP3    H147590   3.483   0.051   5.568  0.7948 -1.1227  0.8533
 8725TIP3    H247591   3.620  -0.003   5.531  1.4760  0.6653  0.7282
 8726TIP3   OH247592   6.524   0.327  16.764  0.2598 -0.9907 -1.4374
 8726TIP3    H147593   6.506   0.237  16.789  1.7651 -1.9109 -3.5646
 8726TIP3    H247594   6.600   0.351  16.817  0.4644 -1.3065 -1.5851
 8727TIP3   OH247595   5.719   4.255  14.540  1.1053 -0.3204 -0.0871
 8727TIP3    H147596   5.745   4.347  14.540 -1.0296  0.3009  0.4393
 8727TIP3    H247597   5.629   4.255  14.573  0.7746 -2.5177 -0.9007
 8728TIP3   OH247598   0.723   5.689   1.975 -0.9502 -0.5698  0.1506
 8728TIP3    H147599   0.729   5.759   2.041 -0.0739  0.1230 -0.6370
 8728TIP3    H247600   0.808   5.645   1.979 -0.9993 -0.7117 -0.3063
 8729TIP3   OH247601   4.644   1.007   4.231  0.0562 -0.6058  0.1630
 8729TIP3    H147602   4.675   0.994   4.321 -1.1211 -0.9969  0.5162
 8729TIP3    H247603   4.617   0.920   4.202  1.5012 -0.6939 -0.9871
 8730TIP3   OH247604   3.128   4.516   0.808  0.5202  0.3892  0.1102
 8730TIP3    H147605   3.179   4.435   0.811  0.2219  0.1901 -0.1485
 8730TIP3    H247606   3.081   4.512   0.725 -0.3220  0.3193  0.5797
 8731TIP3   OH247607   5.511   1.949  13.086  0.6445  0.0395 -0.1684
 8731TIP3    H147608   5.506   2.041  13.061  1.5830  0.5165  1.3075
 8731TIP3    H247609   5.561   1.907  13.016 -0.4846  0.4926 -1.2470
 8732TIP3   OH247610   3.781   2.315   5.661  0.2479  0.1835  0.4934
 8732TIP3    H147611   3.704   2.303   5.716 -0.8968 -1.4304 -1.3763
 8732TIP3    H247612   3.847   2.255   5.698 -0.5514 -0.9691  0.0883
 8733TIP3   OH247613   5.386   5.403  16.372  0.4443 -0.5347  0.1790
 8733TIP3    H147614   5.426   5.462  16.307  1.0998 -1.8802 -0.6443
 8733TIP3    H247615   5.295   5.393  16.342 -0.4955  2.2490  1.8634
 8734TIP3   OH247616   3.312   1.570   4.076  0.2311 -0.5292  0.2316
 8734TIP3    H147617   3.319   1.476   4.089  0.0738 -0.3191  1.9922
 8734TIP3    H247618   3.402   1.602   4.079  0.2485 -0.5676  0.1105
 8735TIP3   OH247619   4.883   6.308  10.399  0.4355  0.3158 -0.3157
 8735TIP3    H147620   4.830   6.279  10.325  1.8189 -1.3305 -0.6723
 8735TIP3    H247621   4.896   6.229  10.452  2.4073  0.7280 -0.1641
 8736TIP3   OH247622   1.058   0.628   1.815 -0.2329 -0.6906  0.4186
 8736TIP3    H147623   0.979   0.576   1.801  0.0757 -1.2051  0.5561
 8736TIP3    H247624   1.130   0.568   1.795  0.1013  0.1997 -1.1308
 8737TIP3   OH247625   4.628   5.191   1.548  0.0215 -0.0706 -0.4012
 8737TIP3    H147626   4.669   5.104   1.553 -1.4807 -0.8601 -1.5434
 8737TIP3    H247627   4.550   5.184   1.603  1.1537  1.2950  1.4146
 8738TIP3   OH247628   4.908   4.724   5.906  0.0695 -0.7736 -0.3629
 8738TIP3    H147629   4.875   4.813   5.918  2.9661 -0.0585  3.3020
 8738TIP3    H247630   4.841   4.668   5.946 -0.1168  0.0822  0.5569
 8739TIP3   OH247631   2.656   5.968  11.806  0.0984 -0.1950  0.2113
 8739TIP3    H147632   2.678   6.014  11.887 -2.3823 -0.5435  1.1335
 8739TIP3    H247633   2.620   5.884  11.834  2.3031 -1.7671 -1.3967
 8740TIP3   OH247634   6.550   4.298   4.743 -0.9718  0.1312  0.1274
 8740TIP3    H147635   6.618   4.264   4.802 -1.3883  1.4214  1.4108
 8740TIP3    H247636   6.583   4.384   4.717 -2.2170  0.8850  0.9780
 8741TIP3   OH247637   6.694   6.246   2.129 -0.2064 -0.1696  0.0104
 8741TIP3    H147638   6.757   6.184   2.090 -0.0976  0.2223 -0.4393
 8741TIP3    H247639   6.611   6.224   2.087 -0.3114 -0.4841  0.3797
 8742TIP3   OH247640   2.009   3.084  15.053 -0.1206 -0.6602 -0.2194
 8742TIP3    H147641   1.947   3.014  15.072 -0.8188 -0.1598 -0.6178
 8742TIP3    H247642   2.076   3.044  14.999 -0.7556 -0.9117 -0.8170
 8743TIP3   OH247643   3.095   0.484  15.633 -0.0111  0.0822 -0.0927
 8743TIP3    H147644   3.061   0.555  15.688  1.7128  1.2836 -0.5160
 8743TIP3    H247645   3.098   0.408  15.691  1.8426  1.3481  1.5281
 8744TIP3   OH247646   3.019   1.369   4.287 -0.0762 -0.4879 -0.1822
 8744TIP3    H147647   3.110   1.347   4.267 -0.2387  0.4767 -1.9807
 8744TIP3    H247648   3.013   1.463   4.275 -1.0340 -0.3688  1.1086
 8745TIP3   OH247649   4.042   5.164   3.664  0.3341 -0.2265  0.2636
 8745TIP3    H147650   4.069   5.154   3.756 -1.2835 -0.1672  0.7518
 8745TIP3    H247651   4.078   5.248   3.638  2.1254 -0.9347  0.3575
 8746TIP3   OH247652   4.009   2.520   4.556 -0.6191  0.0164  0.0304
 8746TIP3    H147653   4.099   2.543   4.579 -0.1812 -1.5585 -0.0082
 8746TIP3    H247654   3.962   2.603   4.552  0.7272  0.8052  0.5354
 8747TIP3   OH247655   2.577   2.369   2.197  0.0990 -0.2176  0.1085
 8747TIP3    H147656   2.609   2.342   2.284  0.0265  1.3046  0.6184
 8747TIP3    H247657   2.483   2.383   2.209  0.0825 -0.0328 -0.2298
 8748TIP3   OH247658   6.708   4.299  17.080 -0.0084  0.4131 -0.1344
 8748TIP3    H147659   6.758   4.294  16.998 -1.2182 -0.5604 -0.8327
 8748TIP3    H247660   6.652   4.221  17.078 -0.3987  0.6515  1.3910
 8749TIP3   OH247661   0.920   6.350   5.106 -0.0591 -0.6002 -0.1108
 8749TIP3    H147662   0.958   6.350   5.194 -0.7413 -1.0896  0.1818
 8749TIP3    H247663   0.981   6.404   5.055  0.5719 -0.6626  0.5547
 8750TIP3   OH247664   5.070   1.719   0.991 -0.6202 -0.1631  0.1959
 8750TIP3    H147665   5.122   1.793   0.959 -0.8579  0.3687  1.0407
 8750TIP3    H247666   5.097   1.645   0.935 -2.5613  1.1937 -2.6610
 8751TIP3   OH247667   6.605   2.663  14.676 -0.4533  0.1914  0.3716
 8751TIP3    H147668   6.542   2.730  14.703 -1.6375 -0.0181 -1.6984
 8751TIP3    H247669   6.550   2.587  14.653  0.5905 -0.2315 -0.7858
 8752TIP3   OH247670   4.399   4.015  12.520 -0.0071 -0.1837  0.0515
 8752TIP3    H147671   4.337   4.054  12.458  0.9276 -0.4880 -1.1004
 8752TIP3    H247672   4.367   4.042  12.606 -0.8868  0.9018 -0.5978
 8753TIP3   OH247673   1.917   5.989   5.896 -0.6624  0.6238  0.2444
 8753TIP3    H147674   1.851   5.924   5.921 -0.8747  0.5969 -0.3770
 8753TIP3    H247675   1.924   5.981   5.801  1.0097 -0.1075  0.4186
 8754TIP3   OH247676   1.455   5.812  15.889 -0.4240 -0.0817 -0.3904
 8754TIP3    H147677   1.394   5.740  15.871  0.4827 -1.3627  1.4805
 8754TIP3    H247678   1.517   5.809  15.816  0.9639 -2.7323  0.8309
 8755TIP3   OH247679   3.406   2.854   3.405 -0.0211 -0.2377 -0.8049
 8755TIP3    H147680   3.436   2.776   3.452  0.5064 -0.5258 -1.6077
 8755TIP3    H247681   3.364   2.820   3.326 -1.8588  0.2020 -0.0321
 8756TIP3   OH247682   2.068   5.368  16.312 -0.1906  0.5379 -0.1396
 8756TIP3    H147683   2.036   5.309  16.381 -0.3058  2.0998  1.1682
 8756TIP3    H247684   2.147   5.325  16.279  1.4495  1.0787  2.8819
 8757TIP3   OH247685   1.804   0.022   3.081  0.0116  0.3089 -0.4763
 8757TIP3    H147686   1.750  -0.052   3.054  0.4680 -0.0916 -0.2918
 8757TIP3    H247687   1.859  -0.012   3.152 -0.3412  1.0423  0.1521
 8758TIP3   OH247688   4.822   6.402   5.038 -0.4180  0.0753  0.1774
 8758TIP3    H147689   4.741   6.356   5.013 -0.2822 -0.2049  0.2596
 8758TIP3    H247690   4.842   6.370   5.125  0.8544 -1.3106 -0.6040
 8759TIP3   OH247691   2.740   0.010  13.111 -0.0305 -0.7534  0.2947
 8759TIP3    H147692   2.748   0.104  13.125 -1.7661 -0.9222  2.7747
 8759TIP3    H247693   2.682   0.001  13.035  1.8528  0.1463 -1.3047
 8760TIP3   OH247694   6.166   2.867  12.462 -0.2124 -0.2744  0.0405
 8760TIP3    H147695   6.073   2.848  12.454 -0.1997 -0.1236 -0.4710
 8760TIP3    H247696   6.195   2.882  12.372 -0.2354  2.2935  0.4398
 8761TIP3   OH247697   1.115   0.545  13.539 -0.3717  0.1735  0.2404
 8761TIP3    H147698   1.059   0.599  13.594 -0.2327  0.1160  0.4408
 8761TIP3    H247699   1.109   0.584  13.452  0.7404  1.2862  0.6466
 8762TIP3   OH247700   6.284   4.050   5.291  0.0911  0.3681 -0.3480
 8762TIP3    H147701   6.298   4.027   5.198 -0.2368  2.2238 -0.8664
 8762TIP3    H247702   6.323   4.137   5.300 -1.4108  0.9238  0.8572
 8763TIP3   OH247703   0.608   1.974   5.916  0.9370 -0.2892  0.1154
 8763TIP3    H147704   0.514   1.991   5.914  0.3409 -3.3984 -0.0754
 8763TIP3    H247705   0.646   2.046   5.866 -1.5060  0.0371 -1.3489
 8764TIP3   OH247706   3.068   0.846  10.794  0.0803 -0.1225 -0.5959
 8764TIP3    H147707   3.134   0.916  10.794  0.5360 -0.5497 -0.5813
 8764TIP3    H247708   3.053   0.828  10.701  0.1298 -0.1550 -0.5978
 8765TIP3   OH247709   1.004   2.148   4.319  0.9631  0.0772  0.1243
 8765TIP3    H147710   0.918   2.121   4.352  0.7004 -0.8201 -1.2589
 8765TIP3    H247711   0.998   2.243   4.311 -0.7776 -0.1986 -2.3423
 8766TIP3   OH247712   5.555   3.933   5.650 -0.0782 -0.1356 -0.1467
 8766TIP3    H147713   5.633   3.882   5.628 -0.7651 -0.3425 -2.2417
 8766TIP3    H247714   5.544   3.922   5.744  2.9023  0.5817  0.3204
 8767TIP3   OH247715   5.892   3.822  14.505  0.3571  0.7513 -0.2134
 8767TIP3    H147716   5.849   3.873  14.574  1.5219  0.3502  0.8259
 8767TIP3    H247717   5.979   3.802  14.540  0.3797 -0.8690 -1.1275
 8768TIP3   OH247718   6.503   1.093   0.935 -0.1961  0.3401  0.2397
 8768TIP3    H147719   6.411   1.070   0.923  0.0926 -1.3024  1.0372
 8768TIP3    H247720   6.513   1.104   1.030  0.2539  1.3347  0.0836
 8769TIP3   OH247721   4.422   3.395   2.498 -0.4181 -0.0441 -0.5657
 8769TIP3    H147722   4.370   3.319   2.470 -0.9504 -0.3722  1.2641
 8769TIP3    H247723   4.513   3.370   2.479 -0.6415 -0.9065 -0.5044
 8770TIP3   OH247724   5.917   3.065  13.833 -0.8626  0.2292 -0.1116
 8770TIP3    H147725   5.891   3.065  13.926 -4.0496  4.2173 -0.8273
 8770TIP3    H247726   6.012   3.057  13.834 -1.0149 -2.0512  3.3875
 8771TIP3   OH247727   3.046   3.372  11.763  0.6596 -0.0666 -0.4409
 8771TIP3    H147728   3.049   3.463  11.794  1.1088 -0.3524  0.4030
 8771TIP3    H247729   3.047   3.378  11.668 -1.0291  0.8608 -0.4061
 8772TIP3   OH247730   0.731   6.024  14.528  0.4217 -0.6708  0.3794
 8772TIP3    H147731   0.738   6.092  14.595  2.6112 -1.0299  0.5575
 8772TIP3    H247732   0.642   5.990  14.538 -0.7585  2.1892  0.2208
 8773TIP3   OH247733   6.189   5.984  17.039 -0.0244 -0.0507 -0.0091
 8773TIP3    H147734   6.274   5.985  17.082 -0.4238 -1.6263  0.8765
 8773TIP3    H247735   6.209   5.976  16.946  0.8322  2.5245 -0.0585
 8774TIP3   OH247736   5.426   0.244   2.897  0.1194  0.1687  0.0196
 8774TIP3    H147737   5.344   0.213   2.860 -0.5243  0.5242  1.1418
 8774TIP3    H247738   5.433   0.334   2.867  1.4693 -0.6726 -2.3557
 8775TIP3   OH247739   0.645   3.068   1.316 -0.4349  0.1770 -0.3362
 8775TIP3    H147740   0.675   3.108   1.397 -0.6504 -0.0754 -0.1327
 8775TIP3    H247741   0.661   3.135   1.249 -0.5053  0.4863 -0.0441
 8776TIP3   OH247742   4.378   4.876  12.457  0.2847  0.4394 -1.0986
 8776TIP3    H147743   4.286   4.879  12.482  0.3561  1.7655 -0.9642
 8776TIP3    H247744   4.387   4.942  12.388  1.1730  0.4604 -0.9758
 8777TIP3   OH247745   3.882   5.540   0.656  0.3345 -0.5098  0.5799
 8777TIP3    H147746   3.968   5.502   0.671  0.3625 -0.6069  0.1736
 8777TIP3    H247747   3.826   5.465   0.637 -0.0545 -0.5495  1.8088
 8778TIP3   OH247748   4.035   3.695   2.162  0.6791 -0.4850 -0.4721
 8778TIP3    H147749   4.085   3.763   2.209  0.3958 -0.6192  0.0330
 8778TIP3    H247750   4.071   3.696   2.074 -1.5119  2.6228 -1.4367
 8779TIP3   OH247751   0.292   5.287  17.014  0.0686  0.4227  0.0146
 8779TIP3    H147752   0.288   5.318  16.924  0.6773 -0.9830 -0.4928
 8779TIP3    H247753   0.336   5.358  17.062 -1.9273  1.9839 -0.4203
 8780TIP3   OH247754   4.438   4.488   5.720 -0.0170  0.4260 -0.6178
 8780TIP3    H147755   4.519   4.494   5.669  1.0618  1.1138  1.1421
 8780TIP3    H247756   4.413   4.578   5.736  2.0576  0.3414  3.7390
 8781TIP3   OH247757   1.574   2.587  12.519  0.8272  0.3041 -0.3572
 8781TIP3    H147758   1.603   2.674  12.492 -1.0224  0.4373 -1.9723
 8781TIP3    H247759   1.653   2.545  12.552  1.7141  2.6411  0.6001
 8782TIP3   OH247760   5.659   0.820  16.896  0.0892  0.2748  0.5572
 8782TIP3    H147761   5.583   0.769  16.924 -1.4886  1.7665 -0.8119
 8782TIP3    H247762   5.650   0.904  16.941  0.1120  0.9787 -0.6963
 8783TIP3   OH247763   6.377   1.728  11.826 -0.4327  0.0114  0.3041
 8783TIP3    H147764   6.402   1.638  11.804 -0.6235  0.3532 -1.3963
 8783TIP3    H247765   6.453   1.762  11.874  0.9853 -0.0736 -1.7970
 8784TIP3   OH247766   5.278   6.728  12.460 -0.1190  0.3978  0.4276
 8784TIP3    H147767   5.321   6.759  12.381  0.8511 -0.6183  0.5354
 8784TIP3    H247768   5.248   6.807  12.505  0.4490  1.0399 -0.3243
 8785TIP3   OH247769   1.623   2.640   0.873 -0.0707  0.0133 -0.1265
 8785TIP3    H147770   1.637   2.625   0.779  0.9678  1.7061 -0.2621
 8785TIP3    H247771   1.593   2.556   0.907  1.9416 -1.3019 -1.5093
 8786TIP3   OH247772   6.051   4.289   3.601 -0.2068 -0.4989 -0.0175
 8786TIP3    H147773   6.005   4.227   3.657 -1.0874  1.1077  1.0787
 8786TIP3    H247774   6.137   4.300   3.642 -0.8083  0.5835  0.9741
 8787TIP3   OH247775   3.948   6.424   5.225  0.5971  0.0050  0.2472
 8787TIP3    H147776   3.994   6.466   5.153 -1.2345  0.4464 -0.6982
 8787TIP3    H247777   3.974   6.474   5.302 -0.6737  2.2292 -0.7148
 8788TIP3   OH247778   4.078   3.019   2.005 -0.0978  0.0200 -0.6961
 8788TIP3    H147779   4.036   2.981   1.928  0.0989  0.6125 -1.0954
 8788TIP3    H247780   4.137   2.951   2.036  0.4497  0.0988 -1.5681
 8789TIP3   OH247781   2.328   5.790   4.644  0.2498  0.5131  0.3635
 8789TIP3    H147782   2.266   5.729   4.604  0.5808  0.5093 -0.1351
 8789TIP3    H247783   2.281   5.874   4.643 -0.1956  0.2765  1.0294
 8790TIP3   OH247784   5.429   5.943  11.102 -0.3716 -0.0415 -0.0938
 8790TIP3    H147785   5.477   6.020  11.070  1.5939 -1.5294 -0.8540
 8790TIP3    H247786   5.415   5.960  11.195  0.2436  1.1347 -0.2099
 8791TIP3   OH247787   0.045   0.232   3.826 -0.2264 -0.1578 -0.1780
 8791TIP3    H147788   0.101   0.304   3.795  1.1676 -0.9163  0.5268
 8791TIP3    H247789   0.045   0.170   3.753 -1.3542  0.4881 -0.7497
 8792TIP3   OH247790   2.042   5.582   2.531  0.1425  0.2090 -0.2145
 8792TIP3    H147791   2.001   5.501   2.500 -0.5883  1.2235 -1.9540
 8792TIP3    H247792   2.003   5.597   2.617 -0.8454 -0.4912 -0.5306
 8793TIP3   OH247793   5.407   5.841  15.189  0.1504  0.0362  0.3512
 8793TIP3    H147794   5.330   5.862  15.242 -0.4250 -1.2812  0.0608
 8793TIP3    H247795   5.481   5.851  15.250 -0.3030  0.6880  0.8003
 8794TIP3   OH247796   5.640   1.534  15.592  0.2887  0.9852 -0.4408
 8794TIP3    H147797   5.729   1.569  15.587  0.1685  1.4079  0.3719
 8794TIP3    H247798   5.585   1.610  15.609 -0.4780  1.0303 -2.9802
 8795TIP3   OH247799   6.286   1.957  12.124  0.3473  0.0118 -0.5677
 8795TIP3    H147800   6.241   1.886  12.078 -0.4979  0.0231  0.2239
 8795TIP3    H247801   6.223   2.028  12.127  0.1082 -0.2284  1.2080
 8796TIP3   OH247802   0.564   3.370   2.324 -0.2303  0.7632  0.3163
 8796TIP3    H147803   0.627   3.298   2.311 -0.4028  0.0335  3.1982
 8796TIP3    H247804   0.501   3.335   2.387 -1.7198  2.6232 -0.1199
 8797TIP3   OH247805   4.893   5.962  11.901 -0.1042 -0.0247 -0.2373
 8797TIP3    H147806   4.946   5.921  11.970 -0.2859  3.8665  2.4066
 8797TIP3    H247807   4.955   6.011  11.848 -0.5773  1.6366  0.6977
 8798TIP3   OH247808   3.717   6.328   5.345 -0.0040  0.0748  0.0412
 8798TIP3    H147809   3.785   6.384   5.308 -0.4064 -0.6640 -1.8901
 8798TIP3    H247810   3.749   6.305   5.432  2.1091 -0.0722 -0.7513
 8799TIP3   OH247811   5.809   0.145  12.197 -0.2982  0.5648 -0.6139
 8799TIP3    H147812   5.892   0.171  12.236  0.4400 -0.2909 -1.5550
 8799TIP3    H247813   5.776   0.224  12.154 -0.8975  1.3862  1.3306
 8800TIP3   OH247814   6.611   3.104  15.348  0.0110  0.0434  0.1474
 8800TIP3    H147815   6.625   3.053  15.269 -1.6256 -0.9556  0.4768
 8800TIP3    H247816   6.656   3.055  15.417  1.6629  1.0525 -0.1929
 8801TIP3   OH247817   6.423   0.971  15.765  0.4468  0.4078  0.7112
 8801TIP3    H147818   6.436   1.065  15.757  1.6692  0.3292  1.6608
 8801TIP3    H247819   6.438   0.937  15.677  0.1223  1.0750  0.3910
 8802TIP3   OH247820   6.383   6.154   3.658  0.3855 -0.0889  0.2358
 8802TIP3    H147821   6.380   6.067   3.618 -0.8016  0.5736 -1.1570
 8802TIP3    H247822   6.304   6.198   3.627  0.7180  1.3326  1.3169
 8803TIP3   OH247823   3.397   4.438   5.376 -0.0101 -0.1511  0.2645
 8803TIP3    H147824   3.485   4.425   5.340 -0.2951 -1.7815  0.1156
 8803TIP3    H247825   3.387   4.368   5.440 -1.0309  0.3039  0.6104
 8804TIP3   OH247826   2.832   3.681  12.475 -0.5430  0.2680  0.3776
 8804TIP3    H147827   2.791   3.601  12.507 -0.3825  0.5558  1.3238
 8804TIP3    H247828   2.780   3.707  12.400  0.0769 -1.3467 -0.6334
 8805TIP3   OH247829   6.226   2.614   0.194  0.2641 -0.2293 -0.3270
 8805TIP3    H147830   6.160   2.546   0.190 -0.8851  0.8204  0.3394
 8805TIP3    H247831   6.230   2.638   0.287  1.6980 -0.3876 -0.3255
 8806TIP3   OH247832   3.297   4.615  16.460 -0.1026 -0.1123  0.1094
 8806TIP3    H147833   3.214   4.623  16.412 -0.3594 -3.1907 -0.0618
 8806TIP3    H247834   3.278   4.552  16.529  1.4021  1.1709  1.7158
 8807TIP3   OH247835   1.376   4.836  16.952  0.2289  0.3092  0.5850
 8807TIP3    H147836   1.397   4.857  16.861 -0.8542 -0.4130  0.1456
 8807TIP3    H247837   1.322   4.757  16.946 -1.7351  1.5187  1.6948
 8808TIP3   OH247838   2.751   0.256  17.216  1.2006  0.4144 -0.8757
 8808TIP3    H147839   2.671   0.309  17.212  1.1394  0.3971 -0.0268
 8808TIP3    H247840   2.784   0.256  17.126 -0.6118 -0.9113 -1.5647
 8809TIP3   OH247841   4.943   0.769   1.353 -0.6266  0.4679 -0.3071
 8809TIP3    H147842   4.869   0.827   1.335 -1.3263 -0.3214  0.0392
 8809TIP3    H247843   4.914   0.713   1.425 -0.2684 -0.8780 -1.1896
 8810TIP3   OH247844   0.041   0.904  13.185 -0.3555  0.1549  0.5707
 8810TIP3    H147845   0.023   0.973  13.122 -0.6317 -0.7361 -0.3379
 8810TIP3    H247846   0.034   0.947  13.270 -1.2726  1.0792  0.0434
 8811TIP3   OH247847   3.171   4.661  12.454  0.0946  0.4219 -0.6459
 8811TIP3    H147848   3.137   4.751  12.456 -0.0364  0.3585  0.9412
 8811TIP3    H247849   3.149   4.629  12.367  0.4451  2.0515 -1.3642
 8812TIP3   OH247850   3.784   2.105  12.787 -0.0223  0.3710 -0.0713
 8812TIP3    H147851   3.873   2.132  12.808  0.5337 -1.3675 -0.1195
 8812TIP3    H247852   3.792   2.055  12.706 -1.4631  2.6742 -1.6917
 8813TIP3   OH247853   1.882   2.032  16.481  0.2629  0.1462 -0.1835
 8813TIP3    H147854   1.837   2.116  16.493 -0.7279 -0.2925 -0.8435
 8813TIP3    H247855   1.846   1.996  16.401  1.1855 -0.6074 -0.2675
 8814TIP3   OH247856   3.618   3.703   2.517 -0.2681  0.5347  0.0894
 8814TIP3    H147857   3.618   3.783   2.569 -2.0496  1.0397 -0.6435
 8814TIP3    H247858   3.709   3.672   2.520  0.1107  1.7437  1.6389
 8815TIP3   OH247859   6.302   4.968  14.925 -0.6036  0.4610 -0.3266
 8815TIP3    H147860   6.325   4.922  15.006 -0.3183  0.4876 -0.3894
 8815TIP3    H247861   6.384   4.969  14.875 -0.4169  1.7030 -0.0039
 8816TIP3   OH247862   1.171   4.744  11.264  0.5327 -0.6909  0.2866
 8816TIP3    H147863   1.163   4.657  11.305  0.4292 -0.3097  1.0871
 8816TIP3    H247864   1.262   4.769  11.280 -0.1066  0.4448  2.2996
 8817TIP3   OH247865   3.781   0.383  15.089  0.0637  0.2816 -0.0008
 8817TIP3    H147866   3.790   0.476  15.112  1.1489  0.0106  0.7100
 8817TIP3    H247867   3.745   0.343  15.168 -2.9139  0.5236 -1.1915
 8818TIP3   OH247868   5.410   0.300  13.998 -0.5188 -0.4721  0.0080
 8818TIP3    H147869   5.396   0.322  14.090 -2.0806 -0.2756 -0.2617
 8818TIP3    H247870   5.322   0.298  13.960  0.1106 -0.5380 -1.4842
 8819TIP3   OH247871   0.393   3.747   2.054 -0.0942 -0.2161 -0.4332
 8819TIP3    H147872   0.482   3.761   2.020 -0.0681 -0.6365 -0.5443
 8819TIP3    H247873   0.347   3.705   1.982 -0.5810  0.6212 -0.6157
 8820TIP3   OH247874   5.140   4.945  16.136 -0.2419  0.0266 -0.1597
 8820TIP3    H147875   5.142   4.879  16.067 -2.3822 -0.8330  0.5373
 8820TIP3    H247876   5.146   5.028  16.091 -2.0713 -0.5102 -1.4678
 8821TIP3   OH247877   1.540   0.829   4.818  0.2526 -0.1497  0.5002
 8821TIP3    H147878   1.603   0.882   4.769 -0.2387  2.4136  2.5172
 8821TIP3    H247879   1.594   0.771   4.872  0.8467 -0.0529  0.0144
 8822TIP3   OH247880   1.739   2.410  14.922  0.1634 -0.1220 -0.5373
 8822TIP3    H147881   1.818   2.420  14.868  0.6721 -0.2341  0.1669
 8822TIP3    H247882   1.771   2.369  15.003 -0.8933 -1.7848 -0.9346
 8823TIP3   OH247883   1.076   4.829  14.972  0.1780  0.3639  0.2379
 8823TIP3    H147884   1.154   4.877  14.945  1.4587 -1.2827  0.9931
 8823TIP3    H247885   1.056   4.771  14.898 -0.3425  0.7821  0.0447
 8824TIP3   OH247886   4.358   3.475   6.067  0.0180  0.2255 -0.1516
 8824TIP3    H147887   4.293   3.537   6.100  1.9720  1.9702  0.5727
 8824TIP3    H247888   4.309   3.417   6.010 -1.9809  2.1879 -0.5210
 8825TIP3   OH247889   2.851   0.830   0.384  0.1569 -0.8800  0.1249
 8825TIP3    H147890   2.836   0.752   0.436 -0.6300 -0.2294  0.8840
 8825TIP3    H247891   2.871   0.899   0.447  1.9155 -0.6996 -0.6009
 8826TIP3   OH247892   4.316   0.917   3.528  0.0682 -0.2520  0.0077
 8826TIP3    H147893   4.375   0.863   3.581 -0.4530 -2.2867 -1.4142
 8826TIP3    H247894   4.342   0.898   3.438 -3.8704 -2.6269 -0.7568
 8827TIP3   OH247895   0.466   5.519   3.591  0.1053 -0.1178  0.4270
 8827TIP3    H147896   0.425   5.551   3.510  1.4641  0.8668  0.1090
 8827TIP3    H247897   0.440   5.427   3.596 -0.6842  0.0254 -0.6856
 8828TIP3   OH247898   5.944   3.729   1.614 -0.6300 -0.4351 -0.1745
 8828TIP3    H147899   5.989   3.812   1.602  1.5870 -1.5336  0.2260
 8828TIP3    H247900   5.894   3.717   1.533 -0.0367  0.7171 -0.7278
 8829TIP3   OH247901   6.330   1.034  12.025 -0.0958  0.0972 -0.0737
 8829TIP3    H147902   6.237   1.011  12.019 -0.4979  1.0352  2.2478
 8829TIP3    H247903   6.331   1.116  12.074  1.9131  0.5882 -0.8876
 8830TIP3   OH247904   5.599   3.147  12.371  0.0553 -0.3518 -0.0927
 8830TIP3    H147905   5.575   3.224  12.319  3.1167  1.8846  1.6141
 8830TIP3    H247906   5.687   3.125  12.341  0.0740 -1.7942  0.9995
 8831TIP3   OH247907   3.635   1.971  10.743  0.1106 -0.2344  0.1337
 8831TIP3    H147908   3.608   1.957  10.652 -2.4710 -0.8207  0.9422
 8831TIP3    H247909   3.555   2.001  10.786  1.8375  2.2589  1.7419
 8832TIP3   OH247910   1.748   1.675   1.275  0.6577 -0.0641 -0.5426
 8832TIP3    H147911   1.809   1.601   1.278 -0.4960 -0.9943  1.3212
 8832TIP3    H247912   1.755   1.715   1.362 -1.4771 -0.2917 -0.2363
 8833TIP3   OH247913   0.215   0.233   1.293  0.1724  0.2176 -0.4556
 8833TIP3    H147914   0.139   0.275   1.335 -0.0922  0.4158 -1.1324
 8833TIP3    H247915   0.282   0.302   1.291 -0.1130  0.4793 -1.1607
 8834TIP3   OH247916   0.480   4.091  10.477 -0.1078 -0.2766 -0.2044
 8834TIP3    H147917   0.445   4.023  10.533 -0.1373  0.9090  1.2328
 8834TIP3    H247918   0.575   4.080  10.481 -0.1381 -0.6927 -0.5737
 8835TIP3   OH247919   0.093   4.321  14.075  0.4163  0.1365 -0.1970
 8835TIP3    H147920   0.075   4.396  14.018  0.7367 -0.0068 -0.4927
 8835TIP3    H247921   0.181   4.337  14.109  0.8506 -0.5479 -0.9754
 8836TIP3   OH247922   3.570   5.101  12.811 -0.4048 -0.1683  0.6375
 8836TIP3    H147923   3.536   5.189  12.795  0.3040 -0.1441 -0.8329
 8836TIP3    H247924   3.499   5.043  12.786 -0.6180 -0.0449  0.9418
 8837TIP3   OH247925   5.812   3.511   4.321  0.2975  0.1799  0.0676
 8837TIP3    H147926   5.779   3.424   4.302  1.0409 -0.1917  0.4466
 8837TIP3    H247927   5.906   3.499   4.334  0.4704  1.1022 -0.2816
 8838TIP3   OH247928   0.864   3.380   5.575  0.2902 -0.6462  0.4599
 8838TIP3    H147929   0.928   3.313   5.596  0.8082  0.8208  3.9432
 8838TIP3    H247930   0.801   3.377   5.647 -1.8348  0.0527 -1.2944
 8839TIP3   OH247931   5.414   6.375  15.109  0.0684  0.2605 -0.2399
 8839TIP3    H147932   5.471   6.404  15.038  0.9873  0.1031  0.4174
 8839TIP3    H247933   5.374   6.456  15.143  0.6477  0.4827 -0.0789
 8840TIP3   OH247934   0.871   0.416  14.668  0.1597 -0.1065  0.0207
 8840TIP3    H147935   0.950   0.366  14.645  0.6076  0.4775  0.2473
 8840TIP3    H247936   0.799   0.355  14.655  0.5423 -0.2981 -1.3349
 8841TIP3   OH247937   2.888   6.629   3.142  0.3517  0.5123 -0.3250
 8841TIP3    H147938   2.862   6.583   3.222  1.4416  1.2794  0.4773
 8841TIP3    H247939   2.837   6.586   3.073  0.1838 -0.8693  0.6204
 8842TIP3   OH247940   4.298   3.982   5.158  0.2156 -0.1268  0.1508
 8842TIP3    H147941   4.368   3.936   5.205 -0.3354 -0.1200  0.9822
 8842TIP3    H247942   4.313   4.075   5.176 -0.1901 -0.1441  0.5906
 8843TIP3   OH247943   0.186   6.389   2.440 -0.0301 -0.7283 -0.1971
 8843TIP3    H147944   0.175   6.484   2.443  0.0173 -0.6519 -1.8057
 8843TIP3    H247945   0.242   6.373   2.364 -0.3158 -2.0676 -0.1509
 8844TIP3   OH247946   4.615   4.859   4.071 -0.1785  0.1072 -0.2564
 8844TIP3    H147947   4.674   4.864   4.147  1.3410  2.0041 -1.5103
 8844TIP3    H247948   4.605   4.765   4.055  2.7640 -0.2860 -0.1662
 8845TIP3   OH247949   6.262   5.441  16.820 -0.3632  0.4853  0.2804
 8845TIP3    H147950   6.241   5.515  16.878 -0.2027  0.9081 -0.1966
 8845TIP3    H247951   6.228   5.364  16.866 -1.3939  0.9615  0.3372
 8846TIP3   OH247952   1.442   2.452   4.888  0.1384 -0.0438 -0.9762
 8846TIP3    H147953   1.362   2.421   4.845 -1.2131  0.7157  0.9127
 8846TIP3    H247954   1.410   2.504   4.961  2.3955  1.5231 -1.0862
 8847TIP3   OH247955   6.387   1.600   4.902 -0.0468  0.0348 -0.1275
 8847TIP3    H147956   6.451   1.536   4.933  0.0882 -0.3492 -1.1691
 8847TIP3    H247957   6.440   1.670   4.864 -0.2353 -0.3047 -1.0330
 8848TIP3   OH247958   5.549   2.086  11.946 -0.0079 -0.6764 -0.0936
 8848TIP3    H147959   5.476   2.098  11.884 -2.2212 -3.3655  1.8816
 8848TIP3    H247960   5.558   2.171  11.989 -1.6207 -0.1529 -0.7449
 8849TIP3   OH247961   1.239   4.960  12.300  0.0154 -0.4923  0.0762
 8849TIP3    H147962   1.316   4.979  12.354  0.1073  0.1776 -0.2880
 8849TIP3    H247963   1.265   4.983  12.211 -0.4367 -0.7506 -0.1279
 8850TIP3   OH247964   3.991   2.241   5.037  0.0256 -0.0462  0.2688
 8850TIP3    H147965   4.074   2.214   4.998 -0.9768  1.8098 -3.4167
 8850TIP3    H247966   3.943   2.159   5.051  1.0377 -0.8918 -1.1084
 8851TIP3   OH247967   1.133   4.761  16.205 -0.4618  0.1415  0.4158
 8851TIP3    H147968   1.187   4.741  16.128 -2.9812 -0.7359 -1.1903
 8851TIP3    H247969   1.142   4.856  16.215  0.4729  0.1689 -0.5085
 8852TIP3   OH247970   1.922   2.848   1.730  0.5346 -0.3184  0.5475
 8852TIP3    H147971   1.914   2.942   1.748  0.8978 -0.1533 -0.1214
 8852TIP3    H247972   1.899   2.805   1.813 -2.3507  0.2535  0.1001
 8853TIP3   OH247973   6.617   5.676  11.995  0.2902  0.3311  0.2309
 8853TIP3    H147974   6.707   5.706  11.981  0.0197  0.8957 -0.3112
 8853TIP3    H247975   6.601   5.689  12.088  1.1276 -0.7570  0.5340
 8854TIP3   OH247976   6.506   5.648   6.289 -0.3846 -0.3960 -0.2230
 8854TIP3    H147977   6.450   5.725   6.281 -0.7587 -0.6062  0.4235
 8854TIP3    H247978   6.453   5.584   6.335  0.4417 -0.5376  0.5423
 8855TIP3   OH247979   1.341   1.144   0.106  0.4336  0.0574  0.7938
 8855TIP3    H147980   1.260   1.101   0.082 -0.2910 -0.0519  3.3060
 8855TIP3    H247981   1.329   1.235   0.079 -0.5884  0.0693  1.2690
 8856TIP3   OH247982   5.356   1.476  14.158 -0.6511  0.3034  0.7928
 8856TIP3    H147983   5.301   1.397  14.162 -0.1196 -0.1377 -0.4643
 8856TIP3    H247984   5.315   1.536  14.220 -3.0846  0.3196 -0.7575
 8857TIP3   OH247985   2.794   2.660   1.633  0.7794  0.2944  0.4806
 8857TIP3    H147986   2.723   2.654   1.696  0.7412  1.4083  0.5612
 8857TIP3    H247987   2.771   2.735   1.578  0.1712 -1.4339 -1.6753
 8858TIP3   OH247988   1.635   4.067   5.972  0.4500  0.3950 -0.6740
 8858TIP3    H147989   1.548   4.045   6.006  0.8208 -2.3700 -1.3782
 8858TIP3    H247990   1.683   4.098   6.049 -1.4868  3.2129 -0.5051
 8859TIP3   OH247991   6.443   1.044  16.232  0.1721  0.9807 -0.6386
 8859TIP3    H147992   6.382   0.970  16.232  1.8951 -0.5608 -3.8309
 8859TIP3    H247993   6.388   1.121  16.244 -1.9833 -0.6416  0.1437
 8860TIP3   OH247994   2.713   0.067   2.901 -0.2291 -0.1937  0.4034
 8860TIP3    H147995   2.774   0.132   2.935 -1.9397 -0.4783  4.2122
 8860TIP3    H247996   2.765  -0.013   2.895  0.3322  0.0800  1.4963
 8861TIP3   OH247997   5.101   3.074   0.541  0.5350  0.3033 -0.1127
 8861TIP3    H147998   5.080   3.102   0.452  1.0590  1.3456  0.0832
 8861TIP3    H247999   5.096   2.979   0.538 -0.3388  0.3679 -1.0363
 8862TIP3   OH248000   6.345   2.255  12.308  0.6229  0.4933 -0.1744
 8862TIP3    H148001   6.284   2.275  12.236 -0.0652  1.4084  0.6439
 8862TIP3    H248002   6.430   2.285  12.277  0.4747  0.1640 -0.9155
 8863TIP3   OH248003   0.916   1.821  16.777 -0.1133 -0.2762  0.1584
 8863TIP3    H148004   0.852   1.831  16.706 -2.0143  0.3559  1.9061
 8863TIP3    H248005   0.977   1.894  16.765  0.3158 -0.8976 -1.5503
 8864TIP3   OH248006   5.935   3.022   1.036  0.1962 -0.3011 -0.6371
 8864TIP3    H148007   5.994   2.948   1.049 -1.0568 -1.4326 -1.2141
 8864TIP3    H248008   5.855   2.983   1.000 -1.4034  0.9969  1.3342
 8865TIP3   OH248009   5.842   6.405   6.551  0.1081 -0.0216  0.2759
 8865TIP3    H148010   5.869   6.426   6.640 -1.3372 -1.3274  1.0492
 8865TIP3    H248011   5.765   6.349   6.562 -2.0301  2.3732 -1.8199
 8866TIP3   OH248012   3.934   2.793  10.743 -0.4790  0.0717 -0.4830
 8866TIP3    H148013   3.973   2.809  10.657  0.2600 -1.1769 -0.3947
 8866TIP3    H248014   3.905   2.702  10.739 -2.3035  0.6153 -0.1110
 8867TIP3   OH248015   0.316   0.289   5.682  0.3606 -0.0794  0.0386
 8867TIP3    H148016   0.287   0.307   5.771 -1.7899 -0.7369 -0.5060
 8867TIP3    H248017   0.325   0.375   5.641  0.1700  0.1739  0.5246
 8868TIP3   OH248018   3.884   5.442  12.427 -0.7237 -0.1454 -0.4741
 8868TIP3    H148019   3.860   5.527  12.390 -2.2276  0.1710  1.1695
 8868TIP3    H248020   3.909   5.389  12.351 -0.1798  1.6190 -1.5532
 8869TIP3   OH248021   3.926   2.181   3.445  1.1207  0.0571 -0.2663
 8869TIP3    H148022   3.995   2.132   3.401 -0.4179 -1.9028 -0.5729
 8869TIP3    H248023   3.902   2.127   3.520  0.2231  0.9427  0.0998
 8870TIP3   OH248024   2.706   4.866   6.617 -0.0183 -0.1105 -0.2312
 8870TIP3    H148025   2.721   4.865   6.712 -1.6377 -0.0664  0.0531
 8870TIP3    H248026   2.714   4.958   6.592 -1.2241  0.1096  0.1616
 8871TIP3   OH248027   5.699   1.360  13.327 -0.6683 -0.0235  0.3091
 8871TIP3    H148028   5.632   1.417  13.290  0.4674  2.9307  2.5875
 8871TIP3    H248029   5.688   1.369  13.422  2.1364 -0.4369  0.7078
 8872TIP3   OH248030   1.133   4.414  17.001  0.0754  0.0928 -0.2587
 8872TIP3    H148031   1.056   4.433  17.055 -0.3746  0.8411 -1.1371
 8872TIP3    H248032   1.105   4.340  16.946 -0.4032  1.0504 -1.3275
 8873TIP3   OH248033   0.909   5.812   1.542  0.0098 -0.1112 -0.2108
 8873TIP3    H148034   0.837   5.829   1.481  0.5126  2.0598 -0.2625
 8873TIP3    H248035   0.885   5.861   1.621  1.1897  0.2707 -0.0729
 8874TIP3   OH248036   2.855   3.377   2.184  0.4927 -0.1203  0.0239
 8874TIP3    H148037   2.846   3.405   2.275 -0.0850 -1.8860  0.5307
 8874TIP3    H248038   2.886   3.455   2.137 -3.4344  2.1193  0.9243
 8875TIP3   OH248039   2.840   1.694  17.199  0.1276  0.1795 -0.0519
 8875TIP3    H148040   2.772   1.697  17.132 -0.0180  0.4977  0.1088
 8875TIP3    H248041   2.902   1.629  17.166 -0.9535 -1.1416  0.4712
 8876TIP3   OH248042   2.150   1.266  13.678  0.2592  0.5290  0.4906
 8876TIP3    H148043   2.079   1.329  13.672 -1.1119 -1.0783 -0.7896
 8876TIP3    H248044   2.150   1.237  13.769 -0.6226  0.6543  0.5307
 8877TIP3   OH248045   2.512   3.446  15.247  0.5077  0.2229 -0.1313
 8877TIP3    H148046   2.490   3.514  15.182 -0.7075 -0.4783 -0.4623
 8877TIP3    H248047   2.428   3.410  15.274  1.0890 -0.4308  0.8424
 8878TIP3   OH248048   5.000   0.221  14.619 -0.1930 -0.5734  0.7346
 8878TIP3    H148049   4.930   0.204  14.683 -1.5524  0.1706 -0.5283
 8878TIP3    H248050   5.027   0.134  14.590 -2.5556 -0.8416 -0.8302
 8879TIP3   OH248051   0.856   3.959  16.411 -0.2503  0.5485  0.2882
 8879TIP3    H148052   0.940   3.957  16.366  0.1249  0.4469  0.9921
 8879TIP3    H248053   0.797   4.004  16.350 -0.4298 -1.9352 -1.4171
 8880TIP3   OH248054   3.330   3.675   4.655 -0.0073 -0.2357 -0.2203
 8880TIP3    H148055   3.263   3.704   4.593 -0.0243  0.4820  0.1243
 8880TIP3    H248056   3.334   3.746   4.720  0.3754 -0.7418  0.3073
 8881TIP3   OH248057   4.673   6.047  13.364  0.3411 -0.0324  0.1734
 8881TIP3    H148058   4.750   6.093  13.395  0.5392 -0.6203  0.5502
 8881TIP3    H248059   4.682   5.958  13.397 -0.2938 -0.2148 -0.1220
 8882TIP3   OH248060   0.496   2.391   2.060  0.3463 -0.3746 -0.1107
 8882TIP3    H148061   0.537   2.338   2.128  2.0475  1.0419 -0.0084
 8882TIP3    H248062   0.482   2.476   2.100  0.0475  0.0500 -1.0939
 8883TIP3   OH248063   3.764   3.986   1.139  0.5975  0.2851 -0.4453
 8883TIP3    H148064   3.716   3.913   1.101  0.7418 -0.2600  0.3984
 8883TIP3    H248065   3.856   3.968   1.120  0.8480 -1.0470  1.8997
 8884TIP3   OH248066   3.892   4.473  15.326 -0.6047  0.3753  0.1905
 8884TIP3    H148067   3.920   4.523  15.402  0.9948 -0.6106  0.2789
 8884TIP3    H248068   3.932   4.387  15.337 -0.2886  0.2308 -1.7960
 8885TIP3   OH248069   3.814   5.087  15.657  0.0756 -0.1968 -0.7857
 8885TIP3    H148070   3.855   5.055  15.576 -0.5553  0.1649 -1.2541
 8885TIP3    H248071   3.757   5.159  15.628 -2.0799 -1.6810 -0.3627
 8886TIP3   OH248072   1.245   1.722  12.887 -0.5226 -0.2817 -0.5372
 8886TIP3    H148073   1.325   1.772  12.899 -0.9750  0.4074 -0.3843
 8886TIP3    H248074   1.179   1.787  12.864 -0.9577 -0.8901 -1.0312
 8887TIP3   OH248075   3.211   4.985  10.795  0.3590 -0.3455  0.4624
 8887TIP3    H148076   3.155   5.049  10.751 -0.0132 -0.1333  1.2412
 8887TIP3    H248077   3.185   4.900  10.759 -1.1832 -0.3551  1.5935
 8888TIP3   OH248078   5.621   3.957   4.798 -0.5231  0.0296 -0.4641
 8888TIP3    H148079   5.528   3.938   4.794 -0.4073 -0.7269  0.1241
 8888TIP3    H248080   5.644   3.945   4.891  0.0283  0.8111 -0.4976
 8889TIP3   OH248081   4.087   3.135  15.033  0.2638  0.1862 -0.1594
 8889TIP3    H148082   4.051   3.205  14.979  1.0943  0.6636 -0.1051
 8889TIP3    H248083   4.175   3.120  14.996  1.3543  1.4004  1.8569
 8890TIP3   OH248084   4.593   6.531  14.556 -0.1461  0.0233 -0.4392
 8890TIP3    H148085   4.606   6.483  14.638  0.9111 -0.4844 -0.8988
 8890TIP3    H248086   4.505   6.568  14.564 -0.0794 -0.0693  0.9050
 8891TIP3   OH248087   6.546   4.984  14.443 -0.3215 -0.1513  0.3177
 8891TIP3    H148088   6.460   5.010  14.411 -0.7770 -2.6771 -0.6601
 8891TIP3    H248089   6.528   4.932  14.522  0.1770 -1.8066 -0.6281
 8892TIP3   OH248090   2.034   2.412  13.606 -0.3627 -1.0774 -0.9407
 8892TIP3    H148091   2.004   2.370  13.687  0.5314  1.0230  0.5533
 8892TIP3    H248092   1.968   2.478  13.588 -0.0772 -0.9158 -1.3941
 8893TIP3   OH248093   5.218   4.718  14.652  0.7781 -0.1285 -0.3425
 8893TIP3    H148094   5.185   4.629  14.669  0.1508  0.2481  0.4574
 8893TIP3    H248095   5.185   4.740  14.565 -2.6033  0.9122  1.1394
 8894TIP3   OH248096   5.066   4.649   1.626  0.3662 -0.4976 -0.5770
 8894TIP3    H148097   4.987   4.691   1.661  0.1242 -0.2433 -1.4241
 8894TIP3    H248098   5.087   4.699   1.547  1.0043 -0.9638 -0.7050
 8895TIP3   OH248099   6.031   2.843   1.431  0.3393 -0.0257  0.4825
 8895TIP3    H148100   6.005   2.935   1.441  0.6199  0.3231 -1.7999
 8895TIP3    H248101   5.961   2.804   1.378  0.3031 -1.1008  1.3062
 8896TIP3   OH248102   3.798   2.093  15.926 -0.1277  0.2825  0.5858
 8896TIP3    H148103   3.751   2.073  16.007 -0.1500 -0.2660  0.4410
 8896TIP3    H248104   3.757   2.036  15.861  0.7284 -0.1923  0.4545
 8897TIP3   OH248105   1.963   4.762   3.922  0.8543 -0.6840  0.1678
 8897TIP3    H148106   2.054   4.775   3.896  1.0950 -1.1569  0.7522
 8897TIP3    H248107   1.930   4.694   3.864  1.1278 -1.1096  0.5088
 8898TIP3   OH248108   6.543   3.968  10.629 -0.3095  0.0782  0.1400
 8898TIP3    H148109   6.589   3.885  10.620  0.4630  0.5165  0.0013
 8898TIP3    H248110   6.531   3.979  10.723 -2.0750 -1.0789  0.0827
 8899TIP3   OH248111   1.049   0.712   4.112 -0.0952  0.7210  0.8820
 8899TIP3    H148112   0.995   0.637   4.137  0.0479  1.0516  2.2429
 8899TIP3    H248113   1.009   0.746   4.032  1.5115 -2.5469 -1.4203
 8900TIP3   OH248114   6.259   3.251  11.916 -0.0635  0.0526  0.0841
 8900TIP3    H148115   6.205   3.192  11.864  0.8624 -0.7813  0.0702
 8900TIP3    H248116   6.276   3.326  11.858 -1.0893  0.2612  0.0482
 8901TIP3   OH248117   1.914   3.354  16.359  0.0308  0.1823  0.0498
 8901TIP3    H148118   1.978   3.380  16.292 -0.6837  0.5473 -0.4948
 8901TIP3    H248119   1.952   3.385  16.441  0.7430  0.0556 -0.2260
 8902TIP3   OH248120   2.935   2.702   3.864 -0.1466  0.1533 -0.0154
 8902TIP3    H148121   2.997   2.697   3.936 -1.3896 -0.3828  1.0345
 8902TIP3    H248122   2.982   2.749   3.795  0.4837  2.1700  1.7333
 8903TIP3   OH248123   6.601   2.132  12.786  0.6572 -0.3944  0.0534
 8903TIP3    H148124   6.549   2.137  12.705  0.4020 -1.2912  0.1525
 8903TIP3    H248125   6.555   2.191  12.847 -1.4857 -2.7468  0.7997
 8904TIP3   OH248126   4.211   1.405  14.711 -0.1372 -0.4663 -0.1758
 8904TIP3    H148127   4.164   1.343  14.655  0.4458 -0.6168 -0.5080
 8904TIP3    H248128   4.303   1.394  14.686 -0.0178  0.4418 -0.1447
 8905TIP3   OH248129   1.647   3.128   3.046 -0.4746 -0.0626  0.5378
 8905TIP3    H148130   1.674   3.208   3.001 -0.3803 -0.1221  0.4869
 8905TIP3    H248131   1.596   3.080   2.981 -1.2315  0.3336  0.8299
 8906TIP3   OH248132   3.600   5.996   5.188  0.1144 -0.4906 -0.0174
 8906TIP3    H148133   3.654   6.054   5.134  0.3478 -0.8094 -0.1317
 8906TIP3    H248134   3.533   6.053   5.226 -0.0044 -0.2425 -0.5815
 8907TIP3   OH248135   1.091   5.256  17.024  0.0273 -0.0936 -0.3690
 8907TIP3    H148136   1.104   5.166  17.055 -1.5820 -0.0182  0.5962
 8907TIP3    H248137   1.178   5.297  17.031  0.8628 -1.6733 -1.2033
 8908TIP3   OH248138   5.914   3.149   0.268  0.4757  0.3154  0.3736
 8908TIP3    H148139   5.865   3.198   0.334 -0.0246  0.6181 -0.2155
 8908TIP3    H248140   5.936   3.066   0.310 -1.6120 -0.3272  0.2326
 8909TIP3   OH248141   6.073   4.129   0.862  0.3143  0.6058 -0.5646
 8909TIP3    H148142   6.045   4.120   0.772 -0.9902  0.7845 -0.1837
 8909TIP3    H248143   6.104   4.219   0.869 -1.1558  1.1126 -0.4161
 8910TIP3   OH248144   4.224   5.729   1.079 -0.0479 -0.2894  0.5243
 8910TIP3    H148145   4.250   5.637   1.073 -0.3722 -0.5438  2.4667
 8910TIP3    H248146   4.197   5.753   0.990  3.1042 -1.1111 -0.7117
 8911TIP3   OH248147   3.779   2.751  14.701 -0.3805  0.1643  0.1852
 8911TIP3    H148148   3.796   2.739  14.608  0.4758  0.6736  0.2686
 8911TIP3    H248149   3.730   2.673  14.727 -0.6438  0.0350 -0.6921
 8912TIP3   OH248150   6.358   2.147   6.120 -0.1464  0.1388 -0.3179
 8912TIP3    H148151   6.357   2.064   6.168 -2.1088 -1.0035 -2.2513
 8912TIP3    H248152   6.450   2.172   6.118  0.3882 -1.5836  0.9586
 8913TIP3   OH248153   0.534   3.490  16.982 -0.2197 -0.1129  0.0772
 8913TIP3    H148154   0.539   3.524  16.893  2.1116  1.7887  0.8743
 8913TIP3    H248155   0.592   3.415  16.983  1.7073  1.3278  0.5538
 8914TIP3   OH248156   0.007   4.425   4.578  0.4772  0.9720 -0.1426
 8914TIP3    H148157  -0.044   4.490   4.627  0.7618  1.2624 -0.2279
 8914TIP3    H248158   0.027   4.357   4.642 -0.8558  0.3775 -0.3514
 8915TIP3   OH248159   4.269   1.392  16.565  0.2969  0.0134  0.0294
 8915TIP3    H148160   4.266   1.473  16.514  2.2283 -0.6988 -1.2317
 8915TIP3    H248161   4.348   1.400  16.618  0.6173 -1.1689 -0.2717
 8916TIP3   OH248162   3.284   5.601   5.710 -0.7448 -0.1563  0.0840
 8916TIP3    H148163   3.360   5.652   5.740 -1.2050  0.1932  0.6713
 8916TIP3    H248164   3.316   5.511   5.705  0.0646  0.1769 -0.9097
 8917TIP3   OH248165   4.150   1.871  11.893  0.3562  0.8173  0.3307
 8917TIP3    H148166   4.219   1.851  11.956 -0.2774  0.5403  0.9472
 8917TIP3    H248167   4.196   1.908  11.818  1.1524  0.8493  0.8273
 8918TIP3   OH248168   2.696   5.976  12.369  0.2526 -0.0689 -0.4470
 8918TIP3    H148169   2.751   5.977  12.291 -0.5808  1.4766 -1.0369
 8918TIP3    H248170   2.606   5.973  12.335 -0.0962  0.0144  0.4505
 8919TIP3   OH248171   5.141   4.604   5.958 -0.2394 -0.7188  0.3644
 8919TIP3    H148172   5.059   4.647   5.937  1.4277  3.3874  1.7867
 8919TIP3    H248173   5.154   4.621   6.051  0.5807 -4.3159  0.9883
 8920TIP3   OH248174   0.764   4.982   6.131  1.0823  0.1218 -0.5560
 8920TIP3    H148175   0.738   5.066   6.170 -0.5596 -0.5701 -0.0861
 8920TIP3    H248176   0.689   4.957   6.077  2.2265 -0.2674 -1.9967
 8921TIP3   OH248177   3.655   6.686  12.983  0.1740 -0.1176 -0.0644
 8921TIP3    H148178   3.724   6.682  12.916  1.7537  1.2254  1.4386
 8921TIP3    H248179   3.692   6.640  13.058 -0.9575 -0.1780  0.4698
 8922TIP3   OH248180   2.313   6.414  10.638  0.4205  0.1883  0.3180
 8922TIP3    H148181   2.359   6.474  10.697  0.3287 -0.1493  0.7251
 8922TIP3    H248182   2.223   6.413  10.669  0.2806  0.3389 -0.0842
 8923TIP3   OH248183   2.984   2.279  12.223  0.2060 -0.3880 -0.1301
 8923TIP3    H148184   3.041   2.315  12.155  1.7331 -0.2516  1.1894
 8923TIP3    H248185   3.042   2.227  12.278 -1.0426 -0.6513  0.9766
 8924TIP3   OH248186   2.219   0.200   3.507 -0.2847 -0.3148  0.6465
 8924TIP3    H148187   2.252   0.204   3.596 -1.4615 -0.1402  1.0837
 8924TIP3    H248188   2.256   0.120   3.470 -0.1035 -0.5851  1.4142
 8925TIP3   OH248189   3.934   0.634  15.966 -0.0387  0.1875 -0.5353
 8925TIP3    H148190   3.942   0.686  15.886  1.3103  1.5445  0.4377
 8925TIP3    H248191   4.024   0.605  15.984 -0.1138  0.9099  1.1207
 8926TIP3   OH248192   3.600   4.325   2.185  0.3075 -0.4432  0.5530
 8926TIP3    H148193   3.581   4.419   2.190 -0.1893 -0.6081  2.1388
 8926TIP3    H248194   3.568   4.299   2.099 -1.1238  0.5215  0.7611
 8927TIP3   OH248195   5.554   0.157  13.289  0.3093  0.0570 -0.2806
 8927TIP3    H148196   5.480   0.109  13.252 -0.0439  0.2868  0.1231
 8927TIP3    H248197   5.572   0.113  13.372 -0.1521  0.7511  0.1939
 8928TIP3   OH248198   0.515   2.561   3.612 -0.0241 -0.0506  0.5822
 8928TIP3    H148199   0.431   2.600   3.587  1.2046  0.7775 -2.4429
 8928TIP3    H248200   0.552   2.529   3.530  2.6406 -0.3603  1.8609
 8929TIP3   OH248201   6.471   1.284   4.371  0.0244 -0.4785 -0.2603
 8929TIP3    H148202   6.537   1.352   4.379 -0.8180  0.0588  3.4504
 8929TIP3    H248203   6.512   1.206   4.410  0.0303 -1.3522 -1.9987
 8930TIP3   OH248204   3.585   4.308   3.562  0.7914  0.8196  0.4578
 8930TIP3    H148205   3.648   4.347   3.623  0.9216 -0.6829  1.3143
 8930TIP3    H248206   3.501   4.314   3.608  0.4537  1.9407 -0.2786
 8931TIP3   OH248207   6.053   4.474  12.429  0.5269  0.3788  0.1171
 8931TIP3    H148208   6.071   4.439  12.342  1.2368 -1.9186  1.1505
 8931TIP3    H248209   6.055   4.397  12.487 -2.1351  1.5406  1.8453
 8932TIP3   OH248210   6.352   0.472  13.465  0.0795 -0.6452 -0.2784
 8932TIP3    H148211   6.365   0.475  13.560 -2.6321  0.2226  0.0961
 8932TIP3    H248212   6.338   0.379  13.445  2.7182 -1.1029 -0.1610
 8933TIP3   OH248213   3.224   2.875  13.371 -0.9679 -0.4677 -0.3429
 8933TIP3    H148214   3.156   2.850  13.309 -0.8694  1.2796 -1.1887
 8933TIP3    H248215   3.299   2.900  13.316  0.0083 -1.3594  0.5515
 8934TIP3   OH248216   4.381   0.438  13.230 -0.3272 -0.1985  0.5190
 8934TIP3    H148217   4.354   0.354  13.268 -1.0322  0.7481  2.1754
 8934TIP3    H248218   4.325   0.448  13.153 -1.4153 -0.4925  1.2533
 8935TIP3   OH248219   2.947   2.432   1.646 -0.3615 -0.0515  0.1663
 8935TIP3    H148220   2.916   2.343   1.659 -1.0771  0.0151 -1.0369
 8935TIP3    H248221   2.868   2.486   1.651 -0.0689  0.4008 -0.0637
 8936TIP3   OH248222   2.034   0.364   5.287 -0.4340 -0.4038 -0.4649
 8936TIP3    H148223   2.111   0.356   5.343 -0.3044 -0.3457 -0.6342
 8936TIP3    H248224   1.973   0.298   5.320 -0.2143 -0.6170 -0.4898
 8937TIP3   OH248225   3.665   0.996   5.894  0.7280 -0.0743  0.2833
 8937TIP3    H148226   3.674   1.064   5.960 -1.6378  0.1518  0.4175
 8937TIP3    H248227   3.742   0.940   5.906  1.1153  0.8315  2.1878
 8938TIP3   OH248228   5.854   0.065   0.958  0.4607  0.0246  0.6242
 8938TIP3    H148229   5.921   0.067   1.027  0.7547  0.5382  0.3232
 8938TIP3    H248230   5.778   0.025   1.000  1.1033 -0.9933  0.8373
 8939TIP3   OH248231   6.577   6.206   5.735 -0.1908  0.0539  0.6249
 8939TIP3    H148232   6.509   6.199   5.669 -0.0141 -1.1266  0.5551
 8939TIP3    H248233   6.561   6.132   5.794  0.9046 -0.1078  0.7238
 8940TIP3   OH248234   1.467   1.788  15.557  0.0791  0.0371  0.8565
 8940TIP3    H148235   1.558   1.802  15.583  0.5495  0.4948 -0.9717
 8940TIP3    H248236   1.445   1.702  15.594  2.1105 -1.3088 -0.8883
 8941TIP3   OH248237   5.914   5.651   2.265  0.1061  0.0551 -0.8105
 8941TIP3    H148238   5.861   5.576   2.237 -1.0160  1.0579 -1.4341
 8941TIP3    H248239   5.995   5.612   2.296 -0.9795 -1.5319  0.1463
 8942TIP3   OH248240   5.384   0.804   2.203 -0.4603 -0.7596  0.1691
 8942TIP3    H148241   5.331   0.882   2.188 -0.1205 -0.3959  0.8305
 8942TIP3    H248242   5.325   0.742   2.244 -0.0296  0.1500  2.2279
 8943TIP3   OH248243   5.070   0.013  11.996 -0.2233  0.4098 -0.2983
 8943TIP3    H148244   5.124  -0.061  12.024 -0.9221  0.4856  1.3278
 8943TIP3    H248245   5.115   0.048  11.919  0.1588 -1.6360 -1.0443
 8944TIP3   OH248246   4.809   1.800   5.025 -0.4706  0.2093 -0.4644
 8944TIP3    H148247   4.727   1.753   5.038 -0.5385  0.4844  0.1350
 8944TIP3    H248248   4.785   1.892   5.035  0.0856  0.2386  0.7106
 8945TIP3   OH248249   5.523   3.414   5.456 -0.6985  0.1009 -0.4395
 8945TIP3    H148250   5.568   3.497   5.469  2.0214 -1.3323 -0.1591
 8945TIP3    H248251   5.483   3.395   5.541  0.2178  0.2827  0.0450
 8946TIP3   OH248252   2.424   1.788  16.460  0.2447 -0.5089  0.0783
 8946TIP3    H148253   2.462   1.789  16.372  1.0032  0.3287  0.4075
 8946TIP3    H248254   2.421   1.880  16.486  2.1274 -0.9100  1.8130
 8947TIP3   OH248255   6.684   1.804  11.807 -0.5978 -0.2131  0.1174
 8947TIP3    H148256   6.694   1.846  11.892  2.4186  0.3390 -0.4615
 8947TIP3    H248257   6.728   1.720  11.816 -2.2702 -1.1650 -0.2504
 8948TIP3   OH248258   2.289   5.236  10.806  0.4988  0.4438  0.5215
 8948TIP3    H148259   2.323   5.230  10.896 -0.5382 -0.0694  0.8911
 8948TIP3    H248260   2.362   5.271  10.755  0.8737  1.4277  1.7013
 8949TIP3   OH248261   2.740   3.031   5.380  0.0706 -0.3357 -0.3112
 8949TIP3    H148262   2.752   3.055   5.289 -0.0969 -0.4990 -0.3783
 8949TIP3    H248263   2.791   2.951   5.391  1.3549  0.5379  0.1413
 8950TIP3   OH248264   4.062   5.443   0.353 -0.2319  0.1753  0.8707
 8950TIP3    H148265   4.052   5.366   0.410  0.1175 -0.6653 -0.1991
 8950TIP3    H248266   4.138   5.423   0.299  0.4046  1.6632  1.1925
 8951TIP3   OH248267   0.215   1.711  10.750 -0.2940  0.5141 -0.2610
 8951TIP3    H148268   0.297   1.761  10.750 -0.5347  0.9339 -1.4975
 8951TIP3    H248269   0.182   1.720  10.660 -1.4097 -0.1230  0.0803
 8952TIP3   OH248270   2.073   2.532   0.498  0.1338 -0.0293 -0.2749
 8952TIP3    H148271   2.018   2.462   0.465 -0.2427 -0.3161  0.9468
 8952TIP3    H248272   2.161   2.493   0.503  0.3226  0.2024 -1.4899
 8953TIP3   OH248273   0.098   4.769  12.675  0.7562  0.4828  0.4868
 8953TIP3    H148274   0.011   4.769  12.714  0.4226 -2.0250 -0.1740
 8953TIP3    H248275   0.149   4.711  12.732  1.2542 -0.2258 -0.6656
 8954TIP3   OH248276   2.956   1.991  16.954 -0.4287  0.2583 -0.4895
 8954TIP3    H148277   2.969   1.911  17.006  1.0413  0.0555 -1.1415
 8954TIP3    H248278   2.878   2.031  16.991 -1.9897 -2.1943 -1.0420
 8955TIP3   OH248279   2.477   6.487  16.246  0.3426  0.6242 -0.2617
 8955TIP3    H148280   2.404   6.479  16.184 -0.4725 -2.0232  0.9521
 8955TIP3    H248281   2.552   6.450  16.199  0.7502  2.5639 -1.1960
 8956TIP3   OH248282   5.345   4.149   5.680  0.3881  0.1693  0.3026
 8956TIP3    H148283   5.349   4.202   5.601 -2.0964 -1.0352 -0.6678
 8956TIP3    H248284   5.359   4.059   5.649 -2.6148 -0.5583  0.8997
 8957TIP3   OH248285   1.075   4.146  13.098  0.0314 -0.1301  0.8535
 8957TIP3    H148286   1.103   4.085  13.030  0.1432  0.7297  0.1213
 8957TIP3    H248287   0.982   4.127  13.110 -0.4801  1.1026 -1.0160
 8958TIP3   OH248288   4.470   5.064   1.233  0.2262  0.1415  0.1400
 8958TIP3    H148289   4.473   5.155   1.262  1.2276 -1.0442  4.0138
 8958TIP3    H248290   4.562   5.042   1.213  0.4950 -0.9220  2.3827
 8959TIP3   OH248291   6.253   3.242   0.721  0.2363  0.3386 -0.2254
 8959TIP3    H148292   6.257   3.246   0.816 -0.6094  0.2070 -0.1878
 8959TIP3    H248293   6.237   3.149   0.702 -3.7937  0.9788 -0.3544
 8960TIP3   OH248294   2.199   4.163   2.013 -0.2715 -0.7047 -0.1706
 8960TIP3    H148295   2.139   4.229   1.979  0.2370  0.3481  0.9223
 8960TIP3    H248296   2.156   4.130   2.092 -0.0905 -0.9953 -0.1940
 8961TIP3   OH248297   2.743   4.913  15.018 -0.4871  0.4319  1.0313
 8961TIP3    H148298   2.657   4.955  15.025 -1.1029 -0.7754  0.7534
 8961TIP3    H248299   2.756   4.901  14.924 -0.1494  0.3165  1.0910
 8962TIP3   OH248300   1.953   3.258   5.409 -0.1890  0.1907  0.5035
 8962TIP3    H148301   2.028   3.314   5.430 -0.0909 -0.0483  0.7993
 8962TIP3    H248302   1.960   3.242   5.315 -0.0588  0.4419  0.4701
 8963TIP3   OH248303   4.234   5.696  14.853  0.6211 -0.0288  0.4814
 8963TIP3    H148304   4.290   5.662  14.783 -0.2196  3.1563 -1.8769
 8963TIP3    H248305   4.146   5.664  14.830  0.2387  1.5657 -0.3220
 8964TIP3   OH248306   3.244   4.498  11.878 -0.1178 -0.5325 -0.4503
 8964TIP3    H148307   3.216   4.406  11.880 -2.2339  0.0896 -1.0346
 8964TIP3    H248308   3.165   4.548  11.898  0.5543  1.2527 -2.1023
 8965TIP3   OH248309   1.364   1.195  16.854 -0.3818  0.2689 -0.6133
 8965TIP3    H148310   1.445   1.194  16.905 -1.2753 -1.2532  0.7876
 8965TIP3    H248311   1.294   1.205  16.919 -1.3326  1.9065 -1.8320
 8966TIP3   OH248312   5.659   0.904   4.466  0.1688 -0.3569  0.1641
 8966TIP3    H148313   5.675   0.810   4.460  0.7935 -0.3337  1.4826
 8966TIP3    H248314   5.612   0.925   4.385 -1.5388 -2.1194  0.6534
 8967TIP3   OH248315   1.033   3.242   2.975  0.1388 -0.5970 -0.2072
 8967TIP3    H148316   1.099   3.200   3.031  0.2624 -0.4549 -0.2449
 8967TIP3    H248317   0.950   3.229   3.020  0.4213  0.7439  0.7137
 8968TIP3   OH248318   5.486   4.975  13.973 -0.0685  0.3485 -0.1651
 8968TIP3    H148319   5.543   5.034  14.021 -0.0575 -0.9343  1.4519
 8968TIP3    H248320   5.504   4.993  13.881  1.0861  1.7246  0.3170
 8969TIP3   OH248321   1.931   4.971  11.938  0.3971  0.5007 -0.1756
 8969TIP3    H148322   1.996   4.920  11.986 -0.7733 -2.0747 -1.1942
 8969TIP3    H248323   1.910   4.917  11.861 -2.4453  1.5290 -0.2040
 8970TIP3   OH248324   4.899   2.728   6.033  0.6990 -0.9949  0.4586
 8970TIP3    H148325   4.862   2.669   6.098 -0.5147 -0.1163  0.5665
 8970TIP3    H248326   4.940   2.797   6.084  0.1764 -0.5665  0.3030
 8971TIP3   OH248327   3.453   3.120  13.658 -0.0819 -0.0857  0.2487
 8971TIP3    H148328   3.455   3.195  13.717  0.3274 -0.0464  0.1829
 8971TIP3    H248329   3.472   3.045  13.714 -1.2016 -0.2319  0.4519
 8972TIP3   OH248330   0.731   3.118  12.505 -0.1869 -0.2806  0.8013
 8972TIP3    H148331   0.641   3.150  12.514  0.2330  0.8710  1.0137
 8972TIP3    H248332   0.782   3.175  12.562  1.1175  0.9745 -1.5251
 8973TIP3   OH248333   5.163   5.440   3.431 -0.5603 -0.2697 -0.2630
 8973TIP3    H148334   5.207   5.523   3.449  3.3377 -2.3910  0.6065
 8973TIP3    H248335   5.145   5.404   3.518 -2.8437 -0.0834 -0.6312
 8974TIP3   OH248336   6.153   5.506   2.670  0.0154  0.4860 -0.7353
 8974TIP3    H148337   6.231   5.554   2.642  0.6633  1.0417  1.8983
 8974TIP3    H248338   6.111   5.563   2.733  2.2986 -3.3728  4.7027
 8975TIP3   OH248339   4.604   0.207   0.309  0.0670  0.6482  0.0155
 8975TIP3    H148340   4.664   0.277   0.285 -0.5617  1.0063 -0.5303
 8975TIP3    H248341   4.517   0.243   0.291 -0.2382 -0.4352 -0.7093
 8976TIP3   OH248342   2.072   5.956   2.660 -0.2824  0.4751 -0.3408
 8976TIP3    H148343   2.007   6.022   2.686  0.1309  0.5870  0.4225
 8976TIP3    H248344   2.115   5.995   2.583  0.3056  1.3321  0.4086
 8977TIP3   OH248345   4.571   2.739   2.872  0.4871  0.4254  0.5445
 8977TIP3    H148346   4.532   2.722   2.958 -1.2929 -1.0678 -0.5221
 8977TIP3    H248347   4.592   2.833   2.873 -0.6647  0.6814  2.1446
 8978TIP3   OH248348   1.421   5.330   2.963  0.1022 -0.3140  0.6446
 8978TIP3    H148349   1.328   5.311   2.957  0.0188  0.2881 -0.0767
 8978TIP3    H248350   1.438   5.390   2.890  1.3517 -1.6549 -0.2136
 8979TIP3   OH248351   4.781   1.754   6.121  0.1873  0.7804  0.4010
 8979TIP3    H148352   4.686   1.756   6.135 -0.0585  0.3241 -1.0555
 8979TIP3    H248353   4.802   1.843   6.091  0.2181  0.8843  0.7337
 8980TIP3   OH248354   5.827   2.283  15.546  0.3853  0.1794 -0.3758
 8980TIP3    H148355   5.848   2.233  15.626 -4.2221 -1.9318 -0.3045
 8980TIP3    H248356   5.792   2.366  15.578  1.6587  0.7053 -0.3207
 8981TIP3   OH248357   1.574   0.379  14.902  0.6541  0.6423 -0.1005
 8981TIP3    H148358   1.480   0.366  14.915  1.0066 -0.0655  1.7430
 8981TIP3    H248359   1.596   0.319  14.830 -0.4773  1.5493 -1.2376
 8982TIP3   OH248360   6.429   3.024  15.646 -0.3036 -0.1784 -0.1346
 8982TIP3    H148361   6.380   3.084  15.703 -0.4437  1.1418 -1.6030
 8982TIP3    H248362   6.520   3.036  15.672 -0.5735 -1.5356  1.5768
 8983TIP3   OH248363   3.512   6.402   4.474  0.3616  0.0979 -0.1189
 8983TIP3    H148364   3.495   6.490   4.507 -1.0253  0.2000 -1.0673
 8983TIP3    H248365   3.596   6.409   4.429  2.0491  0.0657  2.8800
 8984TIP3   OH248366   3.007   3.278   2.915  0.2130 -0.0136  0.3998
 8984TIP3    H148367   3.072   3.207   2.911 -0.5708 -0.8349  1.9576
 8984TIP3    H248368   3.059   3.357   2.928  0.9702 -0.5383  0.6206
 8985TIP3   OH248369   6.057   5.799  14.910  0.2130  0.4082  0.4727
 8985TIP3    H148370   6.041   5.743  14.833  0.2673 -0.8370  1.3405
 8985TIP3    H248371   6.110   5.871  14.877 -0.2790  0.2131 -0.7842
 8986TIP3   OH248372   3.555   0.401   5.260 -0.5338  0.2346  0.7119
 8986TIP3    H148373   3.604   0.338   5.207 -5.1715 -2.6318 -0.4089
 8986TIP3    H248374   3.521   0.350   5.333 -3.6587  1.6158  0.2815
 8987TIP3   OH248375   0.301   4.753  13.796  0.3149  0.1395 -0.2094
 8987TIP3    H148376   0.326   4.738  13.887  0.9920  2.1363 -0.0419
 8987TIP3    H248377   0.352   4.688  13.746  0.7587 -0.2450  0.7380
 8988TIP3   OH248378   1.402   0.348   3.405  0.3521  0.0799 -0.0007
 8988TIP3    H148379   1.335   0.309   3.461 -0.6373  0.9952 -0.5330
 8988TIP3    H248380   1.411   0.286   3.332 -1.4568  0.9802 -1.0186
 8989TIP3   OH248381   5.046   0.224  12.200  0.1819  0.7640  0.1247
 8989TIP3    H148382   5.050   0.287  12.128  0.3428  3.3202  2.2458
 8989TIP3    H248383   5.029   0.140  12.159 -0.3080  2.2473 -2.8174
 8990TIP3   OH248384   6.670   6.683   4.060  0.1745 -0.4159 -0.3255
 8990TIP3    H148385   6.659   6.619   3.990 -1.8842 -1.1061  0.5893
 8990TIP3    H248386   6.671   6.631   4.140  3.2442  0.2883  0.1672
 8991TIP3   OH248387   5.095   4.037  12.278  0.6597 -0.0731  0.2388
 8991TIP3    H148388   5.119   4.040  12.371  1.3698 -0.1223  0.0577
 8991TIP3    H248389   5.028   3.969  12.273  0.8495 -0.2953  0.6687
 8992TIP3   OH248390   3.691   0.380   3.489 -0.0474  0.4157  0.4473
 8992TIP3    H148391   3.707   0.334   3.407  1.1602 -1.9345  1.9728
 8992TIP3    H248392   3.727   0.468   3.475  2.3375 -0.7224 -0.7160
 8993TIP3   OH248393   0.743   2.399  14.176 -0.1472  0.1362 -0.1545
 8993TIP3    H148394   0.688   2.404  14.254  0.0612  1.1966 -0.0798
 8993TIP3    H248395   0.723   2.312  14.139 -3.5780  1.3355 -1.3504
 8994TIP3   OH248396   3.027   4.080   6.261  0.1987 -0.2065  0.4082
 8994TIP3    H148397   2.949   4.077   6.316 -0.8297 -0.6777 -1.0418
 8994TIP3    H248398   3.079   4.003   6.287 -1.1249 -1.4271 -0.4802
 8995TIP3   OH248399   1.142   3.212  14.525 -0.4804  0.5121  0.3277
 8995TIP3    H148400   1.160   3.262  14.604  0.3299 -1.2798  1.2914
 8995TIP3    H248401   1.228   3.181  14.496 -0.8362  0.6711 -0.9381
 8996TIP3   OH248402   4.556   5.913  12.995  0.0724 -0.2843 -0.3153
 8996TIP3    H148403   4.605   5.887  13.073 -0.9737  0.4485  0.6065
 8996TIP3    H248404   4.566   5.839  12.934  0.9992 -0.8050  0.4574
 8997TIP3   OH248405   1.552   3.011  17.065 -0.1697  0.6057  0.1414
 8997TIP3    H148406   1.551   3.106  17.055 -3.1365  0.7661  1.5520
 8997TIP3    H248407   1.566   2.978  16.976 -1.4372  2.3265 -0.7172
 8998TIP3   OH248408   5.346   3.683   1.848  0.1431 -0.5745  0.1690
 8998TIP3    H148409   5.302   3.601   1.825  2.3285 -1.9272  0.7210
 8998TIP3    H248410   5.431   3.657   1.883  1.6767  2.0107 -1.4160
 8999TIP3   OH248411   4.076   5.943   3.930 -0.5593 -0.9796  0.3825
 8999TIP3    H148412   4.162   5.911   3.905 -0.1273  0.8564 -0.5004
 8999TIP3    H248413   4.017   5.911   3.861 -0.3522 -0.9501  0.1940
 9000TIP3   OH248414   1.301   5.808  16.951  0.9998  0.4106  0.3524
 9000TIP3    H148415   1.354   5.864  17.009 -0.1888  0.2989  1.5617
 9000TIP3    H248416   1.214   5.848  16.951  1.1386  0.8053 -1.9127
 9001TIP3   OH248417   3.226   2.462  14.890 -0.2897  0.5029 -0.0771
 9001TIP3    H148418   3.313   2.426  14.909 -0.2079 -0.6526 -2.4386
 9001TIP3    H248419   3.224   2.546  14.935  1.4908 -0.1309  1.2315
 9002TIP3   OH248420   5.687   5.937   2.097  0.1083 -0.4813  0.2395
 9002TIP3    H148421   5.595   5.913   2.107  0.0626 -1.2640 -1.9230
 9002TIP3    H248422   5.684   6.031   2.076 -0.3554 -1.0293 -2.2391
 9003TIP3   OH248423   0.580   5.486   0.952  0.1993 -0.0480  0.0886
 9003TIP3    H148424   0.540   5.446   1.029 -1.7200 -0.4627 -1.1001
 9003TIP3    H248425   0.517   5.472   0.882  2.3567 -0.5204 -1.7924
 9004TIP3   OH248426   4.459   5.787  11.674 -0.0446  0.2237 -0.4468
 9004TIP3    H148427   4.453   5.770  11.768 -1.7891  0.6089 -0.4769
 9004TIP3    H248428   4.535   5.735  11.645  0.0227 -0.5214  1.0192
 9005TIP3   OH248429   5.172   2.372   1.990  0.6045 -0.0429 -0.3650
 9005TIP3    H148430   5.222   2.434   2.043 -3.0442  2.8393 -0.1267
 9005TIP3    H248431   5.201   2.388   1.900  0.4149  1.2701 -0.1912
 9006TIP3   OH248432   1.350   1.435   1.589 -0.3111  0.0928  0.4143
 9006TIP3    H148433   1.287   1.507   1.580  1.5869  1.4780 -2.9810
 9006TIP3    H248434   1.373   1.435   1.682  0.3717  4.6263  0.3757
 9007TIP3   OH248435   0.049   5.572  11.801 -0.6735  0.0491  0.1947
 9007TIP3    H148436   0.047   5.491  11.850  2.8308 -0.7083 -0.7690
 9007TIP3    H248437  -0.013   5.558  11.729  0.1686 -1.9759 -0.1847
 9008TIP3   OH248438   3.830   1.514  14.129 -0.0597  0.3453  0.2881
 9008TIP3    H148439   3.899   1.575  14.152 -0.3628  1.3036 -1.2625
 9008TIP3    H248440   3.874   1.443  14.082  0.2118 -0.3352  1.5667
 9009TIP3   OH248441   2.869   1.725   4.979 -0.6966  0.1259 -0.1760
 9009TIP3    H148442   2.893   1.669   5.053 -0.3530  0.8575  0.2651
 9009TIP3    H248443   2.915   1.807   4.994  1.0682 -0.4243 -2.2673
 9010TIP3   OH248444   4.142   3.556   2.447  0.9503  0.2090 -0.4865
 9010TIP3    H148445   4.113   3.640   2.411  1.3846  0.6922  0.2863
 9010TIP3    H248446   4.063   3.520   2.488 -0.0884 -1.2793 -3.5860
 9011TIP3   OH248447   3.018   5.116   4.157 -0.0952 -0.2901  0.6260
 9011TIP3    H148448   2.957   5.048   4.184 -2.8818  0.9295 -2.1658
 9011TIP3    H248449   3.030   5.171   4.235  0.9480 -3.0220  2.4351
 9012TIP3   OH248450   2.694   1.809  11.528  0.0850  0.7331 -0.4368
 9012TIP3    H148451   2.767   1.853  11.486  0.1837  0.6637 -0.3380
 9012TIP3    H248452   2.732   1.767  11.605 -0.3647  2.0402  0.5024
 9013TIP3   OH248453   1.478   0.205   5.692  0.1084  0.3933 -0.8723
 9013TIP3    H148454   1.525   0.222   5.773  0.3040  0.8916 -1.0885
 9013TIP3    H248455   1.424   0.283   5.679 -1.3648 -0.4918 -0.2210
 9014TIP3   OH248456   3.720   4.839  15.704 -0.3289  0.3726 -0.1957
 9014TIP3    H148457   3.636   4.824  15.661 -0.8667  0.2386  0.8957
 9014TIP3    H248458   3.744   4.928  15.678  0.4758 -0.4997 -2.6260
 9015TIP3   OH248459   0.177   0.223  15.505  0.1136 -0.0845  0.2655
 9015TIP3    H148460   0.267   0.192  15.489 -0.0389 -0.4421  0.0976
 9015TIP3    H248461   0.146   0.252  15.419  0.0567  0.0178  0.3184
 9016TIP3   OH248462   5.946   1.478   1.058  0.6758  0.0131 -0.2512
 9016TIP3    H148463   5.984   1.510   0.976  0.0776  0.5436 -0.3317
 9016TIP3    H248464   6.006   1.508   1.126  1.2816 -0.6059 -0.5138
 9017TIP3   OH248465   5.012   6.328   1.349  0.4066  0.0976  0.0175
 9017TIP3    H148466   4.932   6.284   1.319  0.8148 -0.0694 -0.8368
 9017TIP3    H248467   5.077   6.257   1.357  0.2713  0.1193  1.4263
 9018TIP3   OH248468   5.496   6.028  13.942  0.1794 -0.6145  0.4341
 9018TIP3    H148469   5.468   6.072  13.862 -0.7853 -0.8178  0.6553
 9018TIP3    H248470   5.580   5.989  13.920 -0.9691 -2.2930 -1.0498
 9019TIP3   OH248471   2.152   4.978  16.655 -0.0926  0.3602 -0.4565
 9019TIP3    H148472   2.208   4.912  16.695  1.2854  1.1168 -1.0971
 9019TIP3    H248473   2.186   4.988  16.567 -2.2209 -0.2624 -1.3723
 9020TIP3   OH248474   0.971   3.680  12.785 -0.0441  0.3087 -0.8294
 9020TIP3    H148475   0.892   3.704  12.737 -0.3652 -0.0127 -0.4593
 9020TIP3    H248476   1.041   3.731  12.743 -0.4854  0.7718 -1.0015
 9021TIP3   OH248477   0.540   5.317  15.652 -0.6745 -0.2163 -0.1794
 9021TIP3    H148478   0.621   5.269  15.635 -1.2337 -1.3086  0.2091
 9021TIP3    H248479   0.482   5.293  15.580 -0.6156  0.6658 -0.5283
 9022TIP3   OH248480   4.472   3.408   3.637  0.2326  0.0241 -0.1643
 9022TIP3    H148481   4.379   3.403   3.614  0.1782  1.0223 -0.1951
 9022TIP3    H248482   4.478   3.364   3.721 -0.0932 -0.9377 -0.6314
 9023TIP3   OH248483   5.746   3.090   3.462 -0.0318  0.2857 -0.4019
 9023TIP3    H148484   5.820   3.029   3.460 -1.6287 -1.6851 -1.8910
 9023TIP3    H248485   5.739   3.123   3.373 -0.8609  0.5524 -0.2448
 9024TIP3   OH248486   3.081   3.425   4.328 -0.2613  0.2704 -0.0668
 9024TIP3    H148487   3.002   3.419   4.274 -0.0010  1.2501 -0.5794
 9024TIP3    H248488   3.146   3.371   4.282 -1.3516 -2.6756  1.7332
 9025TIP3   OH248489   5.153   5.625   1.513  0.1053 -0.2942  0.1393
 9025TIP3    H148490   5.134   5.660   1.600 -0.0968  1.6879 -0.6609
 9025TIP3    H248491   5.122   5.693   1.453  1.6229 -0.9667 -1.4508
 9026TIP3   OH248492   0.561   1.486  13.979 -0.2969  0.5957 -0.1609
 9026TIP3    H148493   0.510   1.564  13.998 -2.8884 -1.1911  0.5103
 9026TIP3    H248494   0.547   1.468  13.886  0.7802  1.2379 -0.4566
 9027TIP3   OH248495   4.745   4.681   1.167 -0.4004  0.4048  0.0834
 9027TIP3    H148496   4.706   4.714   1.248  0.6488  0.6527  0.4973
 9027TIP3    H248497   4.683   4.616   1.135 -0.1653 -0.7013  1.8282
 9028TIP3   OH248498   6.729   2.365   4.100  0.3691 -0.4599  0.4266
 9028TIP3    H148499   6.760   2.426   4.166  0.0224  0.7521 -0.5062
 9028TIP3    H248500   6.636   2.355   4.118  0.3249 -0.3218  0.2783
 9029TIP3   OH248501   4.714   1.609   1.877 -0.6915  0.3816 -0.4354
 9029TIP3    H148502   4.766   1.688   1.862  0.9855 -0.6157 -0.0233
 9029TIP3    H248503   4.677   1.622   1.964  0.5602  0.2046  0.1426
 9030TIP3   OH248504   4.192   2.107  12.772  0.0103 -0.2789 -0.2787
 9030TIP3    H148505   4.140   2.162  12.831  1.3221 -0.6816  1.2848
 9030TIP3    H248506   4.226   2.037  12.829 -1.3510 -2.5511 -2.1334
 9031TIP3   OH248507   6.352   5.961   3.249  0.4800 -1.2497 -0.1593
 9031TIP3    H148508   6.258   5.967   3.230  0.6289 -0.6227 -0.7088
 9031TIP3    H248509   6.377   6.050   3.274  0.1570 -2.1518  3.6555
 9032TIP3   OH248510   5.178   5.448  10.685  0.3143  0.0850 -0.0241
 9032TIP3    H148511   5.242   5.493  10.739  1.7919 -2.2252  0.2002
 9032TIP3    H248512   5.121   5.403  10.748  0.6756 -0.7920 -0.3195
 9033TIP3   OH248513   1.504   4.163  15.248 -0.4235  0.0725 -0.1381
 9033TIP3    H148514   1.582   4.157  15.303  0.0844  0.6728 -0.7887
 9033TIP3    H248515   1.523   4.107  15.173 -1.5474 -1.5926  0.7893
 9034TIP3   OH248516   0.808   0.842   5.296  0.0810 -0.4269 -0.2624
 9034TIP3    H148517   0.846   0.845   5.208  2.0207  0.1634  0.5535
 9034TIP3    H248518   0.778   0.932   5.312 -0.9176 -0.7029 -0.5972
 9035TIP3   OH248519   4.248   4.630   4.133 -0.0089 -0.4596  0.3323
 9035TIP3    H148520   4.195   4.658   4.207 -0.1098 -0.8340  0.3994
 9035TIP3    H248521   4.288   4.711   4.100  0.1306 -0.3106  0.8685
 9036TIP3   OH248522   1.441   3.610   4.118  0.1218  0.0288 -0.1754
 9036TIP3    H148523   1.534   3.603   4.137 -0.5921  1.9697  4.8158
 9036TIP3    H248524   1.426   3.704   4.106 -1.5220 -0.0436  1.1523
 9037TIP3   OH248525   5.368   1.115  11.637  0.1822  0.5168  0.4709
 9037TIP3    H148526   5.428   1.132  11.709 -0.0720  1.6019  0.4324
 9037TIP3    H248527   5.409   1.158  11.561  0.6062 -0.8810 -0.0997
 9038TIP3   OH248528   4.785   2.812  11.591 -0.3558 -0.3072 -0.4259
 9038TIP3    H148529   4.840   2.737  11.571 -0.6080 -1.3870  2.7210
 9038TIP3    H248530   4.696   2.782  11.573 -0.3424 -0.2931 -0.5197
 9039TIP3   OH248531   1.170   6.738   4.739 -0.0899  0.1236  0.3875
 9039TIP3    H148532   1.241   6.681   4.768  0.8154  2.3436  2.7298
 9039TIP3    H248533   1.123   6.762   4.819 -1.7772  0.9109 -0.7979
 9040TIP3   OH248534   6.499   5.533   3.383  0.0686  0.0209 -0.3778
 9040TIP3    H148535   6.458   5.543   3.468  2.1067 -2.0571  0.9083
 9040TIP3    H248536   6.540   5.617   3.365  0.7901  0.0470  1.3464
 9041TIP3   OH248537   6.219   3.539   3.097 -0.3789  0.2844  0.3962
 9041TIP3    H148538   6.222   3.451   3.133 -1.3953  0.7628  1.6920
 9041TIP3    H248539   6.223   3.526   3.002 -0.4495 -1.1466  0.5801
 9042TIP3   OH248540   1.417   1.861  11.561 -0.0157 -0.5147 -0.3071
 9042TIP3    H148541   1.359   1.857  11.637 -0.8920  0.4374 -0.9104
 9042TIP3    H248542   1.423   1.771  11.530 -0.7122 -0.7052  0.1021
 9043TIP3   OH248543   0.107   5.870  15.413 -0.5622 -0.2845 -0.4087
 9043TIP3    H148544   0.037   5.926  15.378 -0.7097  0.3177  0.8167
 9043TIP3    H248545   0.101   5.882  15.508  2.1946  0.9637 -0.3631
 9044TIP3   OH248546   1.919   6.709   0.340 -1.1303  0.1289  0.5749
 9044TIP3    H148547   1.982   6.640   0.316 -1.3717  0.2635 -0.4788
 9044TIP3    H248548   1.936   6.725   0.433  0.5199  0.2784  0.2772
 9045TIP3   OH248549   3.992   5.707  12.683 -0.5231  0.0553  0.1950
 9045TIP3    H148550   4.020   5.766  12.753 -0.4650  1.0082 -0.6214
 9045TIP3    H248551   4.068   5.700  12.625 -0.7184 -0.3559 -0.0172
 9046TIP3   OH248552   0.330   5.419  11.958  0.6035 -0.1264  0.6279
 9046TIP3    H148553   0.368   5.332  11.943  2.4103  0.4099  1.9602
 9046TIP3    H248554   0.254   5.402  12.013  0.6373 -0.9248  0.4444
 9047TIP3   OH248555   2.874   6.148  12.795 -0.0659  0.5672 -0.1753
 9047TIP3    H148556   2.853   6.232  12.836 -1.1537  1.2593 -2.1091
 9047TIP3    H248557   2.790   6.106  12.780  0.4116 -0.3947 -0.2164
 9048TIP3   OH248558   5.268   2.595   2.115  0.0744  0.1499 -0.2139
 9048TIP3    H148559   5.242   2.687   2.115 -0.0243  0.1327  1.1390
 9048TIP3    H248560   5.282   2.574   2.207  0.2483 -1.1489 -0.5258
 9049TIP3   OH248561   5.486   3.755   3.413 -0.1367 -0.2405  0.2293
 9049TIP3    H148562   5.499   3.685   3.477  0.6012 -1.3909 -1.1764
 9049TIP3    H248563   5.483   3.711   3.328 -1.3573  1.2524 -0.5264
 9050TIP3   OH248564   3.855   5.227  13.422  0.6549  0.5555  0.1875
 9050TIP3    H148565   3.937   5.274  13.431  0.9338 -0.0960  1.1475
 9050TIP3    H248566   3.813   5.235  13.508  1.2664 -1.9777  0.7513
 9051TIP3   OH248567   1.033   3.614  15.816 -0.5802 -0.7937  0.7046
 9051TIP3    H148568   1.043   3.570  15.900  1.3879  1.2782  1.5750
 9051TIP3    H248569   1.052   3.545  15.751 -1.6365 -2.2742  1.9309
 9052TIP3   OH248570   1.248   4.409  11.650 -0.2896  0.4798  0.5558
 9052TIP3    H148571   1.198   4.468  11.708 -1.2770  0.0018  0.2110
 9052TIP3    H248572   1.222   4.321  11.678  0.6184  0.2165  0.5782
 9053TIP3   OH248573   0.509   0.651  13.353  0.4727 -0.4714  0.3964
 9053TIP3    H148574   0.422   0.652  13.313  0.2406  2.1786  0.8835
 9053TIP3    H248575   0.511   0.570  13.404 -1.2812 -1.1106 -0.5014
 9054TIP3   OH248576   6.293   5.958  13.628  0.2812 -0.2212  0.3503
 9054TIP3    H148577   6.206   5.934  13.658  0.0079  1.7978  1.3160
 9054TIP3    H248578   6.288   6.053  13.613  2.0446 -0.2255 -0.4515
 9055TIP3   OH248579   1.531   1.037  14.743 -0.5689  0.0841 -0.3416
 9055TIP3    H148580   1.547   1.130  14.756  0.1159  0.0755 -1.0897
 9055TIP3    H248581   1.588   1.012  14.670 -0.6354 -0.9515 -0.0575
 9056TIP3   OH248582   1.045   6.528  13.099 -0.3068 -0.5414 -0.0109
 9056TIP3    H148583   0.990   6.523  13.177 -1.9230  1.4172 -0.9694
 9056TIP3    H248584   1.002   6.472  13.035  1.2583 -2.4981  0.5936
 9057TIP3   OH248585   0.175   4.328  11.292 -0.1613 -0.1571  0.1985
 9057TIP3    H148586   0.149   4.405  11.242 -0.7589  0.1952  1.0493
 9057TIP3    H248587   0.265   4.311  11.263 -0.3795  0.2380 -0.7432
 9058TIP3   OH248588   4.059   4.450  12.341  0.0296 -0.2084 -0.4328
 9058TIP3    H148589   4.037   4.377  12.283 -0.4807 -0.7722  0.4520
 9058TIP3    H248590   4.084   4.521  12.282  0.1332 -0.9682 -1.3186
 9059TIP3   OH248591   2.017   6.201   5.087 -0.0688  0.1752  0.4387
 9059TIP3    H148592   2.039   6.119   5.044  0.6979  0.2087  0.7514
 9059TIP3    H248593   2.101   6.237   5.115 -0.2822  1.6704 -0.7893
 9060TIP3   OH248594   3.275   5.950  13.260 -0.1158  0.3397  0.3209
 9060TIP3    H148595   3.328   5.889  13.208 -0.1458 -1.6035  2.4971
 9060TIP3    H248596   3.324   6.032  13.257  1.6182 -0.6775  0.0340
 9061TIP3   OH248597   6.697   2.968  15.684  0.0648  0.6184 -0.5527
 9061TIP3    H148598   6.748   2.915  15.623 -0.1322  0.1822 -0.3415
 9061TIP3    H248599   6.660   2.905  15.746  2.1343  1.2415  1.4011
 9062TIP3   OH248600   3.950   1.620  13.238 -0.7048 -0.0768 -0.0428
 9062TIP3    H148601   3.971   1.703  13.282 -2.5099  0.2378  0.2420
 9062TIP3    H248602   4.035   1.585  13.212  0.0665  2.1000 -0.5771
 9063TIP3   OH248603   6.649   1.327  16.630 -0.4446 -0.3704  0.4163
 9063TIP3    H148604   6.567   1.368  16.657 -0.2907  1.0737 -1.2338
 9063TIP3    H248605   6.622   1.248  16.583 -0.9278  0.6827 -1.0813
 9064TIP3   OH248606   1.613   2.828  16.476  0.3459 -0.5670  0.2565
 9064TIP3    H148607   1.615   2.875  16.393 -2.1886  0.4027  0.6985
 9064TIP3    H248608   1.663   2.883  16.536  2.1607 -1.2577 -0.5896
 9065TIP3   OH248609   5.845   1.605  16.150 -0.2044 -0.2903  0.1849
 9065TIP3    H148610   5.940   1.619  16.154 -0.3060  0.1357  1.2466
 9065TIP3    H248611   5.836   1.516  16.116  0.5384  0.2649 -1.5731
 9066TIP3   OH248612   2.909   4.708  14.853 -0.8292 -0.3536 -0.5153
 9066TIP3    H148613   2.939   4.687  14.941  0.4021 -1.5233 -1.1990
 9066TIP3    H248614   2.979   4.762  14.815 -0.4890 -1.4241 -1.4270
 9067TIP3   OH248615   5.149   0.322  10.822 -0.2612 -0.0187  0.0445
 9067TIP3    H148616   5.153   0.409  10.784 -1.1479 -0.0095 -0.0305
 9067TIP3    H248617   5.224   0.276  10.785 -0.6877  0.2213 -1.1240
 9068TIP3   OH248618   3.561   5.660   6.136  0.4330  0.0057 -0.1469
 9068TIP3    H148619   3.516   5.603   6.198 -1.1031  1.7155  0.3437
 9068TIP3    H248620   3.652   5.629   6.137  0.2220 -0.6262  2.2041
 9069TIP3   OH248621   0.862   0.880   5.019  0.2205  0.0935  0.1632
 9069TIP3    H148622   0.908   0.956   4.983  0.5176 -0.8402 -1.4862
 9069TIP3    H248623   0.772   0.889   4.987  0.6106 -1.0185 -1.2925
 9070TIP3   OH248624   2.785   1.068  12.225 -0.0969 -0.1739 -0.0806
 9070TIP3    H148625   2.808   1.011  12.152 -0.7031 -1.7985  0.9565
 9070TIP3    H248626   2.690   1.081  12.216  0.0468  0.7087 -0.3370
 9071TIP3   OH248627   1.083   5.425  11.981  0.2594 -0.1125  0.3565
 9071TIP3    H148628   1.095   5.346  12.034  1.2517  0.1468  0.5216
 9071TIP3    H248629   1.107   5.398  11.893  0.7852  0.0561  0.4478
 9072TIP3   OH248630   4.993   0.048  10.748  0.4726 -0.0051  0.4939
 9072TIP3    H148631   4.920   0.107  10.768  0.0097 -0.2810 -0.3300
 9072TIP3    H248632   5.033   0.086  10.669  1.0519 -0.0041  0.7902
 9073TIP3   OH248633   5.347   3.275   3.788 -0.4471 -0.3986  0.4033
 9073TIP3    H148634   5.414   3.304   3.726 -0.8036 -0.7498 -0.1506
 9073TIP3    H248635   5.361   3.329   3.865  0.1799 -0.1468  0.1173
 9074TIP3   OH248636   3.666   6.348  12.522 -0.8642 -0.2679  0.1479
 9074TIP3    H148637   3.620   6.298  12.590 -0.4069  0.3817  0.9363
 9074TIP3    H248638   3.678   6.285  12.451 -0.9339 -1.0866  0.8495
 9075TIP3   OH248639   3.594   5.036  11.499  0.2354  0.3587 -0.2955
 9075TIP3    H148640   3.540   5.095  11.550 -1.1402 -0.1054 -1.1885
 9075TIP3    H248641   3.534   4.997  11.435  1.5212 -0.5085 -1.0043
 9076TIP3   OH248642   0.140   2.662   3.799 -0.5101 -0.0913  0.3020
 9076TIP3    H148643   0.188   2.666   3.881 -0.6814 -1.0476  0.4492
 9076TIP3    H248644   0.206   2.682   3.732  0.0557 -1.2207  0.5136
 9077TIP3   OH248645   1.920   2.745  14.928  0.1804  0.3166  0.1409
 9077TIP3    H148646   1.972   2.745  15.009 -0.4669  0.0156  0.5593
 9077TIP3    H248647   1.953   2.671  14.879 -0.9200 -0.8385  1.1085
 9078TIP3   OH248648   0.473   0.318   3.959  0.8398 -0.4586  0.7400
 9078TIP3    H148649   0.492   0.304   3.866  0.5862 -0.8277  0.7410
 9078TIP3    H248650   0.484   0.412   3.972  1.0829 -0.4357  0.3837
 9079TIP3   OH248651   1.494   5.093  12.169  0.2473  0.0891 -0.5799
 9079TIP3    H148652   1.428   5.056  12.111 -0.1666  0.2703 -0.2292
 9079TIP3    H248653   1.576   5.089  12.119  0.6480 -3.3244  0.2255
 9080TIP3   OH248654   4.727   0.675  14.867 -0.0589 -0.1672 -0.0478
 9080TIP3    H148655   4.671   0.738  14.912  0.8649  1.6071 -1.3650
 9080TIP3    H248656   4.788   0.645  14.934  0.2965  1.2650  0.2776
 9081TIP3   OH248657   5.858   2.529  13.874 -0.1214 -0.1985  0.2099
 9081TIP3    H148658   5.786   2.566  13.823 -1.4184 -1.7215  0.8864
 9081TIP3    H248659   5.907   2.605  13.904 -1.0200  0.8429 -0.8670
 9082TIP3   OH248660   0.115   5.826   4.507  0.3190  0.5297  0.0398
 9082TIP3    H148661   0.082   5.821   4.597 -0.0782 -0.2697 -0.1403
 9082TIP3    H248662   0.100   5.738   4.472 -1.3099  1.3696 -1.4256
 9083TIP3   OH248663   4.377   3.249  13.203  0.0197  0.5229 -0.0642
 9083TIP3    H148664   4.451   3.200  13.240 -1.9756 -1.3904  1.4953
 9083TIP3    H248665   4.383   3.233  13.108  1.2840 -0.0977  0.1070
 9084TIP3   OH248666   2.180   5.229   2.390  0.7214  0.3217  0.3859
 9084TIP3    H148667   2.139   5.237   2.476  1.8318  1.4768  0.8150
 9084TIP3    H248668   2.274   5.238   2.407  1.1168 -1.4820 -0.6846
 9085TIP3   OH248669   0.166   1.941  15.401  0.3997  0.6042  0.2456
 9085TIP3    H148670   0.194   1.913  15.489  0.2961 -1.6096 -0.4071
 9085TIP3    H248671   0.194   1.870  15.344 -2.0570  0.7358 -1.1421
 9086TIP3   OH248672   0.154   3.332  11.381 -0.1896  0.0015 -0.1270
 9086TIP3    H148673   0.184   3.282  11.305  1.9400  0.6189  0.2830
 9086TIP3    H248674   0.225   3.393  11.399 -1.9997  1.9721  0.4703
 9087TIP3   OH248675   4.099   4.606   3.489 -0.4664 -0.8241 -0.2479
 9087TIP3    H148676   4.008   4.578   3.475 -0.5330 -0.1764 -1.1467
 9087TIP3    H248677   4.117   4.584   3.580 -2.1462  0.7570  0.4980
 9088TIP3   OH248678   6.166   0.324  15.102 -0.2314 -0.1656  0.3430
 9088TIP3    H148679   6.230   0.353  15.167  0.2766  1.0656 -0.7020
 9088TIP3    H248680   6.204   0.244  15.064 -0.3703 -0.6979  1.2906
 9089TIP3   OH248681   0.011   0.471  13.414 -0.6252 -0.0778 -0.9768
 9089TIP3    H148682   0.102   0.498  13.427 -0.7768  0.5450 -1.2049
 9089TIP3    H248683   0.017   0.389  13.365 -0.2109  0.5311 -1.9652
 9090TIP3   OH248684   4.570   1.596   4.591 -0.0812 -0.3963 -0.1049
 9090TIP3    H148685   4.633   1.544   4.539  1.9128  1.7640  0.0400
 9090TIP3    H248686   4.551   1.542   4.667  1.6082 -1.1214 -0.1753
 9091TIP3   OH248687   2.953   1.422   6.125 -0.4320  0.7355  0.5715
 9091TIP3    H148688   2.959   1.509   6.086 -2.8050  0.9625  0.6326
 9091TIP3    H248689   3.040   1.406   6.162  0.6770  2.1356 -1.3770
 9092TIP3   OH248690   1.325   6.623  11.491 -0.0243 -0.5409 -0.1748
 9092TIP3    H148691   1.344   6.530  11.479 -0.4889 -0.4707 -1.4391
 9092TIP3    H248692   1.239   6.636  11.451  0.8269  0.8031 -1.6069
 9093TIP3   OH248693   1.832   2.125  10.856  0.1181 -0.5046 -0.5515
 9093TIP3    H148694   1.879   2.206  10.872 -2.0033  1.4295 -3.5474
 9093TIP3    H248695   1.898   2.063  10.825  1.3027  1.0087 -1.0666
 9094TIP3   OH248696   6.301   6.633  10.226  0.5693  0.4180 -0.4890
 9094TIP3    H148697   6.350   6.713  10.205 -1.2679  2.0508  1.1758
 9094TIP3    H248698   6.291   6.637  10.322 -0.8166 -1.0428 -0.5700
 9095TIP3   OH248699   1.036   3.286   1.254  0.2080 -0.3338  0.2872
 9095TIP3    H148700   1.131   3.286   1.248  0.3382 -0.1679  2.1833
 9095TIP3    H248701   1.009   3.358   1.196  1.3767  1.1356  1.5184
 9096TIP3   OH248702   6.638   1.316   4.686 -0.1863  0.4031  0.5140
 9096TIP3    H148703   6.705   1.289   4.750 -0.3232 -1.3508 -0.0664
 9096TIP3    H248704   6.649   1.255   4.613 -0.8420  1.6352 -0.6267
 9097TIP3   OH248705   1.549   1.930  16.271  0.1199  0.2357 -0.1335
 9097TIP3    H148706   1.510   1.896  16.190  0.1849 -0.0809 -0.0290
 9097TIP3    H248707   1.491   2.002  16.297  0.6343  0.9699 -0.9917
 9098TIP3   OH248708   3.767   2.449  10.943 -0.4378 -0.7916 -0.1189
 9098TIP3    H148709   3.853   2.480  10.917 -1.1125  1.1481 -0.1482
 9098TIP3    H248710   3.759   2.362  10.904  0.0046  0.5625 -3.3691
 9099TIP3   OH248711   1.460   2.955  15.559 -0.3477 -0.3243 -0.6343
 9099TIP3    H148712   1.505   2.889  15.611  2.8641  1.2539 -1.2861
 9099TIP3    H248713   1.472   2.926  15.468 -2.0097 -0.6636 -0.7747
 9100TIP3   OH248714   3.217   4.539   4.271 -0.4787  0.4399 -0.4463
 9100TIP3    H148715   3.158   4.476   4.312  0.1612 -0.4119 -0.8174
 9100TIP3    H248716   3.163   4.584   4.206 -0.8885  0.1364 -0.3177
 9101TIP3   OH248717   0.582   0.836   3.029  0.2346 -0.2473  0.0154
 9101TIP3    H148718   0.557   0.755   3.073  0.4569 -0.9311 -1.1222
 9101TIP3    H248719   0.500   0.883   3.017  0.1378 -0.1711  0.9120
 9102TIP3   OH248720   6.449   5.527  11.793  0.3843 -0.3495 -0.1361
 9102TIP3    H148721   6.417   5.582  11.721 -0.8189  1.3647  1.6634
 9102TIP3    H248722   6.498   5.587  11.849 -0.2834 -1.2774  1.4616
 9103TIP3   OH248723   4.044   4.755   2.926  0.2677 -0.0900  0.3147
 9103TIP3    H148724   4.030   4.826   2.988 -0.8991 -0.4557  0.4804
 9103TIP3    H248725   4.006   4.787   2.844  1.4161  0.2175 -0.1184
 9104TIP3   OH248726   2.807   5.621   2.268 -0.6408 -0.7484  0.1426
 9104TIP3    H148727   2.766   5.545   2.310 -0.3085 -0.7205  0.5300
 9104TIP3    H248728   2.818   5.595   2.177 -2.3130 -0.4152 -0.1623
 9105TIP3   OH248729   2.915   4.642   1.940 -0.0978 -0.1771 -0.2853
 9105TIP3    H148730   2.823   4.665   1.928  0.0112  1.0366  1.0045
 9105TIP3    H248731   2.919   4.548   1.924 -1.3823 -0.0727 -1.3287
 9106TIP3   OH248732   4.649   0.066   2.962 -0.5901 -0.1459 -0.2463
 9106TIP3    H148733   4.732   0.020   2.951 -1.3101 -1.4634 -0.2833
 9106TIP3    H248734   4.646   0.128   2.889  0.4551  0.0676 -0.1154
 9107TIP3   OH248735   4.202   1.591  12.270 -1.0392  0.2538  0.4277
 9107TIP3    H148736   4.121   1.548  12.300 -0.5320 -0.0098  1.4371
 9107TIP3    H248737   4.272   1.534  12.301 -0.4033  1.3018  0.9365
 9108TIP3   OH248738   0.748   3.150   4.632  0.1542  0.1445 -0.0926
 9108TIP3    H148739   0.806   3.075   4.644 -1.1498 -1.0920 -1.3372
 9108TIP3    H248740   0.768   3.182   4.544  0.6550  1.2489  0.4045
 9109TIP3   OH248741   3.406   3.826   1.569 -0.2590 -0.1436 -0.4004
 9109TIP3    H148742   3.495   3.838   1.538 -0.2067 -0.0261 -0.2048
 9109TIP3    H248743   3.380   3.740   1.537 -0.4068  0.2169 -1.2550
 9110TIP3   OH248744   0.256   0.532  16.118 -0.4041  0.1183  0.2032
 9110TIP3    H148745   0.160   0.531  16.119 -0.4887  2.8455 -0.1975
 9110TIP3    H248746   0.281   0.461  16.176 -2.6492 -1.1515 -0.2897
 9111TIP3   OH248747   1.841   3.956  16.734 -0.0585  0.4955  0.4991
 9111TIP3    H148748   1.793   3.971  16.816  0.0536  1.7157  0.3457
 9111TIP3    H248749   1.925   4.000  16.747  1.1627 -1.8453  0.8621
 9112TIP3   OH248750   5.164   3.180  16.535  0.1604 -0.0376 -0.4552
 9112TIP3    H148751   5.181   3.192  16.629  0.7492  0.7940 -0.6582
 9112TIP3    H248752   5.127   3.092  16.528 -0.8078  0.2692  0.6782
 9113TIP3   OH248753   1.917   2.824  11.740 -0.2972 -0.1584  0.0004
 9113TIP3    H148754   2.012   2.833  11.753 -0.1619 -3.6813  2.0508
 9113TIP3    H248755   1.909   2.790  11.651  0.3677  0.0710 -0.1533
 9114TIP3   OH248756   1.770   3.969   4.106 -0.0999  0.0683 -0.6881
 9114TIP3    H148757   1.741   4.054   4.140  1.4902  0.1730  0.4474
 9114TIP3    H248758   1.766   3.979   4.011  0.9653  1.7473 -0.5769
 9115TIP3   OH248759   2.799   1.019  13.688 -0.2175 -0.0683  0.6095
 9115TIP3    H148760   2.752   1.096  13.656 -0.7649 -0.4019  0.5991
 9115TIP3    H248761   2.839   0.980  13.610  2.2389  1.6399  0.9488
 9116TIP3   OH248762   2.640   5.699   3.440 -0.8809  0.0980 -0.0944
 9116TIP3    H148763   2.686   5.773   3.400  0.1836 -0.2439  0.5040
 9116TIP3    H248764   2.613   5.645   3.366  0.8682 -0.4019 -0.3814
 9117TIP3   OH248765   6.642   5.816   2.210 -0.1384  0.7052  0.1328
 9117TIP3    H148766   6.698   5.894   2.217 -1.7954  2.1841 -2.1198
 9117TIP3    H248767   6.696   5.744   2.242  2.0268  2.5328  0.7038
 9118TIP3   OH248768   6.752   1.966   0.332 -0.0746  0.2378  0.2184
 9118TIP3    H148769   6.696   2.040   0.310  0.4695  0.2355 -1.1817
 9118TIP3    H248770   6.696   1.909   0.384 -0.8980  0.9845  0.1681
 9119TIP3   OH248771   4.747   4.372   1.987 -0.2190 -0.2067 -0.8108
 9119TIP3    H148772   4.718   4.299   2.043  0.7496 -1.2256 -1.6201
 9119TIP3    H248773   4.836   4.391   2.018  0.0083 -0.2309 -1.4511
 9120TIP3   OH248774   3.787   0.305   4.410  0.1405  0.2154 -0.4670
 9120TIP3    H148775   3.780   0.371   4.479 -1.5367 -1.4216  0.9384
 9120TIP3    H248776   3.748   0.347   4.333 -0.9434  0.8617  0.4249
 9121TIP3   OH248777   5.932   2.553  12.624 -0.1563 -0.2742 -0.2651
 9121TIP3    H148778   5.966   2.468  12.597  0.3546  0.4444 -1.9858
 9121TIP3    H248779   6.010   2.601  12.654 -0.5494 -0.6524  1.4095
 9122TIP3   OH248780   4.429   1.699  14.281  0.4357 -0.0339 -0.4721
 9122TIP3    H148781   4.426   1.620  14.334 -0.0170 -0.4245 -1.0774
 9122TIP3    H248782   4.388   1.766  14.336  1.5944 -0.0111  0.3731
 9123TIP3   OH248783   5.061   0.563  15.321 -0.2757  0.3053  0.4534
 9123TIP3    H148784   5.067   0.527  15.410 -1.6208  0.9797  0.8280
 9123TIP3    H248785   5.038   0.488  15.266 -0.7238  0.1382  0.8706
 9124TIP3   OH248786   2.451   3.206  15.612 -0.3627 -0.0053  0.5442
 9124TIP3    H148787   2.428   3.115  15.593 -0.3215  0.1888 -0.4561
 9124TIP3    H248788   2.523   3.225  15.552 -0.4456  0.7259  0.6754
 9125TIP3   OH248789   3.866   6.213   2.120 -0.3711 -0.1400  0.2185
 9125TIP3    H148790   3.877   6.134   2.068 -0.5503  0.6468 -1.0355
 9125TIP3    H248791   3.820   6.184   2.198  0.7288 -1.5045  0.3857
 9126TIP3   OH248792   6.414   1.585  14.405  0.0644 -0.3654  0.2932
 9126TIP3    H148793   6.362   1.509  14.430 -0.4592  0.2576  1.1206
 9126TIP3    H248794   6.451   1.562  14.320 -0.0136 -1.5791  0.5851
 9127TIP3   OH248795   6.397   4.003  13.883  0.0701  0.3227 -0.0358
 9127TIP3    H148796   6.412   3.979  13.791 -1.4711  1.1493 -0.5246
 9127TIP3    H248797   6.483   4.029  13.915  0.6320  0.0030 -1.2450
 9128TIP3   OH248798   1.633   3.583  12.864 -0.3724  0.4105  0.0546
 9128TIP3    H148799   1.621   3.677  12.877  2.1801  0.6550  1.0730
 9128TIP3    H248800   1.582   3.562  12.787 -2.0297  2.3862  0.5837
 9129TIP3   OH248801   5.811   5.121   5.950  0.1306  0.1065 -0.5645
 9129TIP3    H148802   5.864   5.072   6.012  0.7805  3.1002  1.3004
 9129TIP3    H248803   5.721   5.109   5.981  0.4582  1.6670  1.0414
 9130TIP3   OH248804   5.286   1.363   4.692 -0.4938  0.3176 -0.2575
 9130TIP3    H148805   5.309   1.299   4.624 -2.2944 -0.3840 -0.2586
 9130TIP3    H248806   5.315   1.447   4.657  2.1401 -0.5002 -0.1465
 9131TIP3   OH248807   5.038   1.684   6.140 -0.7959  0.6675  0.1093
 9131TIP3    H148808   5.087   1.637   6.209  0.5137  2.4141  0.4180
 9131TIP3    H248809   4.949   1.649   6.146 -0.2272 -0.6530  1.3565
 9132TIP3   OH248810   1.954   0.049  12.718  0.3232 -0.3036 -0.0189
 9132TIP3    H148811   1.871   0.007  12.698  0.7237 -0.4231 -1.5232
 9132TIP3    H248812   1.958   0.051  12.814 -0.9113 -1.2571  0.0662
 9133TIP3   OH248813   5.657   0.917   0.847  0.2455 -0.4082  0.2404
 9133TIP3    H148814   5.607   0.880   0.774  0.1894 -0.4803  0.3149
 9133TIP3    H248815   5.748   0.915   0.818  0.1676  0.0790 -0.0499
 9134TIP3   OH248816   0.794   0.252  11.576  0.0229 -0.5147  0.2392
 9134TIP3    H148817   0.828   0.181  11.522  3.3338  0.5842  0.7246
 9134TIP3    H248818   0.828   0.234  11.664  0.7969  1.5456  0.3949
 9135TIP3   OH248819   0.268   6.283   4.311  0.2170  0.4935  0.2673
 9135TIP3    H148820   0.263   6.330   4.228  1.1944 -0.0681 -0.1161
 9135TIP3    H248821   0.349   6.316   4.352  2.3116 -2.6841 -1.1444
 9136TIP3   OH248822   6.403   4.738  11.777  0.1218  0.2458  0.0790
 9136TIP3    H148823   6.433   4.828  11.787  0.3960  0.1586  0.0491
 9136TIP3    H248824   6.355   4.719  11.857 -0.7635  0.7420 -0.3374
 9137TIP3   OH248825   5.897   0.781  11.554  0.2766  0.1339 -0.0647
 9137TIP3    H148826   5.973   0.725  11.564  1.6000  1.9459  0.1869
 9137TIP3    H248827   5.879   0.780  11.460  0.5492 -0.3439 -0.1163
 9138TIP3   OH248828   3.321   2.407   2.147  0.1737 -0.3591  0.4072
 9138TIP3    H148829   3.228   2.425   2.134  0.3949 -0.0670 -0.7763
 9138TIP3    H248830   3.324   2.359   2.230 -0.8671  1.1171  1.3321
 9139TIP3   OH248831   1.520   2.911  13.393 -0.0620 -0.1339  0.6267
 9139TIP3    H148832   1.595   2.968  13.405  0.1183  0.2712 -2.0581
 9139TIP3    H248833   1.549   2.826  13.426  2.1031 -0.3282 -1.6232
 9140TIP3   OH248834   4.161   5.068   4.924 -0.2672  0.4454 -0.0689
 9140TIP3    H148835   4.217   5.083   5.000  0.1622 -1.1565 -0.0540
 9140TIP3    H248836   4.083   5.121   4.941 -0.4182 -0.3204  1.7765
 9141TIP3   OH248837   5.316   0.761  16.739  0.4436  0.6325 -0.2114
 9141TIP3    H148838   5.298   0.848  16.703 -0.6017  0.0606 -1.1193
 9141TIP3    H248839   5.247   0.706  16.702  1.4351 -0.7001 -0.0986
 9142TIP3   OH248840   2.618   4.749   0.588 -0.1607 -0.3938 -0.2311
 9142TIP3    H148841   2.714   4.751   0.585 -0.0805  1.8946  2.0310
 9142TIP3    H248842   2.590   4.794   0.508  0.6371 -1.3126 -1.0355
 9143TIP3   OH248843   0.368   5.133   1.919  0.1525 -0.4437 -0.0370
 9143TIP3    H148844   0.368   5.218   1.964  0.3369  0.1537 -1.1522
 9143TIP3    H248845   0.428   5.079   1.971  0.7614  0.4007  0.1620
 9144TIP3   OH248846   6.164   6.002   2.248  0.2791  0.3958 -0.1500
 9144TIP3    H148847   6.078   5.999   2.289  0.5183  0.7624  0.3835
 9144TIP3    H248848   6.211   5.927   2.284 -0.1648 -0.4083 -1.2284
 9145TIP3   OH248849   0.354   6.723   2.255 -0.3408 -0.5881  0.0926
 9145TIP3    H148850   0.306   6.755   2.331  0.0817  2.7074 -0.9694
 9145TIP3    H248851   0.426   6.671   2.292 -1.0913 -0.4087  1.8605
 9146TIP3   OH248852   4.015   4.624   0.424 -0.8153  0.0483  0.6128
 9146TIP3    H148853   4.103   4.607   0.456 -0.2420 -0.3869 -1.1705
 9146TIP3    H248854   4.013   4.719   0.409  0.0582 -0.2235 -1.3654
 9147TIP3   OH248855   5.915   6.697  11.112 -0.0837 -0.1509  0.0564
 9147TIP3    H148856   5.868   6.702  11.196 -2.3999  2.8598 -1.3162
 9147TIP3    H248857   5.859   6.643  11.057 -0.3481  0.8042 -0.6167
 9148TIP3   OH248858   2.019   4.124   5.748 -0.5990  0.2833 -0.2039
 9148TIP3    H148859   2.013   4.167   5.663  0.5774  1.2896  0.2034
 9148TIP3    H248860   2.056   4.190   5.806  0.4411 -0.9972  0.6396
 9149TIP3   OH248861   6.614   2.564  12.257  1.0557  0.6399  0.6021
 9149TIP3    H148862   6.544   2.542  12.319  0.4274  2.1571  0.4441
 9149TIP3    H248863   6.588   2.520  12.176  0.4203  0.9689  0.6226
 9150TIP3   OH248864   5.155   0.971   3.975  0.3507  0.1378 -0.0557
 9150TIP3    H148865   5.186   0.947   4.062  0.4361 -2.6338 -0.8070
 9150TIP3    H248866   5.061   0.988   3.987  0.9050  2.7108  1.0845
 9151TIP3   OH248867   1.719   2.241  13.164  0.4637  0.3098  0.2165
 9151TIP3    H148868   1.788   2.261  13.227 -1.2363  1.5436  1.7296
 9151TIP3    H248869   1.723   2.313  13.101 -0.0991  0.9289  0.8805
 9152TIP3   OH248870   3.785   2.793   0.834  0.2379  0.3406 -0.1428
 9152TIP3    H148871   3.781   2.888   0.822  0.7456  0.3412 -0.3298
 9152TIP3    H248872   3.878   2.772   0.826  0.2509 -0.0417  0.9466
 9153TIP3   OH248873   6.148   2.964   0.069 -0.1030  0.3937 -0.1052
 9153TIP3    H148874   6.141   3.059   0.060 -2.5168  0.4300  1.7711
 9153TIP3    H248875   6.091   2.943   0.143  2.0346 -2.2823  0.8601
 9154TIP3   OH248876   3.429   4.748   2.771  0.0209 -0.2832 -0.0458
 9154TIP3    H148877   3.469   4.785   2.850  1.2863  1.7264 -1.5446
 9154TIP3    H248878   3.422   4.823   2.711 -2.3422 -1.4504 -1.2720
 9155TIP3   OH248879   5.446   4.204  15.205  0.0656 -0.0987 -0.1111
 9155TIP3    H148880   5.486   4.228  15.289 -0.2020  1.5991 -0.4471
 9155TIP3    H248881   5.502   4.246  15.139 -0.4511 -0.3601 -0.7261
 9156TIP3   OH248882   5.975   0.787   6.476 -0.0564  0.3920 -0.0824
 9156TIP3    H148883   5.966   0.762   6.384 -0.2364 -0.7648  0.2379
 9156TIP3    H248884   5.966   0.705   6.524 -0.1490  1.0126  0.9807
 9157TIP3   OH248885   1.078   5.288  15.027  0.0859 -0.5658  0.0822
 9157TIP3    H148886   1.061   5.380  15.047  0.4451 -0.3505 -0.6247
 9157TIP3    H248887   1.109   5.251  15.111  0.0737 -0.0186  0.3282
 9158TIP3   OH248888   2.847   5.453  15.272  0.0514 -0.2517  0.3767
 9158TIP3    H148889   2.854   5.528  15.331 -1.1243  0.6508 -0.6139
 9158TIP3    H248890   2.929   5.455  15.221 -0.3550  0.8953 -0.2561
 9159TIP3   OH248891   3.198   3.378  16.719 -0.4865 -0.4403 -0.3443
 9159TIP3    H148892   3.251   3.326  16.779  0.9849 -0.0417 -1.2854
 9159TIP3    H248893   3.233   3.358  16.632 -0.8117  1.0539 -0.8372
 9160TIP3   OH248894   4.173   4.901  13.785  0.5591 -0.7837  0.4025
 9160TIP3    H148895   4.209   4.861  13.706 -1.0890  0.0011 -0.7899
 9160TIP3    H248896   4.091   4.854  13.800 -0.6497  1.1017 -0.1519
 9161TIP3   OH248897   5.202   4.560   1.862  0.6314 -0.1213  0.1047
 9161TIP3    H148898   5.180   4.635   1.807 -0.3500 -0.1218  0.4931
 9161TIP3    H248899   5.260   4.506   1.807 -0.4796 -0.2191 -0.9927
 9162TIP3   OH248900   6.534   0.506   1.367  0.3444  0.2402  0.0136
 9162TIP3    H148901   6.527   0.590   1.412  0.5074 -0.3190  1.1095
 9162TIP3    H248902   6.481   0.516   1.288 -0.7839  0.9072  0.8423
 9163TIP3   OH248903   2.245   3.131  11.728 -0.3744 -0.0523 -0.1399
 9163TIP3    H148904   2.321   3.138  11.786 -1.0344 -1.1684  0.8822
 9163TIP3    H248905   2.216   3.040  11.738 -0.3589 -0.3491 -2.4037
 9164TIP3   OH248906   2.014   5.511  13.501  0.1278 -0.3380  0.0011
 9164TIP3    H148907   1.998   5.473  13.587  1.1280 -1.1286 -0.1508
 9164TIP3    H248908   2.074   5.584  13.516  1.3373 -1.2744 -0.1561
 9165TIP3   OH248909   4.209   0.944  12.780 -0.5996  0.3959  0.2401
 9165TIP3    H148910   4.256   0.863  12.800  0.5563  0.4871 -1.9324
 9165TIP3    H248911   4.231   1.003  12.852 -0.7659 -0.9398  1.3953
 9166TIP3   OH248912   5.479   6.107  16.132  0.0017  0.2418  0.2420
 9166TIP3    H148913   5.392   6.067  16.126 -0.2275  0.5663  1.3788
 9166TIP3    H248914   5.536   6.035  16.158 -0.4513  0.6658  2.5253
 9167TIP3   OH248915   1.823   6.294  14.951  0.1067 -0.5671  0.3908
 9167TIP3    H148916   1.810   6.332  15.039 -1.9863 -1.6631  0.5783
 9167TIP3    H248917   1.901   6.240  14.960  0.6879  0.3770  1.2182
 9168TIP3   OH248918   3.443   3.416  13.529  0.6873  0.1760  0.2198
 9168TIP3    H148919   3.389   3.341  13.506 -1.0379  1.3812  0.1968
 9168TIP3    H248920   3.380   3.488  13.539  2.2753  1.5573  0.4428
 9169TIP3   OH248921   2.839   1.423  14.723  0.0572  0.1600 -0.3173
 9169TIP3    H148922   2.914   1.470  14.761  1.4050 -1.6840 -0.6208
 9169TIP3    H248923   2.763   1.464  14.763  1.3857 -0.9371  3.5650
 9170TIP3   OH248924   6.494   3.030   2.320 -0.3877 -0.3778  0.0033
 9170TIP3    H148925   6.576   2.982   2.329 -0.4796 -0.3327  1.0542
 9170TIP3    H248926   6.428   2.963   2.304 -0.3103 -0.4874  0.1462
 9171TIP3   OH248927   5.792   2.887  13.126  0.1532 -0.0325 -0.0962
 9171TIP3    H148928   5.790   2.844  13.040  1.0450 -0.2011 -0.0429
 9171TIP3    H248929   5.701   2.890  13.153  0.0125 -1.3472 -0.3816
 9172TIP3   OH248930   3.472   3.828   3.960 -0.1749 -0.3249 -0.4055
 9172TIP3    H148931   3.426   3.911   3.955  3.0195  1.5984  0.8696
 9172TIP3    H248932   3.493   3.806   3.870  0.1631  0.9588 -0.6437
 9173TIP3   OH248933   2.632   0.997  12.774 -0.0703 -0.4716  0.5502
 9173TIP3    H148934   2.664   1.055  12.705 -3.3082  0.2554 -0.4358
 9173TIP3    H248935   2.632   1.051  12.853  1.0634 -0.4746  0.5541
 9174TIP3   OH248936   2.698   4.693  16.380  0.3383 -0.2219 -0.3035
 9174TIP3    H148937   2.739   4.740  16.308 -0.5945 -0.7907 -1.2095
 9174TIP3    H248938   2.682   4.760  16.447  1.8198  0.1815 -0.3293
 9175TIP3   OH248939   0.602   2.986   2.111  0.3686  0.0856 -0.5241
 9175TIP3    H148940   0.581   3.027   2.195  1.4022 -1.4422  0.5301
 9175TIP3    H248941   0.693   2.957   2.121  0.5505  0.0364 -2.2353
 9176TIP3   OH248942   2.325   4.331  11.224  0.0943 -0.3489  0.0154
 9176TIP3    H148943   2.233   4.324  11.200  0.2517 -0.0026 -0.7096
 9176TIP3    H248944   2.326   4.317  11.319 -0.6827 -0.5023  0.0058
 9177TIP3   OH248945   0.050   6.349   3.455 -0.3109  0.6129 -0.2803
 9177TIP3    H148946  -0.025   6.311   3.502 -0.2542  1.1240  0.2323
 9177TIP3    H248947   0.108   6.381   3.524  1.3254 -1.5340 -0.6281
 9178TIP3   OH248948   4.224   6.707  15.236 -0.0976  0.1460 -0.0255
 9178TIP3    H148949   4.232   6.802  15.233  0.0060  0.1584  0.5786
 9178TIP3    H248950   4.213   6.686  15.328 -3.0914 -0.2020 -0.4223
 9179TIP3   OH248951   5.789   4.115  11.493 -0.1669  0.1769 -0.2202
 9179TIP3    H148952   5.728   4.123  11.419  0.5500  0.9722 -0.7277
 9179TIP3    H248953   5.828   4.202  11.501 -1.5175  0.6191  2.2160
 9180TIP3   OH248954   4.508   1.641   1.675  0.3018  0.6334  0.6959
 9180TIP3    H148955   4.503   1.545   1.672 -1.1440  0.7084  0.6095
 9180TIP3    H248956   4.544   1.661   1.762  2.6332 -0.0461 -0.0693
 9181TIP3   OH248957   1.176   5.104  15.231  0.1814 -0.3267 -0.0326
 9181TIP3    H148958   1.149   5.014  15.213  2.3328 -0.8913 -0.6066
 9181TIP3    H248959   1.173   5.111  15.327  1.5611 -1.5521  0.1209
 9182TIP3   OH248960   6.510   1.582   2.278 -0.0847  0.2879 -0.0005
 9182TIP3    H148961   6.589   1.633   2.262  0.6968 -0.8920 -0.0284
 9182TIP3    H248962   6.517   1.553   2.369  0.3001 -1.0922 -0.4440
 9183TIP3   OH248963   5.270   1.714  12.975  0.0841 -0.1367 -0.3142
 9183TIP3    H148964   5.333   1.643  12.988 -0.9673 -1.0974 -0.4564
 9183TIP3    H248965   5.216   1.714  13.054  1.1355  1.6017  0.4301
 9184TIP3   OH248966   2.569   4.518   2.656 -0.1619 -0.1217 -0.2987
 9184TIP3    H148967   2.554   4.603   2.614 -0.8068 -0.1323 -0.0827
 9184TIP3    H248968   2.665   4.511   2.661 -0.0871  2.0577  2.6632
 9185TIP3   OH248969   1.036   1.426  14.379  0.1113  1.2570  0.9676
 9185TIP3    H148970   1.095   1.432  14.304 -0.2148 -2.1689  0.3764
 9185TIP3    H248971   1.095   1.415  14.454  0.3178 -0.6497  0.5531
 9186TIP3   OH248972   3.323   6.704  16.275  0.7156 -0.1705  0.3230
 9186TIP3    H148973   3.350   6.738  16.190 -2.6841  0.8627 -0.4220
 9186TIP3    H248974   3.331   6.779  16.334 -0.1278  0.0540  0.1644
 9187TIP3   OH248975   2.251   5.750  15.590  0.0841 -0.0929 -0.0719
 9187TIP3    H148976   2.288   5.669  15.627  0.6391 -0.1180 -0.6737
 9187TIP3    H248977   2.327   5.806  15.575 -0.1951  0.1251 -0.6759
 9188TIP3   OH248978   5.490   0.139   4.726  0.0840  0.3632 -0.1449
 9188TIP3    H148979   5.421   0.086   4.687 -0.9912  1.5236  0.1579
 9188TIP3    H248980   5.544   0.076   4.774 -0.9539 -0.5042 -0.0962
 9189TIP3   OH248981   5.045   2.819  11.792  0.1543  0.4857  0.6073
 9189TIP3    H148982   5.127   2.787  11.831 -1.2624 -0.3216  3.0312
 9189TIP3    H248983   5.018   2.751  11.731 -0.3372 -0.7348  2.1674
 9190TIP3   OH248984   3.022   4.612   3.666  0.0856 -0.5667  0.2666
 9190TIP3    H148985   3.022   4.641   3.757  3.1391 -1.4152  0.5850
 9190TIP3    H248986   3.114   4.592   3.647 -0.5229 -0.5570 -2.9573
 9191TIP3   OH248987   5.747   1.624  14.594  0.2169 -0.7279 -0.2963
 9191TIP3    H148988   5.822   1.615  14.534 -0.2058  2.0810 -1.3111
 9191TIP3    H248989   5.702   1.540  14.588  1.0174 -1.0246 -2.8143
 9192TIP3   OH248990   3.978   3.593   4.569  0.3255 -0.1239  0.5669
 9192TIP3    H148991   3.968   3.510   4.614  0.1856 -0.9960 -1.0312
 9192TIP3    H248992   3.890   3.632   4.572  0.1911 -0.4252  0.5954
 9193TIP3   OH248993   3.361   5.205   0.846 -0.0135  0.0141  0.0768
 9193TIP3    H148994   3.349   5.113   0.824  1.5399 -0.1912  0.0331
 9193TIP3    H248995   3.448   5.210   0.884 -0.7357  1.2051  1.6314
 9194TIP3   OH248996   2.322   1.368   0.197 -0.3398  0.1797  0.5134
 9194TIP3    H148997   2.404   1.401   0.160 -0.2981  0.7618  1.1304
 9194TIP3    H248998   2.338   1.275   0.213 -0.7517 -0.3798 -2.0747
 9195TIP3   OH248999   4.333   1.910  14.431 -0.0979  0.1068 -0.2173
 9195TIP3    H149000   4.345   2.001  14.406  0.1619  0.4289  1.0072
 9195TIP3    H249001   4.238   1.898  14.435 -0.1362  0.6394  0.6794
 9196TIP3   OH249002   6.056   0.347   3.272  0.1321 -0.2196 -0.1245
 9196TIP3    H149003   6.102   0.299   3.342 -2.0507 -0.3360  1.2868
 9196TIP3    H249004   6.081   0.302   3.192  2.0919 -0.5699  0.6474
 9197TIP3   OH249005   3.456   5.206   1.408 -0.2399 -0.0013 -0.2906
 9197TIP3    H149006   3.472   5.299   1.418 -1.1232  0.2429 -1.0753
 9197TIP3    H249007   3.397   5.184   1.481 -1.7035  0.4911 -1.3129
 9198TIP3   OH249008   0.165   0.322  15.766  0.5949 -0.0506 -0.5655
 9198TIP3    H149009   0.175   0.408  15.726  1.3739  0.0509 -0.1577
 9198TIP3    H249010   0.182   0.260  15.695  3.2458  0.1203 -0.1271
 9199TIP3   OH249011   0.745   1.943  13.653 -0.2691  0.0299 -0.3842
 9199TIP3    H149012   0.783   2.030  13.656  0.6587 -0.4014  0.6203
 9199TIP3    H249013   0.734   1.925  13.560 -1.2006  1.5227 -0.5789
 9200TIP3   OH249014   2.703   6.201  16.334  0.3673 -0.5198  0.1499
 9200TIP3    H149015   2.714   6.222  16.241 -0.5341  0.1081  0.1790
 9200TIP3    H249016   2.634   6.135  16.336  0.9288 -1.1016  0.3161
 9201TIP3   OH249017   4.208   1.141  16.590  0.3337  0.6185 -0.0453
 9201TIP3    H149018   4.220   1.235  16.576  1.6852  0.7677  1.8926
 9201TIP3    H249019   4.275   1.099  16.535 -0.2738  0.7782 -0.9132
 9202TIP3   OH249020   2.732   0.548  12.444  0.5878  0.3848  0.0806
 9202TIP3    H149021   2.687   0.620  12.489  1.7121  0.4613  1.1052
 9202TIP3    H249022   2.736   0.478  12.509 -0.6372 -0.6734 -0.9680
 9203TIP3   OH249023   1.714   3.936  14.351 -0.3581  0.3126 -0.1794
 9203TIP3    H149024   1.678   4.005  14.294  1.1895  1.8340  0.6610
 9203TIP3    H249025   1.747   3.870  14.290  0.0615  1.3000 -1.0337
 9204TIP3   OH249026   4.398   0.561   3.241 -0.1198 -0.5063 -0.4754
 9204TIP3    H149027   4.429   0.522   3.322 -2.0377  0.7235  0.8927
 9204TIP3    H249028   4.345   0.492   3.200  1.7417 -1.5020 -1.2506
 9205TIP3   OH249029   4.172   0.792  15.320  0.4697  0.7149 -0.3041
 9205TIP3    H149030   4.080   0.768  15.314  0.7111 -0.9740  1.9488
 9205TIP3    H249031   4.215   0.738  15.254  0.1113 -0.2343  0.2149
 9206TIP3   OH249032   5.474   1.847  14.867  0.1077  0.1383  0.2458
 9206TIP3    H149033   5.568   1.829  14.864  0.4075  1.7941 -0.5495
 9206TIP3    H249034   5.452   1.842  14.960  1.4345  1.8654  0.6847
 9207TIP3   OH249035   3.438   4.270  14.888 -0.6984 -0.3092 -0.1238
 9207TIP3    H149036   3.410   4.183  14.859 -1.9924  0.0126  0.1037
 9207TIP3    H249037   3.361   4.306  14.933  0.4467  0.2023  1.4619
 9208TIP3   OH249038   6.266   1.157   0.129  0.4354  0.2354  0.1456
 9208TIP3    H149039   6.358   1.171   0.103  0.5460  0.9045  0.8953
 9208TIP3    H249040   6.242   1.236   0.175 -1.3546  1.1634 -2.2973
 9209TIP3   OH249041   5.834   3.461   3.552 -0.5690  0.3901  0.1096
 9209TIP3    H149042   5.916   3.422   3.521 -0.1931  1.0643  0.2353
 9209TIP3    H249043   5.828   3.433   3.644 -1.4434 -1.2140 -0.4173
 9210TIP3   OH249044   1.423   3.361  10.659 -0.2469  0.2896  0.0901
 9210TIP3    H149045   1.376   3.403  10.587  1.3527 -0.8373 -1.6625
 9210TIP3    H249046   1.362   3.297  10.694 -1.1667  1.0998 -0.0243
 9211TIP3   OH249047   0.396   1.297  15.234 -0.5824  0.2565  0.5371
 9211TIP3    H149048   0.325   1.239  15.259 -0.4265 -0.2097 -0.0872
 9211TIP3    H249049   0.428   1.262  15.150 -0.1721  0.9490  0.3952
 9212TIP3   OH249050   0.721   3.541  11.664 -0.3496  0.1546 -0.0167
 9212TIP3    H149051   0.749   3.488  11.589  0.2840 -1.4369  1.3207
 9212TIP3    H249052   0.770   3.622  11.655 -0.1505 -0.0843 -1.2305
 9213TIP3   OH249053   6.527   3.600  12.561  0.2626  0.5624  0.4310
 9213TIP3    H149054   6.601   3.551  12.524 -0.9809 -3.0650  2.5048
 9213TIP3    H249055   6.554   3.620  12.650 -0.9692 -0.1869  0.9790
 9214TIP3   OH249056   1.833   4.645  12.405  0.0141 -0.2108 -0.1780
 9214TIP3    H149057   1.816   4.677  12.316 -1.1273 -2.1210 -0.6777
 9214TIP3    H249058   1.821   4.551  12.399 -3.7258 -0.0178  2.8336
 9215TIP3   OH249059   2.233   1.667   5.747  0.6488 -0.1624  0.4891
 9215TIP3    H149060   2.246   1.761   5.738  0.9605 -0.2607 -0.0857
 9215TIP3    H249061   2.274   1.645   5.830  0.0075  0.3150  0.9374
 9216TIP3   OH249062   1.538   6.682   2.125 -0.0224  0.1392  0.6189
 9216TIP3    H149063   1.492   6.662   2.207  1.9858 -1.5900  1.3847
 9216TIP3    H249064   1.551   6.596   2.084 -0.0286  0.8951 -0.9765
 9217TIP3   OH249065   4.216   0.325  15.197  0.5195 -0.2054 -0.0812
 9217TIP3    H149066   4.301   0.364  15.174  0.6811 -0.2560  0.4222
 9217TIP3    H249067   4.155   0.361  15.133  0.8383  0.1775 -0.1729
 9218TIP3   OH249068   6.690   3.122   2.174 -0.2777  0.6428  0.3900
 9218TIP3    H149069   6.628   3.156   2.239 -1.1145  3.4587 -1.7373
 9218TIP3    H249070   6.776   3.145   2.208 -0.7482  3.0249  0.1029
 9219TIP3   OH249071   1.237   4.313  15.010 -0.4179  0.2954 -0.6526
 9219TIP3    H149072   1.293   4.326  15.086  1.5349  0.5554 -2.0776
 9219TIP3    H249073   1.152   4.286  15.046  0.9605 -1.2849  1.5375
 9220TIP3   OH249074   5.558   3.049   5.051 -0.5051 -0.2326  0.2553
 9220TIP3    H149075   5.516   3.029   5.134 -1.3923 -1.0993 -0.3978
 9220TIP3    H249076   5.519   3.132   5.023 -0.2076  0.0566  0.6960
 9221TIP3   OH249077   3.888   1.391  16.514 -0.1188  0.2447 -0.8260
 9221TIP3    H149078   3.878   1.375  16.608  2.2741  1.2870 -0.3340
 9221TIP3    H249079   3.832   1.466  16.496  1.5672  1.8510  0.4125
 9222TIP3   OH249080   6.013   5.870   4.240 -0.1106 -0.5935  0.2459
 9222TIP3    H149081   5.929   5.851   4.283 -0.4806 -0.4021 -0.3764
 9222TIP3    H249082   5.988   5.894   4.151  0.5669  0.0535  0.2320
 9223TIP3   OH249083   5.987   0.539  15.763 -0.0423 -0.3326  0.5749
 9223TIP3    H149084   5.983   0.460  15.817  0.6547 -1.9539 -1.6763
 9223TIP3    H249085   5.914   0.530  15.702 -0.1594  0.9276  0.5204
 9224TIP3   OH249086   5.074   0.311   3.542  0.5443  0.6521  0.5894
 9224TIP3    H149087   5.158   0.269   3.521 -0.8045 -1.5983 -0.4599
 9224TIP3    H249088   5.089   0.353   3.627  2.4457 -0.5453  0.8766
 9225TIP3   OH249089   5.428   0.921   0.599 -0.0665 -0.2724  0.3482
 9225TIP3    H149090   5.485   0.982   0.551  1.0554 -2.5890 -1.3447
 9225TIP3    H249091   5.383   0.976   0.663  0.5977  2.4127 -1.4047
 9226TIP3   OH249092   0.259   2.391   5.988 -0.2828  0.2099  0.4169
 9226TIP3    H149093   0.204   2.392   6.066  0.4036  2.1650  0.9006
 9226TIP3    H249094   0.347   2.406   6.021  0.1955 -0.3059 -0.6100
 9227TIP3   OH249095   6.438   1.403  11.911 -0.2517  0.0139 -0.0392
 9227TIP3    H149096   6.353   1.406  11.865 -0.5823  1.7831  0.6585
 9227TIP3    H249097   6.430   1.329  11.970 -0.6068 -0.9991 -1.3178
 9228TIP3   OH249098   0.108   5.071   0.103 -0.1401  0.5287 -0.0961
 9228TIP3    H149099   0.042   5.007   0.077 -0.3566  1.2938 -1.4342
 9228TIP3    H249100   0.179   5.061   0.039  0.8310  0.0618  1.0317
 9229TIP3   OH249101   2.028   3.123   2.333  0.1368 -0.4340  0.3924
 9229TIP3    H149102   2.072   3.161   2.257 -0.9579 -0.4202 -0.2395
 9229TIP3    H249103   2.088   3.140   2.406  0.6903  0.5259 -0.2706
 9230TIP3   OH249104   4.711   2.138   3.444  0.6066 -0.1155  0.0690
 9230TIP3    H149105   4.629   2.141   3.395  0.6018 -1.3423  0.0043
 9230TIP3    H249106   4.778   2.161   3.380  0.1843  2.2894  0.4428
 9231TIP3   OH249107   4.324   1.297  11.125 -0.5736  0.2409 -0.0350
 9231TIP3    H149108   4.303   1.220  11.179  2.4886  1.0245  2.4082
 9231TIP3    H249109   4.414   1.283  11.096 -0.6419  1.9864 -1.1816
 9232TIP3   OH249110   6.196   0.883  12.260  0.7393 -0.4425 -0.5715
 9232TIP3    H149111   6.135   0.902  12.189  1.1728 -0.4640 -0.9569
 9232TIP3    H249112   6.173   0.945  12.329 -0.9198 -1.7059  0.0179
 9233TIP3   OH249113   1.267   5.472   2.505  0.1093 -0.2302 -0.0867
 9233TIP3    H149114   1.296   5.445   2.592 -0.7687 -3.4194 -0.7342
 9233TIP3    H249115   1.347   5.484   2.455  0.5336 -1.0113  0.4082
 9234TIP3   OH249116   2.494   6.074  16.796 -0.5360  0.3463  0.0920
 9234TIP3    H149117   2.414   6.080  16.847  0.0899  0.0956  1.1027
 9234TIP3    H249118   2.561   6.047  16.858  0.7341  2.4123 -0.3423
 9235TIP3   OH249119   2.711   2.940  11.358 -0.2675 -0.4801 -0.3969
 9235TIP3    H149120   2.750   2.869  11.307  2.2853 -0.7703  1.8786
 9235TIP3    H249121   2.779   3.007  11.363 -0.6647 -0.2037  2.0554
 9236TIP3   OH249122   4.106   1.780  13.736  0.3758  0.3225 -0.2622
 9236TIP3    H149123   4.117   1.698  13.689 -0.2920  0.4662 -0.6851
 9236TIP3    H249124   4.066   1.755  13.819  0.7716  0.1511 -0.1271
 9237TIP3   OH249125   1.337   3.378  15.492 -0.4967 -0.8117 -0.4861
 9237TIP3    H149126   1.321   3.424  15.410  0.6334  0.5258  0.0252
 9237TIP3    H249127   1.423   3.337  15.480  0.0254  0.0302  0.2991
 9238TIP3   OH249128   2.164   5.158   0.066  0.3616 -0.4299 -0.8164
 9238TIP3    H149129   2.239   5.120   0.112  1.4637  0.6255 -1.6892
 9238TIP3    H249130   2.180   5.253   0.071 -1.4102 -0.1560 -0.1950
 9239TIP3   OH249131   5.652   2.615   1.078 -0.6086  0.3715 -0.0519
 9239TIP3    H149132   5.606   2.551   1.024 -0.8135 -0.0520  0.6236
 9239TIP3    H249133   5.736   2.627   1.034 -0.7655  0.0139 -0.4540
 9240TIP3   OH249134   3.597   6.389   3.928  0.3927 -0.5009 -0.3092
 9240TIP3    H149135   3.569   6.475   3.961  0.6012 -0.5611  0.0331
 9240TIP3    H249136   3.521   6.332   3.942  0.4245 -0.4877 -0.0792
 9241TIP3   OH249137   5.520   6.152  15.237 -0.3180 -0.2814  0.4527
 9241TIP3    H149138   5.496   6.236  15.197  1.3646  0.1478  0.3050
 9241TIP3    H249139   5.439   6.120  15.276 -1.3480  0.6544 -0.8582
 9242TIP3   OH249140   0.567   1.543   3.358  0.4276  0.0656 -0.4181
 9242TIP3    H149141   0.606   1.494   3.431  1.6637  0.6444 -0.6667
 9242TIP3    H249142   0.642   1.580   3.312 -0.4705  2.4206 -0.0733
 9243TIP3   OH249143   5.032   1.611   5.046 -0.7448  0.2014  0.1408
 9243TIP3    H149144   4.957   1.661   5.014 -0.2072 -0.7231 -2.6714
 9243TIP3    H249145   5.097   1.618   4.977  0.8112 -1.1420  1.4239
 9244TIP3   OH249146   5.315   6.176   4.806 -0.1468  0.4564 -0.2238
 9244TIP3    H149147   5.259   6.105   4.774 -1.3621  1.4008 -0.2398
 9244TIP3    H249148   5.253   6.245   4.831  0.9166  0.6625  1.8849
 9245TIP3   OH249149   1.248   5.261  12.168 -0.0322 -0.1781 -0.0524
 9245TIP3    H149150   1.334   5.235  12.202 -0.1339 -1.2625 -0.6001
 9245TIP3    H249151   1.223   5.336  12.222  1.0474 -0.1459  0.4268
 9246TIP3   OH249152   2.523   1.571  11.579 -0.1658 -0.0334 -0.0356
 9246TIP3    H149153   2.536   1.662  11.552 -0.4602 -0.2658 -0.9806
 9246TIP3    H249154   2.476   1.531  11.506  3.2867 -1.9111 -1.3227
 9247TIP3   OH249155   2.152   5.867   1.269 -0.2535 -0.0328  0.2258
 9247TIP3    H149156   2.246   5.883   1.276  0.7323 -2.8787 -4.4078
 9247TIP3    H249157   2.135   5.799   1.334  0.9624  0.1083  0.7195
 9248TIP3   OH249158   4.619   6.218  13.768 -0.9396  0.2599  0.3423
 9248TIP3    H149159   4.667   6.290  13.726 -0.3305 -1.1946 -1.5240
 9248TIP3    H249160   4.649   6.219  13.859  1.4801  0.3600 -0.4318
 9249TIP3   OH249161   6.770   3.372   1.596  0.1860 -0.3683  0.3021
 9249TIP3    H149162   6.786   3.278   1.602  0.6621 -0.2364  1.2005
 9249TIP3    H249163   6.744   3.397   1.685  0.6074  0.4490  0.1933
 9250TIP3   OH249164   4.635   2.500  15.493 -0.4302 -0.1938  0.1182
 9250TIP3    H149165   4.579   2.549  15.433 -1.0283 -0.1160  0.7262
 9250TIP3    H249166   4.655   2.562  15.563  1.7041  0.2718 -0.8578
 9251TIP3   OH249167   5.967   5.703  14.679 -0.2729  0.5721  0.5443
 9251TIP3    H149168   5.967   5.625  14.734  0.7190  0.1418 -0.0617
 9251TIP3    H249169   5.894   5.690  14.618 -1.1224  0.8668  1.4852
 9252TIP3   OH249170   0.539   1.158  11.885  0.0185  0.1058 -0.1295
 9252TIP3    H149171   0.535   1.252  11.903 -1.4307 -0.1701  1.1351
 9252TIP3    H249172   0.460   1.140  11.834  0.2234 -0.4409 -0.2585
 9253TIP3   OH249173   2.619   2.633   1.866  0.3891 -0.0039  0.2190
 9253TIP3    H149174   2.524   2.628   1.871  0.3658  0.0915 -0.1025
 9253TIP3    H249175   2.642   2.715   1.909  0.2630  0.3824 -0.4482
 9254TIP3   OH249176   4.069   1.143   3.373  0.6279  0.1029 -0.1274
 9254TIP3    H149177   4.129   1.124   3.444 -0.2834 -0.5147  0.4850
 9254TIP3    H249178   4.050   1.058   3.334  0.1483  0.2933 -0.3112
 9255TIP3   OH249179   6.460   4.744   5.962  0.1408  0.0922 -0.2717
 9255TIP3    H149180   6.553   4.753   5.984  0.5146  0.8476 -2.0391
 9255TIP3    H249181   6.414   4.777   6.039  1.3373 -0.5037  0.7129
 9256TIP3   OH249182   3.129   3.147  12.815 -0.0098  0.6028  0.5618
 9256TIP3    H149183   3.051   3.162  12.762  0.0857  1.5305  0.6711
 9256TIP3    H249184   3.186   3.222  12.795  1.2360 -0.5217 -0.2133
 9257TIP3   OH249185   6.710   0.929   0.859  0.2264  0.7096 -0.0576
 9257TIP3    H149186   6.635   0.988   0.863 -0.1072  0.5081 -2.5327
 9257TIP3    H249187   6.731   0.922   0.766  2.0606 -0.8237  0.4210
 9258TIP3   OH249188   0.166   1.472  15.334 -0.0094  0.0894  0.3931
 9258TIP3    H149189   0.153   1.399  15.395  0.8450  1.4292  2.2484
 9258TIP3    H249190   0.078   1.499  15.309 -0.3648 -0.6056  0.8766
 9259TIP3   OH249191   3.527   2.240  16.699 -0.1286 -0.1580 -0.4208
 9259TIP3    H149192   3.583   2.212  16.627 -0.8493  1.5893 -1.7073
 9259TIP3    H249193   3.581   2.301  16.750 -0.8039  1.5002 -1.6427
 9260TIP3   OH249194   3.858   4.727   2.613  0.1144  0.6726 -0.9535
 9260TIP3    H149195   3.864   4.656   2.676  1.1550  0.4384 -1.3183
 9260TIP3    H249196   3.771   4.716   2.573  0.6113 -0.9195 -1.6381
 9261TIP3   OH249197   5.035   0.556  10.495  0.5991 -0.2366 -0.4747
 9261TIP3    H149198   5.062   0.573  10.405 -1.3315 -1.8173 -1.3948
 9261TIP3    H249199   4.974   0.483  10.488  0.2896 -0.2623  2.1067
 9262TIP3   OH249200   2.549   4.365   2.360  0.4243  0.0359 -0.7807
 9262TIP3    H149201   2.480   4.314   2.403 -0.3982 -0.4377 -2.6160
 9262TIP3    H249202   2.595   4.408   2.432 -2.3631  1.0764  0.4670
 9263TIP3   OH249203   0.706   4.211  15.100 -0.1473 -0.0576  0.4635
 9263TIP3    H149204   0.705   4.285  15.160  0.4980 -0.1956  0.6494
 9263TIP3    H249205   0.795   4.210  15.064 -0.6076  0.1777 -0.6921
 9264TIP3   OH249206   5.251   4.433  12.241 -0.2338  0.0154 -0.1212
 9264TIP3    H149207   5.239   4.375  12.166 -2.5870  1.3258 -0.7967
 9264TIP3    H249208   5.228   4.380  12.317 -0.3366 -0.5613 -0.5563
 9265TIP3   OH249209   2.235   5.082  12.269  0.2891 -0.4997  0.2181
 9265TIP3    H149210   2.263   5.092  12.178  1.7740  0.6780  0.7808
 9265TIP3    H249211   2.256   5.167  12.310 -0.0647 -1.1220  1.7245
 9266TIP3   OH249212   5.343   4.539   4.429 -0.0894 -0.9572  0.2576
 9266TIP3    H149213   5.311   4.509   4.345 -0.0829 -0.9979  0.2698
 9266TIP3    H249214   5.418   4.482   4.448 -0.5626 -1.4522  0.6521
 9267TIP3   OH249215   5.843   4.061   6.141 -0.0387  0.0532  0.0889
 9267TIP3    H149216   5.884   4.108   6.214 -0.3863  2.8493 -1.4325
 9267TIP3    H249217   5.908   4.064   6.071 -1.2570  0.9910 -1.0285
 9268TIP3   OH249218   2.808   5.753   4.457  0.3356  0.0131 -0.0443
 9268TIP3    H149219   2.732   5.792   4.498 -1.0245 -0.4274 -2.0709
 9268TIP3    H249220   2.882   5.778   4.513 -1.2161  0.9026  1.6222
 9269TIP3   OH249221   1.298   3.586  16.995  0.1097  0.3293  0.3354
 9269TIP3    H149222   1.323   3.494  17.003 -1.0997  0.0009  0.3437
 9269TIP3    H249223   1.282   3.599  16.901 -2.4456 -0.1947  0.6698
 9270TIP3   OH249224   5.500   3.575   0.806 -0.7775 -0.1170  0.1765
 9270TIP3    H149225   5.521   3.506   0.870 -2.3143 -0.9482 -0.2032
 9270TIP3    H249226   5.409   3.597   0.824 -0.8567  0.4784 -0.9578
 9271TIP3   OH249227   0.476   5.166  13.801  0.5028 -0.2887  0.0184
 9271TIP3    H149228   0.513   5.254  13.800  1.1605 -0.5623 -1.2501
 9271TIP3    H249229   0.551   5.109  13.820  0.4913 -0.7313 -1.1947
 9272TIP3   OH249230   1.727   3.718  11.474  0.1023 -0.1187  0.5186
 9272TIP3    H149231   1.777   3.800  11.475 -0.2729  0.1473  3.1415
 9272TIP3    H249232   1.789   3.652  11.504  0.8646 -1.1541 -3.1363
 9273TIP3   OH249233   3.979   6.773   5.401 -0.2084 -0.3997 -0.1052
 9273TIP3    H149234   4.056   6.826   5.381  0.4723 -1.2972  0.1207
 9273TIP3    H249235   3.929   6.771   5.320 -0.0863  0.3399 -0.1977
 9274TIP3   OH249236   4.971   1.175  12.620  0.4541  0.8291 -0.2604
 9274TIP3    H149237   5.012   1.234  12.684 -1.3535  0.2399  1.5047
 9274TIP3    H249238   5.016   1.091  12.632 -0.0518  0.6499  0.4552
 9275TIP3   OH249239   3.241   5.582  13.280  0.0957  0.3657  0.4892
 9275TIP3    H149240   3.275   5.526  13.211  1.5173  1.6462  0.1451
 9275TIP3    H249241   3.204   5.657  13.235 -0.4286  0.4458  1.0379
 9276TIP3   OH249242   0.035   4.960  15.952  0.1471 -0.2250 -0.5754
 9276TIP3    H149243  -0.013   5.042  15.962 -0.6551 -0.6355 -0.9856
 9276TIP3    H249244   0.127   4.987  15.942  0.0981  0.5293  0.8862
 9277TIP3   OH249245   5.964   3.584  14.138  0.0698  0.6896  0.5447
 9277TIP3    H149246   5.935   3.569  14.228  1.1002  0.7185  0.8887
 9277TIP3    H249247   6.002   3.672  14.139 -0.4212  0.9111 -0.0474
 9278TIP3   OH249248   2.078   0.650   1.639  0.9449  0.3147  0.3830
 9278TIP3    H149249   2.150   0.588   1.652 -0.0448 -0.4443  2.3684
 9278TIP3    H249250   2.014   0.601   1.588  0.9449  0.3039  0.3934
 9279TIP3   OH249251   4.372   2.082   2.472  0.2517 -0.2286  0.4641
 9279TIP3    H149252   4.282   2.113   2.478  0.0048 -0.8255 -0.0517
 9279TIP3    H249253   4.364   1.992   2.440  1.1977  1.1848 -4.1145
 9280TIP3   OH249254   4.045   1.126  14.863  0.1752 -0.0506 -0.1670
 9280TIP3    H149255   3.952   1.115  14.882 -0.5793  1.5000 -2.7073
 9280TIP3    H249256   4.075   1.040  14.836 -0.8668 -0.2412 -0.7197
 9281TIP3   OH249257   5.162   5.760  12.511 -0.0073  0.0608 -0.0321
 9281TIP3    H149258   5.119   5.819  12.450 -1.9852  1.0681  2.2637
 9281TIP3    H249259   5.139   5.672  12.480 -0.7881  0.5504 -0.8514
 9282TIP3   OH249260   1.875   0.289  15.525 -0.5628 -0.5730 -0.3305
 9282TIP3    H149261   1.834   0.367  15.487  0.4209 -0.6053 -1.5053
 9282TIP3    H249262   1.813   0.259  15.590 -0.9732  1.1854  0.1232
 9283TIP3   OH249263   6.704   1.799   6.256 -0.2305  0.5719 -0.6931
 9283TIP3    H149264   6.676   1.765   6.171 -1.8877 -0.7723  0.3749
 9283TIP3    H249265   6.702   1.724   6.314  0.2465  1.6144  0.7037
 9284TIP3   OH249266   5.928   4.675  12.531  0.3772 -0.2594  0.1736
 9284TIP3    H149267   5.833   4.668  12.524  0.2486  1.0311  0.5923
 9284TIP3    H249268   5.961   4.602  12.479 -0.7997  0.2903 -1.3636
 9285TIP3   OH249269   3.414   6.081   1.558 -0.3303  0.1740 -0.1601
 9285TIP3    H149270   3.362   6.002   1.544  1.0158 -0.7907  0.3166
 9285TIP3    H249271   3.352   6.153   1.541 -1.6247 -0.9616 -0.3148
 9286TIP3   OH249272   0.353   3.221  14.536 -0.3303 -0.4139  0.3627
 9286TIP3    H149273   0.269   3.213  14.581 -0.4291 -0.4348  0.1743
 9286TIP3    H249274   0.345   3.164  14.460  0.1345 -1.0044  0.7594
 9287TIP3   OH249275   4.033   1.130  13.625 -0.1249 -0.0098  0.3060
 9287TIP3    H149276   4.010   1.212  13.582 -2.2113 -0.5760  0.2915
 9287TIP3    H249277   3.972   1.124  13.699  0.2136 -1.3922  0.4882
 9288TIP3   OH249278   6.113   3.386   5.344  0.2582  0.7747  0.7948
 9288TIP3    H149279   6.194   3.432   5.367  0.4453  0.4049  0.8821
 9288TIP3    H249280   6.063   3.449   5.292  0.7841  0.8548  0.3883
 9289TIP3   OH249281   3.821   0.349  13.776  0.0299 -0.6082 -0.1602
 9289TIP3    H149282   3.741   0.324  13.823  0.6240 -2.0143  0.1229
 9289TIP3    H249283   3.867   0.266  13.762  0.5607 -0.0215 -1.9316
 9290TIP3   OH249284   0.187   1.622  16.702 -0.2594  0.0783  0.4644
 9290TIP3    H149285   0.165   1.574  16.622 -0.6262  1.2159 -0.1409
 9290TIP3    H249286   0.141   1.706  16.692  1.8015  1.2712  0.6486
 9291TIP3   OH249287   6.092   4.644  13.651  0.1848 -0.4213 -0.0940
 9291TIP3    H149288   6.083   4.714  13.587 -0.0951 -1.0492 -0.7467
 9291TIP3    H249289   6.002   4.625  13.678  0.2375 -0.7399 -0.1449
 9292TIP3   OH249290   0.024   1.559   3.343 -0.2912  0.3291  0.2250
 9292TIP3    H149291  -0.027   1.634   3.374 -0.7459  0.4466 -0.7908
 9292TIP3    H249292   0.044   1.510   3.422  1.2018  2.2473  1.0837
 9293TIP3   OH249293   5.858   1.534   5.310 -0.2219  0.5707 -0.2929
 9293TIP3    H149294   5.874   1.478   5.234 -0.6485  1.6302 -1.1594
 9293TIP3    H249295   5.766   1.520   5.332  0.0932 -0.3243  0.5230
 9294TIP3   OH249296   2.713   0.278  13.133  0.2455  0.5557  0.1723
 9294TIP3    H149297   2.692   0.321  13.049  0.4143 -0.9023 -0.6291
 9294TIP3    H249298   2.631   0.284  13.183  0.1084  1.3481 -0.1350
 9295TIP3   OH249299   3.768   2.484  13.603  0.6473  0.6024 -0.3492
 9295TIP3    H149300   3.851   2.477  13.557  0.5071 -0.5955 -0.4290
 9295TIP3    H249301   3.703   2.494  13.534  0.3920 -1.6030 -0.4545
 9296TIP3   OH249302   1.409   4.106  11.639 -0.0545 -0.2965 -0.8012
 9296TIP3    H149303   1.455   4.160  11.575  0.5585  0.3200  0.1366
 9296TIP3    H249304   1.439   4.140  11.724 -0.9615 -1.0034 -0.1960
 9297TIP3   OH249305   1.194   2.003  13.705  0.0159 -0.2471  0.7112
 9297TIP3    H149306   1.158   2.043  13.784 -1.9316 -0.1877 -0.1612
 9297TIP3    H249307   1.168   1.911  13.711  1.3660 -0.6134  0.9757
 9298TIP3   OH249308   3.545   0.646  11.293 -0.2519 -0.0088 -0.0023
 9298TIP3    H149309   3.615   0.593  11.330  0.1918 -0.0746 -0.9222
 9298TIP3    H249310   3.540   0.620  11.201 -0.8318  0.6822 -0.1783
 9299TIP3   OH249311   3.431   4.856  11.702  1.0500 -0.5813 -0.0900
 9299TIP3    H149312   3.431   4.948  11.679  0.1495 -0.9518 -1.6023
 9299TIP3    H249313   3.347   4.841  11.745  1.3754 -0.6102  0.5485
 9300TIP3   OH249314   2.419   2.905  11.366  0.1300 -0.6717  0.2016
 9300TIP3    H149315   2.473   2.926  11.291 -0.8975 -0.5813 -0.5219
 9300TIP3    H249316   2.445   2.969  11.433  0.8637 -0.5950 -0.1486
 9301TIP3   OH249317   5.152   0.065  17.053  0.3462  0.2804  0.1667
 9301TIP3    H149318   5.175   0.157  17.039  2.1430 -0.2521 -0.5746
 9301TIP3    H249319   5.180   0.021  16.973 -0.4857 -0.9226  0.5221
 9302TIP3   OH249320   3.466   2.409   3.896 -0.0850  1.2323 -0.4885
 9302TIP3    H149321   3.448   2.415   3.990  1.2121  2.3156 -0.2985
 9302TIP3    H249322   3.427   2.325   3.870 -0.1793  0.7703  1.0761
 9303TIP3   OH249323   3.295   5.884   4.206 -0.6185 -0.5745  0.0009
 9303TIP3    H149324   3.304   5.789   4.217  1.9926 -0.4308 -0.4601
 9303TIP3    H249325   3.332   5.901   4.119  0.6250  1.0701  0.8223
 9304TIP3   OH249326   0.068   3.567   2.517 -0.2081 -0.2579  0.1222
 9304TIP3    H149327   0.093   3.547   2.427 -2.8167 -0.3642 -0.6160
 9304TIP3    H249328   0.097   3.657   2.531  0.2034 -0.2405 -0.8303
 9305TIP3   OH249329   0.869   4.193   3.729 -0.0121 -0.1750 -0.2806
 9305TIP3    H149330   0.841   4.255   3.661  2.8414  1.4406 -0.0370
 9305TIP3    H249331   0.893   4.114   3.681  0.8599  0.5470 -1.0481
 9306TIP3   OH249332   1.902   3.149  15.716  0.1547 -0.0196 -0.2954
 9306TIP3    H149333   1.807   3.162  15.718 -0.0175 -1.1802 -0.5265
 9306TIP3    H249334   1.916   3.068  15.766  1.2090  1.1948  1.4584
 9307TIP3   OH249335   2.407   4.403   1.420  0.3606  0.2885 -0.1000
 9307TIP3    H149336   2.491   4.448   1.424  0.5067  0.1072 -1.0846
 9307TIP3    H249337   2.354   4.455   1.360 -0.3911  0.6627  0.8762
 9308TIP3   OH249338   2.168   4.052  12.172 -0.7641 -0.0083 -0.3189
 9308TIP3    H149339   2.185   3.971  12.220 -1.3188 -0.5625 -1.0638
 9308TIP3    H249340   2.253   4.076  12.134 -0.1705  0.7455  1.3806
 9309TIP3   OH249341   4.998   4.709   4.756  0.1532  0.1842 -0.3841
 9309TIP3    H149342   5.072   4.665   4.713  1.7687  1.9934  0.4617
 9309TIP3    H249343   5.024   4.802   4.758 -0.9650  0.4679  2.2728
 9310TIP3   OH249344   6.588   0.023   1.250 -0.1216  0.3086 -0.3685
 9310TIP3    H149345   6.566   0.061   1.335 -0.9859  0.1280 -0.5040
 9310TIP3    H249346   6.632  -0.059   1.270 -1.1414 -0.1788 -0.0954
 9311TIP3   OH249347   4.240   2.741   3.564  0.1464 -0.0050 -0.4632
 9311TIP3    H149348   4.146   2.726   3.572  0.2760 -0.4361  0.2608
 9311TIP3    H249349   4.280   2.669   3.612  0.8483  0.2429 -0.6709
 9312TIP3   OH249350   2.354   3.941  14.573  0.0271 -0.3552 -0.0941
 9312TIP3    H149351   2.310   3.886  14.638 -2.3043  0.8240 -0.6436
 9312TIP3    H249352   2.384   4.017  14.623 -1.9329  0.6422 -0.3875
 9313TIP3   OH249353   6.738   1.160  11.136  0.1731 -0.4258 -0.0625
 9313TIP3    H149354   6.664   1.198  11.183  0.6969  0.4707  0.0535
 9313TIP3    H249355   6.706   1.076  11.105 -1.1820  0.3252 -0.7563
 9314TIP3   OH249356   4.672   4.817   2.085  0.6860 -0.1410  0.2010
 9314TIP3    H149357   4.647   4.885   2.148  1.6893  1.1710 -0.7813
 9314TIP3    H249358   4.754   4.781   2.118  0.9802  0.2382 -0.1052
 9315TIP3   OH249359   1.762   4.721  15.286  0.0804  0.0617 -0.3879
 9315TIP3    H149360   1.684   4.733  15.340  0.3902 -0.4552  0.1915
 9315TIP3    H249361   1.755   4.787  15.218 -0.3029  0.7471  0.3113
 9316TIP3   OH249362   3.913   3.518   5.539  0.1201  0.6017 -0.1168
 9316TIP3    H149363   3.989   3.513   5.597  1.9330 -0.1617 -2.5014
 9316TIP3    H249364   3.840   3.486   5.592  1.6188  0.5008  1.9236
 9317TIP3   OH249365   4.968   5.551   4.893 -0.2299 -0.3155  0.3761
 9317TIP3    H149366   5.012   5.566   4.977  1.0188 -0.9585 -0.1635
 9317TIP3    H249367   4.916   5.631   4.880  1.7964  1.0375  0.3729
 9318TIP3   OH249368   3.534   5.361  14.568  0.2301 -0.0762 -0.6171
 9318TIP3    H149369   3.499   5.305  14.637  0.2646 -0.2367 -0.7307
 9318TIP3    H249370   3.458   5.387  14.517  0.3584 -1.0319 -1.3127
 9319TIP3   OH249371   5.278   6.061  10.828 -0.4470 -0.0246  0.0689
 9319TIP3    H149372   5.294   6.090  10.739  1.0009 -0.5138  0.1659
 9319TIP3    H249373   5.315   5.973  10.832  1.3444  0.7651  1.7126
 9320TIP3   OH249374   1.029   5.731   2.897  0.7380  0.1244 -0.0558
 9320TIP3    H149375   0.971   5.668   2.938  0.9166  1.0352  1.6238
 9320TIP3    H249376   0.985   5.815   2.908 -0.6228  0.0845 -4.2831
 9321TIP3   OH249377   6.499   0.612  16.651 -0.0308  0.3920  0.5099
 9321TIP3    H149378   6.484   0.666  16.729  2.0437 -0.9895  1.9283
 9321TIP3    H249379   6.503   0.523  16.685  0.7666 -0.2266 -1.1879
 9322TIP3   OH249380   4.749   3.499   1.026 -0.5123 -1.2234  0.2444
 9322TIP3    H149381   4.837   3.532   1.046 -0.7406 -1.1125  1.0955
 9322TIP3    H249382   4.763   3.415   0.983 -0.0373 -2.3875  2.6234
 9323TIP3   OH249383   6.169   5.860  11.414  0.5515 -0.3555  0.9313
 9323TIP3    H149384   6.087   5.845  11.368  2.3643 -3.1805 -1.5769
 9323TIP3    H249385   6.225   5.904  11.349  1.0674  1.5188  2.5950
 9324TIP3   OH249386   2.353   2.765   5.290  0.4744 -0.4637 -1.2640
 9324TIP3    H149387   2.334   2.737   5.379 -2.4118  1.4486 -1.2189
 9324TIP3    H249388   2.367   2.859   5.296  1.0741 -0.4335 -2.7220
 9325TIP3   OH249389   1.032   4.235  11.135  0.1448  0.4616  0.4635
 9325TIP3    H149390   1.050   4.193  11.051 -2.8385  0.4955 -0.2450
 9325TIP3    H249391   1.119   4.257  11.170  1.4834 -0.7545 -1.9659
 9326TIP3   OH249392   0.047   0.156  11.689 -0.3797 -0.4557  0.3717
 9326TIP3    H149393   0.128   0.203  11.671 -0.2800 -1.2352 -1.2811
 9326TIP3    H249394   0.029   0.174  11.781  2.4794 -1.4726  1.1696
 9327TIP3   OH249395   3.352   1.385   1.053  0.3281 -0.0963 -0.0462
 9327TIP3    H149396   3.336   1.315   1.116 -0.7801  0.4078  0.2419
 9327TIP3    H249397   3.420   1.350   0.995 -0.1174 -1.3429  0.1728
 9328TIP3   OH249398   6.644   0.519  15.085  0.6408 -0.3602  0.3456
 9328TIP3    H149399   6.645   0.515  14.990  2.4863  0.1250  0.3358
 9328TIP3    H249400   6.654   0.612  15.105 -1.3632 -0.2599  1.0113
 9329TIP3   OH249401   6.778   5.330  12.458 -0.8281 -0.1716 -0.1865
 9329TIP3    H149402   6.804   5.248  12.500 -1.5041 -0.0076  0.5552
 9329TIP3    H249403   6.737   5.381  12.527 -0.6076  0.7122 -0.6977
 9330TIP3   OH249404   1.825   4.424  11.354 -0.5365 -0.8801  0.5062
 9330TIP3    H149405   1.797   4.510  11.321 -1.2050 -1.3848 -0.2610
 9330TIP3    H249406   1.861   4.442  11.441 -1.3585  0.0749  0.6577
 9331TIP3   OH249407   5.278   5.050   6.350 -0.0018  0.4290 -0.0679
 9331TIP3    H149408   5.293   4.966   6.307 -0.5011  0.4367 -0.2531
 9331TIP3    H249409   5.234   5.027   6.433  0.5886  0.4451  0.2523
 9332TIP3   OH249410   2.117   1.437  12.454 -0.2746 -0.1415 -0.3371
 9332TIP3    H149411   2.039   1.462  12.403 -0.3870 -1.0099 -0.6043
 9332TIP3    H249412   2.102   1.346  12.478 -1.2558  0.8697  3.1995
 9333TIP3   OH249413   1.318   4.704  13.034  0.0387 -0.4578 -0.7052
 9333TIP3    H149414   1.337   4.623  12.987  1.3107  0.3104 -1.5495
 9333TIP3    H249415   1.242   4.684  13.088  0.2802 -2.1770 -0.9948
 9334TIP3   OH249416   4.722   1.214   1.277 -0.0434  0.0049  0.2751
 9334TIP3    H149417   4.687   1.299   1.305 -0.8390 -0.8432  1.9601
 9334TIP3    H249418   4.800   1.202   1.331  0.9313  0.3387 -1.0430
 9335TIP3   OH249419   6.688   0.494  12.972 -0.8428 -0.4216  0.8647
 9335TIP3    H149420   6.604   0.499  12.926 -0.7223  1.0665  0.7694
 9335TIP3    H249421   6.665   0.476  13.063 -1.1120 -2.7714  0.3593
 9336TIP3   OH249422   2.480   3.668   3.348 -0.0189  0.2634  0.1086
 9336TIP3    H149423   2.427   3.593   3.372  1.4206 -0.7795  0.1167
 9336TIP3    H249424   2.467   3.678   3.253  0.9849 -0.9860 -0.1790
 9337TIP3   OH249425   6.586   6.609   1.630 -0.1850  0.9851 -0.4676
 9337TIP3    H149426   6.668   6.646   1.661 -1.0907  3.1971 -0.6174
 9337TIP3    H249427   6.520   6.646   1.688 -1.1404 -0.4656 -0.5952
 9338TIP3   OH249428   2.248   4.278   2.432  0.0507 -0.1262  0.1047
 9338TIP3    H149429   2.230   4.346   2.367  0.3472  0.4930  0.6741
 9338TIP3    H249430   2.250   4.197   2.381 -1.2955  0.1639 -0.4333
 9339TIP3   OH249431   2.548   1.784   2.698  0.4994  0.0468 -0.5151
 9339TIP3    H149432   2.452   1.784   2.704  0.5428 -1.8843  0.3377
 9339TIP3    H249433   2.567   1.855   2.636 -1.4394  0.8593 -0.2432
 9340TIP3   OH249434   6.723   0.487  13.895  0.2756 -0.3999  0.6142
 9340TIP3    H149435   6.769   0.530  13.967  1.9360 -3.1339  1.2523
 9340TIP3    H249436   6.631   0.502  13.913  0.7562  1.9850  1.3468
 9341TIP3   OH249437   0.044   2.278   3.014  0.2098 -0.4469  0.3167
 9341TIP3    H149438  -0.040   2.316   2.988  0.4090  0.9362  1.6321
 9341TIP3    H249439   0.100   2.353   3.033  1.3069 -1.3762  0.8161
 9342TIP3   OH249440   4.947   3.575  11.866 -0.5339 -0.5466 -0.1524
 9342TIP3    H149441   5.034   3.606  11.891  0.4617  0.3261 -4.2720
 9342TIP3    H249442   4.893   3.654  11.865 -0.3578 -0.4336 -1.4599
 9343TIP3   OH249443   3.663   4.298   5.812  0.3081  0.3790  0.0446
 9343TIP3    H149444   3.729   4.278   5.878  0.6344 -1.5742 -0.8147
 9343TIP3    H249445   3.602   4.225   5.817 -2.3136  2.5957  1.4248
 9344TIP3   OH249446   1.699   6.144   4.459 -0.1469 -0.0718 -0.0278
 9344TIP3    H149447   1.756   6.096   4.519  0.7719  0.0705 -0.7776
 9344TIP3    H249448   1.680   6.081   4.390 -0.3060  0.1139 -0.1510
 9345TIP3   OH249449   4.370   4.755  16.909  0.0747 -0.3045  0.0955
 9345TIP3    H149450   4.428   4.730  16.980  1.9172  0.0394 -1.2549
 9345TIP3    H249451   4.346   4.673  16.866  2.1173 -0.2207 -1.2681
 9346TIP3   OH249452   1.805   0.124   5.944 -0.1510 -0.4502 -0.2549
 9346TIP3    H149453   1.740   0.160   6.003 -0.2194 -1.3797  0.2325
 9346TIP3    H249454   1.872   0.085   6.001 -0.9296 -2.6315 -0.7725
 9347TIP3   OH249455   6.172   5.792  10.733  0.4458 -0.8688 -0.0224
 9347TIP3    H149456   6.106   5.723  10.735  0.6156 -1.1150 -1.8999
 9347TIP3    H249457   6.131   5.864  10.685  0.5930  0.0042  1.1337
 9348TIP3   OH249458   2.811   5.140  12.823 -0.4358  0.3372  0.3535
 9348TIP3    H149459   2.739   5.144  12.886 -1.8399  0.4138 -1.2448
 9348TIP3    H249460   2.771   5.108  12.742  1.5748 -0.8894 -0.1909
 9349TIP3   OH249461   1.580   3.779  11.259  0.3922 -0.9124 -0.6708
 9349TIP3    H149462   1.502   3.729  11.283 -0.6758  0.5724 -0.9298
 9349TIP3    H249463   1.630   3.786  11.340 -1.1902  0.5882  0.2053
 9350TIP3   OH249464   3.463   2.463  13.879 -0.0183  0.1953  0.1943
 9350TIP3    H149465   3.391   2.514  13.915 -0.0094  0.2805  0.0917
 9350TIP3    H249466   3.441   2.372  13.899  0.6688  0.3336  1.6530
 9351TIP3   OH249467   0.486   1.858   3.936  0.1473 -0.0089 -0.2763
 9351TIP3    H149468   0.581   1.860   3.943  0.0658 -0.4767  0.9916
 9351TIP3    H249469   0.466   1.774   3.895  0.1640 -0.8935  1.4949
 9352TIP3   OH249470   2.584   1.221   5.810  0.5953 -0.6996 -0.0209
 9352TIP3    H149471   2.552   1.300   5.854 -1.5517 -1.4042 -0.2752
 9352TIP3    H249472   2.649   1.254   5.747 -0.2951  0.8653 -0.1466
 9353TIP3   OH249473   1.650   0.718   1.702  0.6328  1.1640  0.1645
 9353TIP3    H149474   1.567   0.724   1.749  0.7848 -0.9285  0.7480
 9353TIP3    H249475   1.716   0.727   1.771  0.8579 -2.4566  0.5111
 9354TIP3   OH249476   0.388   1.320   2.494  0.4617  0.1874  0.0964
 9354TIP3    H149477   0.372   1.252   2.559  2.2623  1.1360  1.5684
 9354TIP3    H249478   0.332   1.393   2.521  1.4097  0.6799  0.7692
 9355TIP3   OH249479   2.109   6.770  11.139 -0.5430  0.2729  0.2823
 9355TIP3    H149480   2.114   6.788  11.045 -3.4362  0.3751  0.1136
 9355TIP3    H249481   2.179   6.823  11.177 -0.2244  1.3105 -1.6759
 9356TIP3   OH249482   3.049   2.006   5.733  0.6451 -0.6610 -0.3046
 9356TIP3    H149483   3.006   1.976   5.812  1.3435 -0.2905  0.2229
 9356TIP3    H249484   2.983   2.056   5.686 -0.1728 -2.0175 -0.6162
 9357TIP3   OH249485   2.701   2.582  11.615  0.1194 -0.0017  0.3672
 9357TIP3    H149486   2.722   2.501  11.662  0.5707  0.0544  0.2661
 9357TIP3    H249487   2.775   2.595  11.555 -0.9214 -0.6260 -1.1014
 9358TIP3   OH249488   3.917   5.119   1.500 -0.2398  0.6932  0.8698
 9358TIP3    H149489   3.996   5.066   1.490 -0.3762  0.6731 -0.1659
 9358TIP3    H249490   3.927   5.161   1.585  0.7750  0.5104  0.8499
 9359TIP3   OH249491   5.307   4.362  16.614  0.3909 -0.5598 -0.0950
 9359TIP3    H149492   5.383   4.415  16.590  0.4618 -1.2429 -1.4926
 9359TIP3    H249493   5.238   4.425  16.632  0.9918  0.0471  0.1000
 9360TIP3   OH249494   2.535   2.048  12.202  0.1238  0.8505  0.6292
 9360TIP3    H149495   2.572   1.973  12.248  0.0038  0.6233  0.3594
 9360TIP3    H249496   2.550   2.122  12.260  1.8624  0.9207  0.1016
 9361TIP3   OH249497   0.181   4.077   3.991 -0.5166  0.6249 -0.2846
 9361TIP3    H149498   0.192   4.161   4.035 -1.1949 -0.1719  1.4677
 9361TIP3    H249499   0.144   4.099   3.905  1.3668  2.2490 -0.7015
 9362TIP3   OH249500   0.989   1.384   0.059  0.3654 -0.3777  0.4737
 9362TIP3    H149501   1.050   1.347   0.124  3.1288  1.4416 -0.9791
 9362TIP3    H249502   0.962   1.308   0.007  2.5091 -1.0573  0.2723
 9363TIP3   OH249503   4.674   1.461   0.636 -0.4524  0.3595  1.1275
 9363TIP3    H149504   4.616   1.423   0.702 -1.1010 -0.7878 -0.0910
 9363TIP3    H249505   4.643   1.551   0.625 -2.9030 -0.6348 -0.5075
 9364TIP3   OH249506   1.759   6.146  14.373  0.1450  1.0703 -0.1759
 9364TIP3    H149507   1.734   6.131  14.465 -1.1539 -0.4146 -0.7511
 9364TIP3    H249508   1.853   6.158  14.376  0.3282 -0.5147  1.1828
 9365TIP3   OH249509   6.595   1.653  16.258 -0.1916  0.3067 -0.2090
 9365TIP3    H149510   6.658   1.679  16.191  0.2530 -2.1078 -0.7738
 9365TIP3    H249511   6.533   1.596  16.213 -0.7320 -0.1715  1.0934
 9366TIP3   OH249512   2.936   1.405   1.304 -0.2064  0.3796 -0.3544
 9366TIP3    H149513   2.918   1.371   1.392 -1.3977 -0.4682 -0.9136
 9366TIP3    H249514   2.859   1.459   1.284 -0.4871 -0.3864 -1.3511
 9367TIP3   OH249515   6.112   2.367   5.313 -0.1546 -0.0293 -0.6099
 9367TIP3    H149516   6.166   2.309   5.260  0.6127 -0.0802  0.2136
 9367TIP3    H249517   6.175   2.416   5.367 -0.8006  1.4556 -1.1788
 9368TIP3   OH249518   1.510   0.894  13.886 -0.5301 -0.1103 -0.3366
 9368TIP3    H149519   1.517   0.979  13.842 -0.4948  0.6380  1.0875
 9368TIP3    H249520   1.446   0.908  13.956 -0.9720 -1.4237 -0.4659
 9369TIP3   OH249521   0.322   3.634   4.783  0.0416  0.1359  0.3154
 9369TIP3    H149522   0.328   3.600   4.873  0.3386  1.0432  0.6473
 9369TIP3    H249523   0.241   3.685   4.783 -0.1246 -0.1299 -0.0248
 9370TIP3   OH249524   1.777   1.052   5.974  0.0176 -0.1376 -0.6657
 9370TIP3    H149525   1.688   1.031   6.001  0.7255 -0.7354  1.2811
 9370TIP3    H249526   1.809   1.112   6.041  1.2277 -0.2769 -1.1112
 9371TIP3   OH249527   2.744   1.063   2.649  0.0130  0.1094 -0.3494
 9371TIP3    H149528   2.834   1.034   2.637 -0.4579 -1.8162  0.4607
 9371TIP3    H249529   2.705   1.059   2.562  0.9467  1.8394 -0.8570
 9372TIP3   OH249530   6.578   5.280  16.474 -0.5479 -0.3143  0.3977
 9372TIP3    H149531   6.545   5.313  16.558  2.1160  3.0416  0.2472
 9372TIP3    H249532   6.671   5.266  16.489 -0.4465 -1.7447 -1.4444
 9373TIP3   OH249533   0.881   1.422   3.000  0.1550  0.1952  0.7621
 9373TIP3    H149534   0.865   1.432   3.093 -1.1804 -1.1275  0.6893
 9373TIP3    H249535   0.810   1.471   2.958 -0.9308 -1.6392  0.4428
 9374TIP3   OH249536   1.734   6.104   4.144 -0.4753  0.2115 -0.1029
 9374TIP3    H149537   1.645   6.128   4.120 -0.3959  0.9829  0.3701
 9374TIP3    H249538   1.724   6.035   4.209 -0.7062 -1.0452 -1.4569
 9375TIP3   OH249539   4.576   0.826  12.657  0.0235 -0.2668 -0.3570
 9375TIP3    H149540   4.651   0.835  12.716 -1.9672  2.3567  1.9301
 9375TIP3    H249541   4.603   0.870  12.576  1.0364  0.4656  0.3755
 9376TIP3   OH249542   3.431   0.775   2.341 -0.2713  0.6917  0.1914
 9376TIP3    H149543   3.344   0.743   2.315  0.0574  0.5560 -0.7557
 9376TIP3    H249544   3.492   0.732   2.281  0.3309  1.8027 -0.0185
 9377TIP3   OH249545   2.695   3.831   0.956  0.2935  0.8427 -0.2853
 9377TIP3    H149546   2.765   3.893   0.975  0.7023  0.6136 -1.0025
 9377TIP3    H249547   2.634   3.838   1.030 -0.4040  3.1448 -1.0479
 9378TIP3   OH249548   2.731   0.354   4.799 -0.1197  0.7454 -0.1382
 9378TIP3    H149549   2.734   0.273   4.851 -1.1159  1.9297  1.8210
 9378TIP3    H249550   2.822   0.370   4.774  0.1854 -0.5934  0.0727
 9379TIP3   OH249551   4.075   4.087   1.739 -0.3315  0.0326 -0.3152
 9379TIP3    H149552   4.048   4.169   1.780 -0.1624  0.1853 -0.5046
 9379TIP3    H249553   4.092   4.027   1.812 -0.1899  0.2507 -0.1684
 9380TIP3   OH249554   4.617   2.996  15.372 -0.2493 -0.2652 -0.3645
 9380TIP3    H149555   4.673   3.014  15.297  0.0299 -0.9004 -0.3099
 9380TIP3    H249556   4.566   3.076  15.384 -0.1075 -0.0668 -1.0665
 9381TIP3   OH249557   5.495   1.569  12.960  0.5033 -0.4578  0.1745
 9381TIP3    H149558   5.529   1.551  13.048  1.8236 -3.0947 -0.8322
 9381TIP3    H249559   5.553   1.638  12.926 -1.4633  2.2839  2.1844
 9382TIP3   OH249560   5.091   6.344   2.394 -0.0288  0.1464  0.0699
 9382TIP3    H149561   5.079   6.276   2.460 -1.2484  0.4224  0.1319
 9382TIP3    H249562   5.046   6.310   2.317  1.2234 -0.0868 -0.5767
 9383TIP3   OH249563   0.167   4.880  14.436  0.4278 -0.5387 -0.0752
 9383TIP3    H149564   0.128   4.902  14.521  2.4068 -2.0617  1.2767
 9383TIP3    H249565   0.210   4.961  14.408  0.5026 -0.2672  0.7972
 9384TIP3   OH249566   5.038   2.687  14.965 -1.1231 -0.3918  0.4369
 9384TIP3    H149567   5.098   2.715  15.034  0.4413 -2.5662 -0.0112
 9384TIP3    H249568   5.039   2.592  14.969 -1.2219 -0.5541 -2.4159
 9385TIP3   OH249569   3.654   6.202  10.795  0.2573 -0.1523  0.2667
 9385TIP3    H149570   3.719   6.269  10.813  1.0793 -0.5364 -1.1594
 9385TIP3    H249571   3.570   6.246  10.803  0.8127  1.2703 -1.5112
 9386TIP3   OH249572   5.067   6.023   1.023  0.5445  0.3105  0.2763
 9386TIP3    H149573   5.054   6.089   1.091  0.3870 -0.4273  0.9718
 9386TIP3    H249574   4.983   5.977   1.018  0.8199 -0.1810  0.1687
 9387TIP3   OH249575   6.462   1.746   1.047 -0.0439 -1.2417 -0.1004
 9387TIP3    H149576   6.405   1.679   1.085 -0.4070 -0.7894  0.1540
 9387TIP3    H249577   6.425   1.762   0.960 -1.9536  1.0219  1.0904
 9388TIP3   OH249578   2.103   3.551   5.969 -0.2782 -0.2124  0.5156
 9388TIP3    H149579   2.173   3.588   5.915  0.7591 -0.3962  1.6965
 9388TIP3    H249580   2.140   3.548   6.057 -2.5438  1.7577  1.6019
 9389TIP3   OH249581   2.332   2.253   0.303  0.0311 -0.2107 -0.0476
 9389TIP3    H149582   2.296   2.195   0.370  1.4415 -1.2500 -0.1680
 9389TIP3    H249583   2.264   2.257   0.236 -0.1673 -1.5802  0.0533
 9390TIP3   OH249584   3.425   0.640   3.562 -0.5091 -0.2305  0.1325
 9390TIP3    H149585   3.389   0.711   3.508  0.7112 -0.0104 -0.3944
 9390TIP3    H249586   3.489   0.683   3.618  0.5680 -0.9784 -0.5073
 9391TIP3   OH249587   4.124   0.917   2.784 -0.0173 -0.0830 -0.4869
 9391TIP3    H149588   4.170   0.884   2.707 -1.0713  0.3269 -1.3104
 9391TIP3    H249589   4.033   0.887   2.772 -0.4071  0.8530  0.0929
 9392TIP3   OH249590   6.591   4.494  12.571  0.3542 -0.6105  0.2790
 9392TIP3    H149591   6.673   4.458  12.539 -0.4916 -0.7345 -1.7936
 9392TIP3    H249592   6.616   4.575  12.615  1.5982 -0.7387 -0.1875
 9393TIP3   OH249593   3.454   4.549   1.818  0.5777  0.2960  0.0205
 9393TIP3    H149594   3.517   4.495   1.769  1.0231  0.7817  0.0572
 9393TIP3    H249595   3.433   4.621   1.759 -0.5643 -0.2881 -0.3049
 9394TIP3   OH249596   1.605   6.598  15.778  0.0351  0.0358  0.1914
 9394TIP3    H149597   1.684   6.584  15.726  0.2073 -0.0021  0.4673
 9394TIP3    H249598   1.589   6.514  15.821 -0.7939 -0.3046 -0.7506
 9395TIP3   OH249599   6.222   3.780   1.438 -0.5097 -0.4935  0.5406
 9395TIP3    H149600   6.306   3.774   1.483 -0.7136 -2.5783  0.7122
 9395TIP3    H249601   6.234   3.847   1.372  1.4337 -1.0811  0.2758
 9396TIP3   OH249602   6.493   5.581  15.798 -0.1323  0.1501 -0.0174
 9396TIP3    H149603   6.431   5.520  15.757  0.4905  0.9621 -2.2770
 9396TIP3    H249604   6.465   5.587  15.889 -2.4866 -0.6417 -0.6554
 9397TIP3   OH249605   0.633   4.540   5.208 -0.1026  0.3075  0.0068
 9397TIP3    H149606   0.581   4.466   5.175  0.1270 -0.0209  0.3771
 9397TIP3    H249607   0.693   4.500   5.271 -0.4036  0.9069  0.6741
 9398TIP3   OH249608   5.492   5.562   5.730 -0.4637  0.4275 -0.0699
 9398TIP3    H149609   5.423   5.607   5.681 -1.3024 -0.9029 -0.1402
 9398TIP3    H249610   5.481   5.593   5.820 -1.1634  0.2243 -0.0807
 9399TIP3   OH249611   6.331   6.646  11.274 -0.4277 -0.5046 -0.2046
 9399TIP3    H149612   6.423   6.672  11.283 -0.6858 -0.0257  1.0931
 9399TIP3    H249613   6.300   6.696  11.199  0.4016 -0.7891 -0.7567
 9400TIP3   OH249614   0.542   0.010   1.322  0.0425 -0.5038  0.6300
 9400TIP3    H149615   0.617  -0.046   1.299  0.2143 -0.4678  1.0835
 9400TIP3    H249616   0.525   0.061   1.243  1.2701  0.3448  0.8885
 9401TIP3   OH249617   0.003   3.943   3.481  0.1182 -0.2569  0.6844
 9401TIP3    H149618   0.050   3.896   3.412  1.0834 -0.3539  1.4008
 9401TIP3    H249619  -0.085   3.905   3.480 -0.4857  1.0888 -1.7932
 9402TIP3   OH249620   6.625   2.007   2.840  0.4588  0.2393  0.3938
 9402TIP3    H149621   6.542   2.055   2.847  0.8292  0.8250  0.7052
 9402TIP3    H249622   6.605   1.935   2.781  0.1716  1.3401 -0.8600
 9403TIP3   OH249623   2.039   1.853   6.739 -0.0891  0.7200 -0.4864
 9403TIP3    H149624   2.105   1.830   6.675 -0.5129  1.7884 -1.3150
 9403TIP3    H249625   2.048   1.948   6.752 -2.6121  1.2262 -1.9669
 9404TIP3   OH249626   5.851   0.640   2.035 -0.0837  0.1151 -0.1342
 9404TIP3    H149627   5.809   0.639   1.948 -0.1222 -1.4443 -0.1132
 9404TIP3    H249628   5.880   0.730   2.046  0.8792  0.0963 -2.2385
 9405TIP3   OH249629   0.066   0.805   1.557 -0.4339 -0.1102 -0.6567
 9405TIP3    H149630   0.061   0.891   1.515 -1.9636  0.2308  0.1802
 9405TIP3    H249631   0.017   0.816   1.639 -1.1592 -1.9605 -0.8384
 9406TIP3   OH249632   3.881   0.443   1.149  0.2791 -0.3166  0.1618
 9406TIP3    H149633   3.962   0.440   1.097  0.6329  1.1446  0.5984
 9406TIP3    H249634   3.893   0.518   1.207 -1.9775  0.7935 -0.7457
 9407TIP3   OH249635   5.246   1.558   5.677  0.0476  0.1251 -0.2655
 9407TIP3    H149636   5.190   1.591   5.747  0.0513  0.7112 -0.5334
 9407TIP3    H249637   5.188   1.546   5.602  0.4321  1.6083 -0.8151
 9408TIP3   OH249638   6.187   2.927  13.871 -0.0922  0.0508 -0.9570
 9408TIP3    H149639   6.276   2.920  13.905  0.0676  1.2915 -1.1114
 9408TIP3    H249640   6.189   3.003  13.813 -0.8118 -0.9684 -2.3643
 9409TIP3   OH249641   3.164   0.251   4.055 -0.2424 -0.1142 -0.1138
 9409TIP3    H149642   3.163   0.230   4.149  1.6276  3.8457  0.8777
 9409TIP3    H249643   3.074   0.280   4.037  0.2283  2.3855  1.3215
 9410TIP3   OH249644   1.526   6.373   2.160  0.4907 -0.3417  0.2118
 9410TIP3    H149645   1.434   6.351   2.173  0.6369 -0.1062  1.7420
 9410TIP3    H249646   1.559   6.305   2.102 -0.5109 -0.7656  0.1255
 9411TIP3   OH249647   0.466   0.020  14.649  0.4838  0.1840 -0.0644
 9411TIP3    H149648   0.519  -0.060  14.650 -2.2758 -1.6748  1.0442
 9411TIP3    H249649   0.477   0.057  14.736 -0.7852 -0.7369  0.5014
 9412TIP3   OH249650   6.417   5.085   3.595 -0.0008 -0.3525  0.4203
 9412TIP3    H149651   6.400   5.089   3.689 -1.1934  0.5423  0.1756
 9412TIP3    H249652   6.343   5.036   3.560  0.5561 -0.8810 -0.0373
 9413TIP3   OH249653   3.801   6.401  13.818  0.3388  0.0500  0.1943
 9413TIP3    H149654   3.863   6.473  13.823  0.9190 -0.4783  0.5809
 9413TIP3    H249655   3.736   6.430  13.753  3.0388 -0.9516 -3.0982
 9414TIP3   OH249656   6.567   5.195  12.337  0.1399  0.0747 -0.3737
 9414TIP3    H149657   6.601   5.130  12.275 -0.4967 -1.0084  0.4013
 9414TIP3    H249658   6.643   5.247  12.360  0.4587  0.2810 -1.8050
 9415TIP3   OH249659   4.769   4.349   1.310  0.0621  0.6632 -0.2345
 9415TIP3    H149660   4.752   4.278   1.372 -1.0509 -1.8645 -3.3140
 9415TIP3    H249661   4.719   4.423   1.345 -0.1059 -0.5280  2.1549
 9416TIP3   OH249662   4.540   6.115   4.395 -0.3597 -0.1392  0.3680
 9416TIP3    H149663   4.482   6.039   4.399 -0.5648 -0.1222 -1.4745
 9416TIP3    H249664   4.626   6.078   4.375 -0.7039  0.1509 -1.8646
 9417TIP3   OH249665   1.592   2.707  11.667 -0.2173  0.1739 -0.5344
 9417TIP3    H149666   1.513   2.675  11.623  0.4332 -2.0144 -0.1406
 9417TIP3    H249667   1.660   2.705  11.600  0.2786 -1.1507 -0.0066
 9418TIP3   OH249668   6.623   2.206   0.221  0.5635  0.1258  0.1053
 9418TIP3    H149669   6.692   2.268   0.245  0.6797 -0.2621  0.7692
 9418TIP3    H249670   6.638   2.190   0.127 -0.5960  2.4977 -0.5058
 9419TIP3   OH249671   3.146   4.946  13.940 -0.0648 -0.7139  0.0210
 9419TIP3    H149672   3.232   4.905  13.952 -0.1938 -1.4036 -1.3873
 9419TIP3    H249673   3.086   4.891  13.991  0.3950  0.0683  1.4336
 9420TIP3   OH249674   3.805   5.240   0.004  0.2816 -0.0858 -0.7905
 9420TIP3    H149675   3.719   5.274  -0.023  0.6895  0.5309 -1.3227
 9420TIP3    H249676   3.822   5.282   0.088 -0.0455 -0.3848 -0.5767
 9421TIP3   OH249677   5.035   6.078   2.262  0.7785  0.3083  0.2256
 9421TIP3    H149678   5.128   6.069   2.285  0.9378  0.6725 -0.2866
 9421TIP3    H249679   4.989   6.064   2.345  1.3531  1.5181  0.7561
 9422TIP3   OH249680   1.725   6.378   3.474  0.5129 -0.1187  0.0317
 9422TIP3    H149681   1.768   6.445   3.420 -2.0167  0.1043 -1.7780
 9422TIP3    H249682   1.786   6.304   3.472  1.6384  0.8024 -1.0050
 9423TIP3   OH249683   6.476   2.878   2.811 -0.0128  0.0474 -0.1213
 9423TIP3    H149684   6.458   2.839   2.897 -0.6984  0.3244 -0.1403
 9423TIP3    H249685   6.492   2.970   2.830 -2.2843  0.5573 -0.5283
 9424TIP3   OH249686   6.581   3.558   4.214 -0.0678 -0.4044  0.5913
 9424TIP3    H149687   6.638   3.487   4.185  1.7206  1.1202  0.2648
 9424TIP3    H249688   6.641   3.631   4.233 -1.8612  1.0612  0.8087
 9425TIP3   OH249689   1.172   3.394  14.761  0.1030 -0.4640 -0.8106
 9425TIP3    H149690   1.134   3.473  14.723  1.5341  0.8011  0.3187
 9425TIP3    H249691   1.202   3.421  14.848  0.1827 -2.3741 -0.2165
 9426TIP3   OH249692   6.443   0.426  15.239 -0.6495  0.3848  0.9130
 9426TIP3    H149693   6.509   0.473  15.189  0.8742 -2.3333  0.2359
 9426TIP3    H249694   6.473   0.432  15.330  0.7038 -1.0251  0.5832
 9427TIP3   OH249695   1.062   2.357   5.443  0.2975  0.3200  0.3692
 9427TIP3    H149696   1.034   2.266   5.446 -0.5097  0.5633  0.4900
 9427TIP3    H249697   1.126   2.361   5.371 -0.2531 -0.1774 -0.1519
 9428TIP3   OH249698   0.408   1.581   3.765 -0.5686  0.4756  0.2905
 9428TIP3    H149699   0.363   1.592   3.681  0.7678  1.3649 -0.3469
 9428TIP3    H249700   0.475   1.514   3.748 -0.6781  0.2361  0.8029
 9429TIP3   OH249701   4.413   2.604   0.379 -0.2915  0.1485  0.4246
 9429TIP3    H149702   4.482   2.617   0.314  0.2257  0.3434  1.0050
 9429TIP3    H249703   4.391   2.692   0.408  0.8796 -0.0330  1.9472
 9430TIP3   OH249704   2.784   3.709   3.151 -0.2279 -0.0538  0.3051
 9430TIP3    H149705   2.839   3.767   3.098 -1.4715  1.3438  0.4890
 9430TIP3    H249706   2.799   3.622   3.115  0.5092  0.5949 -1.0117
 9431TIP3   OH249707   1.138   4.777  15.561 -0.2785 -0.1793  0.1256
 9431TIP3    H149708   1.058   4.736  15.527 -1.7569  1.7026  1.2078
 9431TIP3    H249709   1.182   4.812  15.483 -1.2491  0.0413 -0.3327
 9432TIP3   OH249710   5.938   3.052   0.555 -0.2976 -0.4305 -0.0848
 9432TIP3    H149711   5.945   3.120   0.622  0.3538 -1.0077  0.4464
 9432TIP3    H249712   6.017   3.000   0.566 -0.3897 -0.7702 -1.0440
 9433TIP3   OH249713   4.192   0.099  11.005 -0.2129  0.0584 -0.2347
 9433TIP3    H149714   4.119   0.037  11.005  0.1789 -0.4037  0.2773
 9433TIP3    H249715   4.180   0.151  11.083 -0.5010  0.5832 -0.6279
 9434TIP3   OH249716   6.295   1.776   2.097  0.4066 -0.1262 -0.4136
 9434TIP3    H149717   6.381   1.793   2.137 -0.7334  2.0421  1.2380
 9434TIP3    H249718   6.282   1.682   2.108  1.3343 -0.0145  1.9430
 9435TIP3   OH249719   2.179   6.070  16.701  0.5278 -0.0101  0.3661
 9435TIP3    H149720   2.091   6.108  16.708  0.3695 -0.3482  0.2212
 9435TIP3    H249721   2.238   6.143  16.719  0.2092  0.0992  0.9761
 9436TIP3   OH249722   3.019   5.390   2.508 -0.2347  0.2411 -0.3027
 9436TIP3    H149723   2.952   5.458   2.505 -0.6533 -0.2022 -1.5031
 9436TIP3    H249724   2.993   5.328   2.440 -0.5879 -1.7985  1.6410
 9437TIP3   OH249725   5.294   2.286   1.156  0.0462 -0.3786 -0.1063
 9437TIP3    H149726   5.341   2.252   1.232  2.1037 -0.7560 -1.4869
 9437TIP3    H249727   5.322   2.377   1.148  0.9279 -0.7224 -1.1826
 9438TIP3   OH249728   3.690   3.919   4.806  0.1612 -0.4556  0.5072
 9438TIP3    H149729   3.738   3.880   4.879  1.7146  1.4970  0.5917
 9438TIP3    H249730   3.717   3.867   4.730  1.8817  0.1488  0.6744
 9439TIP3   OH249731   0.302   4.087   1.104 -0.2669 -0.1135  0.5330
 9439TIP3    H149732   0.224   4.039   1.076  0.6521 -0.6064 -1.2381
 9439TIP3    H249733   0.350   4.104   1.024  1.9117 -0.5861  1.7083
 9440TIP3   OH249734   2.149   6.082   3.987  0.1659 -0.2442 -0.0688
 9440TIP3    H149735   2.205   6.019   3.941  1.3546  1.3464 -0.8407
 9440TIP3    H249736   2.060   6.059   3.959  0.4670 -2.2653  0.5279
 9441TIP3   OH249737   4.715   0.451  11.949 -0.5106 -0.1959 -0.1240
 9441TIP3    H149738   4.719   0.377  11.888 -3.0589 -1.5635  1.2774
 9441TIP3    H249739   4.801   0.493  11.942  1.1058 -3.4562 -0.7425
 9442TIP3   OH249740   1.529   3.952  11.899 -0.5064 -0.1202 -0.1402
 9442TIP3    H149741   1.561   3.946  11.809 -0.3914 -1.0887 -0.0416
 9442TIP3    H249742   1.590   3.897  11.950  0.5046  1.8478  0.8246
 9443TIP3   OH249743   4.680   1.711  16.905  0.1502 -0.1650 -0.1388
 9443TIP3    H149744   4.621   1.742  16.836  0.1847 -0.6786 -0.3982
 9443TIP3    H249745   4.746   1.660  16.859  0.9346  0.6035  0.1278
 9444TIP3   OH249746   1.346   6.703   1.353 -0.3745 -0.4077  0.1130
 9444TIP3    H149747   1.336   6.630   1.291 -3.2473 -0.7172  0.8587
 9444TIP3    H249748   1.403   6.669   1.421  0.0656 -1.2262 -0.6537
 9445TIP3   OH249749   2.331   6.109   2.745  0.1105  0.5503  0.1291
 9445TIP3    H149750   2.370   6.147   2.667  0.5627 -0.5245 -0.1874
 9445TIP3    H249751   2.287   6.030   2.714 -1.3613  1.1349  0.6628
 9446TIP3   OH249752   1.039   4.867   0.598  0.3095 -0.3339  0.1060
 9446TIP3    H149753   1.033   4.914   0.681  1.2023 -1.1968  0.6627
 9446TIP3    H249754   0.952   4.830   0.586  0.5579 -1.3361  1.3316
 9447TIP3   OH249755   5.777   6.586  14.729 -0.3978 -0.5018  0.0418
 9447TIP3    H149756   5.847   6.531  14.766 -0.5419  1.0113  2.6623
 9447TIP3    H249757   5.723   6.609  14.804 -1.0176  2.2520 -1.1961
 9448TIP3   OH249758   3.469   2.358   0.097 -0.1978  0.2841  0.0823
 9448TIP3    H149759   3.383   2.325   0.068 -0.2887  0.7599 -0.2069
 9448TIP3    H249760   3.454   2.452   0.111  0.7228  0.7398 -1.7940
 9449TIP3   OH249761   5.520   4.544  12.234 -0.2480 -0.6113  0.5635
 9449TIP3    H149762   5.448   4.483  12.253 -0.6939 -0.1564  0.3529
 9449TIP3    H249763   5.561   4.509  12.155  0.0911 -1.1625  0.9831
 9450TIP3   OH249764   6.554   0.843  17.080 -0.2876 -0.0746  0.1790
 9450TIP3    H149765   6.497   0.826  17.004 -0.5985  1.0367  0.1540
 9450TIP3    H249766   6.580   0.756  17.110 -0.9860 -0.5598 -0.5873
 9451TIP3   OH249767   2.947   6.673  15.892 -0.0499  0.1686 -0.1654
 9451TIP3    H149768   3.010   6.602  15.902 -1.0069 -0.6326  0.2860
 9451TIP3    H249769   2.862   6.629  15.892 -0.8282  1.5223  2.8173
 9452TIP3   OH249770   5.283   6.743   4.035 -0.8117  0.3261  0.2851
 9452TIP3    H149771   5.367   6.778   4.005 -0.5798 -1.0123 -0.6792
 9452TIP3    H249772   5.299   6.649   4.046 -2.4190 -0.0715 -0.7163
 9453TIP3   OH249773   1.019   1.138   6.252  0.2187  0.1203 -0.1053
 9453TIP3    H149774   0.938   1.097   6.283  0.9091 -0.7800  0.5337
 9453TIP3    H249775   1.007   1.231   6.272 -0.8033  0.0446 -0.3305
 9454TIP3   OH249776   0.798   4.937   1.538 -0.0517  0.4240 -0.5573
 9454TIP3    H149777   0.774   4.850   1.506  1.2717 -0.8518  1.7177
 9454TIP3    H249778   0.885   4.953   1.501 -0.3305  0.8062 -1.0425
 9455TIP3   OH249779   6.455   5.145   2.715 -0.1299  0.6202  0.5450
 9455TIP3    H149780   6.436   5.231   2.752 -0.9096  1.0538 -0.8331
 9455TIP3    H249781   6.461   5.087   2.791  2.1483  2.1960  1.6294
 9456TIP3   OH249782   4.661   3.942  12.460 -0.1870 -0.3361  0.3033
 9456TIP3    H149783   4.645   3.863  12.408  1.2626 -0.2374 -0.3016
 9456TIP3    H249784   4.575   3.984  12.466 -0.7195 -1.2889 -0.4781
 9457TIP3   OH249785   1.329   4.592   3.113 -0.0973  0.1738  0.6998
 9457TIP3    H149786   1.388   4.580   3.187 -0.3725 -1.2751  0.6970
 9457TIP3    H249787   1.382   4.636   3.047  0.3455  0.8570  1.4912
 9458TIP3   OH249788   0.376   3.638  14.331 -0.1812  0.8134 -0.1683
 9458TIP3    H149789   0.282   3.651  14.344 -0.6935 -1.2968 -1.5731
 9458TIP3    H249790   0.409   3.615  14.418 -1.1885  0.3215  0.0976
 9459TIP3   OH249791   5.838   4.333  16.711 -0.6488 -0.6936 -0.1946
 9459TIP3    H149792   5.932   4.348  16.722 -0.5851 -0.8078 -0.5546
 9459TIP3    H249793   5.825   4.333  16.616 -1.3197  1.1572 -0.1253
 9460TIP3   OH249794   2.768   5.717  15.933  0.0759 -0.3615 -0.2828
 9460TIP3    H149795   2.716   5.727  16.012  1.5104  2.0003  0.4141
 9460TIP3    H249796   2.712   5.751  15.863 -0.5353 -0.8736 -0.0519
 9461TIP3   OH249797   2.074   0.996   5.698 -0.3490 -0.4554 -0.1229
 9461TIP3    H149798   2.092   1.026   5.609  0.1371 -0.5097 -0.0450
 9461TIP3    H249799   2.077   0.900   5.692  1.1418 -0.4448  0.2417
 9462TIP3   OH249800   3.673   4.304  12.879  0.3458 -0.6164  0.9046
 9462TIP3    H149801   3.670   4.247  12.803  0.7702 -0.0784  0.4710
 9462TIP3    H249802   3.594   4.358  12.872  0.9282  0.1852  0.2243
 9463TIP3   OH249803   1.881   4.632  13.554 -0.1452  0.0953  0.3834
 9463TIP3    H149804   1.959   4.666  13.510 -1.0357  3.1385  1.0925
 9463TIP3    H249805   1.876   4.540  13.526  1.9874  0.6669 -2.0221
 9464TIP3   OH249806   0.464   3.516   3.143  0.1291  0.1984  0.3099
 9464TIP3    H149807   0.420   3.602   3.141  0.2845  0.2712 -0.1965
 9464TIP3    H249808   0.513   3.516   3.225  0.1616  0.6139  0.2946
 9465TIP3   OH249809   1.580   6.463  14.888  0.0369  0.3380  0.5777
 9465TIP3    H149810   1.635   6.506  14.822  0.4497  1.4073  1.6138
 9465TIP3    H249811   1.610   6.373  14.889  0.2398  0.3854 -0.4761
 9466TIP3   OH249812   6.328   6.651   0.376  0.1029 -0.1338  0.2084
 9466TIP3    H149813   6.355   6.573   0.329  0.9137 -0.4520  1.1837
 9466TIP3    H249814   6.299   6.619   0.461  0.7807  0.6517  0.7418
 9467TIP3   OH249815   4.722   6.205   2.903  0.1417 -0.1268 -0.6894
 9467TIP3    H149816   4.670   6.137   2.945  1.1322  1.9676  4.1815
 9467TIP3    H249817   4.658   6.273   2.879  0.0119  0.3070  0.8593
 9468TIP3   OH249818   3.176   1.586   3.384  0.2334 -0.6359 -0.2427
 9468TIP3    H149819   3.145   1.624   3.467  0.6099  1.7430 -1.1650
 9468TIP3    H249820   3.264   1.621   3.373 -0.1324 -0.2534 -2.0738
 9469TIP3   OH249821   6.766   3.881   3.739 -0.4831 -0.3690 -0.7508
 9469TIP3    H149822   6.849   3.839   3.759  0.8696  2.2013 -0.7386
 9469TIP3    H249823   6.772   3.902   3.646  0.8914  3.9809  0.2228
 9470TIP3   OH249824   0.914   6.665  15.827  0.1888  1.0109 -0.0492
 9470TIP3    H149825   0.904   6.627  15.740  0.6209 -0.7681  0.6695
 9470TIP3    H249826   1.006   6.690  15.832  0.3876  0.2209  0.2551
 9471TIP3   OH249827   2.819   5.303  12.338  0.1729  0.0778  0.0631
 9471TIP3    H149828   2.748   5.300  12.403  0.2787  1.5505  0.2580
 9471TIP3    H249829   2.773   5.308  12.254  0.0332 -0.2449  0.1208
 9472TIP3   OH249830   2.327   3.293   0.618  0.0258 -0.1322  0.3589
 9472TIP3    H149831   2.255   3.348   0.588  0.8954  0.0771 -1.4461
 9472TIP3    H249832   2.398   3.354   0.637  1.2383 -0.6088 -2.3527
 9473TIP3   OH249833   0.318   2.454   1.619  0.3421 -0.4666 -0.4753
 9473TIP3    H149834   0.398   2.495   1.585  0.7412 -0.5387  0.3601
 9473TIP3    H249835   0.294   2.390   1.552  1.1381 -0.6268 -0.6184
 9474TIP3   OH249836   4.857   6.097   3.941  0.0471  0.4347  0.3651
 9474TIP3    H149837   4.944   6.104   3.979 -1.0640  1.3759  2.8149
 9474TIP3    H249838   4.839   6.185   3.906  0.2424  0.1211 -0.5404
 9475TIP3   OH249839   3.688   2.856   1.326  0.8178  0.4469  0.1501
 9475TIP3    H149840   3.688   2.889   1.236  0.4030  0.3841  0.1237
 9475TIP3    H249841   3.709   2.763   1.317  2.2067  0.7416  0.2436
 9476TIP3   OH249842   6.230   0.435   4.972 -0.4244  0.1366  0.3015
 9476TIP3    H149843   6.300   0.378   5.004  0.3946  0.6760 -0.4906
 9476TIP3    H249844   6.151   0.402   5.014 -0.1498 -2.2787 -0.9655
 9477TIP3   OH249845   2.558   0.345   5.385 -0.5407  0.0619 -0.4760
 9477TIP3    H149846   2.538   0.254   5.408  0.3044  0.3354  1.4391
 9477TIP3    H249847   2.635   0.339   5.329 -0.0861 -0.3509  0.1968
 9478TIP3   OH249848   5.342   1.520   2.247  0.2248 -0.5655  0.1286
 9478TIP3    H149849   5.381   1.547   2.164 -0.4418 -0.1451 -0.0513
 9478TIP3    H249850   5.283   1.592   2.270  1.9199  0.2703  1.9911
 9479TIP3   OH249851   5.252   6.467  12.544  0.2112  0.0154 -0.5050
 9479TIP3    H149852   5.269   6.561  12.530  0.5334  0.1704  0.8457
 9479TIP3    H249853   5.325   6.438  12.599  0.0694 -1.0131 -0.8669
 9480TIP3   OH249854   5.267   1.487   3.584  0.3176 -0.4837  0.2829
 9480TIP3    H149855   5.231   1.436   3.656  0.0292 -2.6084 -1.3220
 9480TIP3    H249856   5.361   1.490   3.601  0.1457 -0.1766  1.2221
 9481TIP3   OH249857   3.545   3.749  16.826 -0.0487 -0.0086 -0.2258
 9481TIP3    H149858   3.634   3.714  16.823  0.2056  0.3978  1.6094
 9481TIP3    H249859   3.551   3.823  16.888 -1.5587  0.2905 -0.4279
 9482TIP3   OH249860   4.025   2.475   2.229 -0.1540  0.9144  0.0663
 9482TIP3    H149861   4.098   2.468   2.291 -1.1249  1.8613  1.3433
 9482TIP3    H249862   3.948   2.453   2.281 -0.5320 -3.4243 -2.0472
 9483TIP3   OH249863   1.992   6.445  11.489 -0.7609  0.8965  0.3747
 9483TIP3    H149864   1.965   6.527  11.447  0.6469  1.5398  0.7161
 9483TIP3    H249865   1.939   6.442  11.569  0.5428  2.4359  1.3278
 9484TIP3   OH249866   6.230   4.333  13.333  0.1985  0.1658 -0.1440
 9484TIP3    H149867   6.273   4.403  13.382  0.7087 -0.7704  0.7396
 9484TIP3    H249868   6.200   4.271  13.399 -0.9441 -0.0785 -0.8745
 9485TIP3   OH249869   2.806   5.827   6.595  0.2739 -0.0847  0.2838
 9485TIP3    H149870   2.818   5.812   6.501 -1.9806  0.7176 -0.1763
 9485TIP3    H249871   2.874   5.775   6.637  3.0697  1.6652 -1.8788
 9486TIP3   OH249872   4.037   3.555   5.820  0.6039  0.0361 -0.0648
 9486TIP3    H149873   3.977   3.485   5.848  0.8716  0.1421  0.8024
 9486TIP3    H249874   4.069   3.592   5.902  0.5599  1.0943 -0.5201
 9487TIP3   OH249875   4.940   1.894  16.030  0.5410 -0.1602 -0.0095
 9487TIP3    H149876   4.913   1.986  16.039  0.3435 -0.2378  0.1934
 9487TIP3    H249877   4.990   1.892  15.949 -1.8813 -0.4264 -1.5489
 9488TIP3   OH249878   2.872   3.257  10.873 -0.1721  0.4299  0.2060
 9488TIP3    H149879   2.871   3.219  10.961 -1.5984 -0.2900 -0.1033
 9488TIP3    H249880   2.874   3.182  10.814  0.0853  0.8956 -0.3857
 9489TIP3   OH249881   3.386   1.435  14.133  0.2170 -0.1104 -0.0043
 9489TIP3    H149882   3.439   1.506  14.169 -0.4466 -0.2750  1.2983
 9489TIP3    H249883   3.405   1.359  14.189 -0.0485 -0.6324 -0.6110
 9490TIP3   OH249884   1.502   4.591  10.741  0.9704  0.2448  0.6305
 9490TIP3    H149885   1.446   4.550  10.675  0.6529  1.4812  0.1198
 9490TIP3    H249886   1.563   4.522  10.766  0.0922 -0.7069  0.1913
 9491TIP3   OH249887   1.824   6.495   2.028  0.0585 -0.1436 -0.2536
 9491TIP3    H149888   1.845   6.531   1.942 -1.1860  0.4673 -0.3051
 9491TIP3    H249889   1.741   6.450   2.016 -0.2542  0.1733  0.6901
 9492TIP3   OH249890   2.774   1.539   0.217 -0.2326  0.2790  0.3525
 9492TIP3    H149891   2.727   1.554   0.135  0.3221  0.5963  0.0947
 9492TIP3    H249892   2.713   1.487   0.269 -0.8151  0.5465 -0.0429
 9493TIP3   OH249893   5.447   1.500  12.408 -0.1827 -0.2397  0.5961
 9493TIP3    H149894   5.386   1.438  12.368  1.4591 -0.8546 -1.0066
 9493TIP3    H249895   5.533   1.462  12.394  0.7098  1.4383  1.3476
 9494TIP3   OH249896   6.417   0.234  15.593  1.0721  0.1477 -0.6122
 9494TIP3    H149897   6.453   0.321  15.576  1.3312 -0.0286 -0.9476
 9494TIP3    H249898   6.362   0.246  15.671 -2.0457  1.4823 -2.9288
 9495TIP3   OH249899   5.837   4.830  12.148 -0.2104 -0.8505 -0.4568
 9495TIP3    H149900   5.926   4.810  12.174 -0.1708  1.4341  1.3818
 9495TIP3    H249901   5.795   4.862  12.228 -1.5806  1.6837 -2.1066
 9496TIP3   OH249902   5.452   0.362  13.651 -0.2299 -0.0962 -0.4840
 9496TIP3    H149903   5.357   0.353  13.657 -0.5203  2.1904 -1.0002
 9496TIP3    H249904   5.466   0.412  13.570  1.5417 -2.0565 -1.4570
 9497TIP3   OH249905   2.837   4.820  12.029 -0.0850  0.0009  0.0080
 9497TIP3    H149906   2.776   4.888  12.054 -0.1307 -0.4475  1.1490
 9497TIP3    H249907   2.782   4.750  11.994 -0.0274  0.5899 -1.2982
 9498TIP3   OH249908   1.765   0.238  14.425  0.1165 -0.0701  0.9775
 9498TIP3    H149909   1.730   0.223  14.337  4.0155  1.3278 -0.9429
 9498TIP3    H249910   1.760   0.152  14.467 -1.3420 -0.8781 -0.7557
 9499TIP3   OH249911   5.436   5.412  11.229 -0.1494 -0.9143 -0.0645
 9499TIP3    H149912   5.511   5.375  11.274  1.3196  0.7384 -1.0766
 9499TIP3    H249913   5.448   5.386  11.137 -2.1813 -2.7791  0.1502
 9500TIP3   OH249914   1.742   0.184  14.126  0.2762 -0.6512  0.4307
 9500TIP3    H149915   1.835   0.168  14.142  0.0198 -0.5088  2.1555
 9500TIP3    H249916   1.740   0.265  14.075  1.1114 -0.8260  0.1129
 9501TIP3   OH249917   3.993   0.765   0.817 -0.0629 -0.2942 -0.7161
 9501TIP3    H149918   3.920   0.817   0.784 -1.5480 -0.7087  1.8558
 9501TIP3    H249919   4.066   0.788   0.759 -1.3298  2.6758 -1.2313
 9502TIP3   OH249920   4.987   0.182   2.444  0.5240  0.0329 -0.1836
 9502TIP3    H149921   4.966   0.190   2.351  0.1640  0.3396 -0.0777
 9502TIP3    H249922   4.958   0.094   2.468  2.4709 -0.7990 -0.8380
 9503TIP3   OH249923   6.627   0.203   3.236  0.9947  0.2247 -0.2464
 9503TIP3    H149924   6.597   0.112   3.238  0.8152  0.2940  1.3737
 9503TIP3    H249925   6.572   0.248   3.300  2.2528  1.0950  0.2556
 9504TIP3   OH249926   5.771   1.991  12.687  0.1014 -0.2370 -0.1121
 9504TIP3    H149927   5.802   2.077  12.717 -0.3011 -0.0499 -0.2278
 9504TIP3    H249928   5.692   2.010  12.636  0.4803 -0.6071 -0.8333
 9505TIP3   OH249929   0.186   5.295   3.870 -0.0289 -0.3719  0.0674
 9505TIP3    H149930   0.188   5.291   3.775 -0.2092  2.1406 -0.0828
 9505TIP3    H249931   0.278   5.283   3.896 -0.2731 -3.2396 -0.2649
 9506TIP3   OH249932   2.819   0.396   4.273  0.7646 -0.1615  0.1919
 9506TIP3    H149933   2.770   0.457   4.329  0.5729  0.2207 -0.3816
 9506TIP3    H249934   2.755   0.329   4.249  0.3739  0.6080 -0.9639
 9507TIP3   OH249935   4.153   4.312  16.255 -0.7052 -0.1207  0.2818
 9507TIP3    H149936   4.185   4.223  16.272 -0.1298  0.1136  0.4402
 9507TIP3    H249937   4.061   4.300  16.231 -0.4433 -0.8282 -0.4019
 9508TIP3   OH249938   2.581   3.683  16.109  0.3009  0.0109 -0.4927
 9508TIP3    H149939   2.652   3.740  16.078  1.5144 -1.2673 -0.1082
 9508TIP3    H249940   2.608   3.656  16.196 -1.7868  1.3661  0.6053
 9509TIP3   OH249941   5.646   5.468  16.890  0.4141  0.4288  0.3099
 9509TIP3    H149942   5.681   5.522  16.961 -1.2809  0.7942  0.8788
 9509TIP3    H249943   5.552   5.482  16.893  0.0353 -1.8791 -0.1286
 9510TIP3   OH249944   0.169   0.182   1.578 -0.3145  0.3756 -0.1748
 9510TIP3    H149945   0.143   0.098   1.542 -0.1127 -0.0583  0.6810
 9510TIP3    H249946   0.264   0.177   1.585 -0.1994  1.0949 -1.1540
 9511TIP3   OH249947   1.703   1.551  16.182 -0.4153  0.6509  0.0074
 9511TIP3    H149948   1.765   1.560  16.255 -0.4017  2.2169 -0.1794
 9511TIP3    H249949   1.718   1.628  16.128 -1.5263  0.3062 -0.8124
 9512TIP3   OH249950   5.190   3.654   4.706 -0.6201 -0.0678  0.6061
 9512TIP3    H149951   5.139   3.640   4.626  2.3275  0.9518 -1.5368
 9512TIP3    H249952   5.255   3.585   4.706 -0.3665  0.1594  1.9557
 9513TIP3   OH249953   1.207   3.907   0.245  0.3157  0.3343 -0.1159
 9513TIP3    H149954   1.222   3.850   0.320 -0.0241 -0.9964 -1.0351
 9513TIP3    H249955   1.111   3.911   0.238  0.3199 -1.5624 -1.9315
 9514TIP3   OH249956   2.556   2.295   2.764  0.3808 -0.1018  0.0143
 9514TIP3    H149957   2.596   2.372   2.724  0.1088  0.1634  0.2488
 9514TIP3    H249958   2.463   2.300   2.739  0.7061 -1.3454 -1.5096
 9515TIP3   OH249959   3.888   6.301  11.147 -0.8371 -0.1859  0.2829
 9515TIP3    H149960   3.918   6.324  11.059 -1.7955 -2.5759 -0.7248
 9515TIP3    H249961   3.928   6.366  11.204  1.9891 -0.1877 -1.6024
 9516TIP3   OH249962   2.312   0.497   2.382 -0.3794  0.0350 -0.0542
 9516TIP3    H149963   2.310   0.530   2.292  1.5639  1.1873  0.3082
 9516TIP3    H249964   2.392   0.444   2.386 -0.3456  0.1632  1.0654
 9517TIP3   OH249965   5.173   1.974   2.050  0.5575  0.5075 -0.6232
 9517TIP3    H149966   5.254   1.952   2.096  0.7109  0.5747 -0.8648
 9517TIP3    H249967   5.105   1.922   2.095  0.6785  0.6995 -0.2099
 9518TIP3   OH249968   4.375   2.452   4.820  0.0240  0.1069  0.6942
 9518TIP3    H149969   4.336   2.406   4.894 -1.1032 -1.1625 -0.6635
 9518TIP3    H249970   4.301   2.490   4.773  0.5459 -0.6953 -0.8254
 9519TIP3   OH249971   6.326   5.268   2.157 -0.5326  0.1281  0.2128
 9519TIP3    H149972   6.342   5.283   2.250 -1.0654  0.4870  0.2499
 9519TIP3    H249973   6.413   5.272   2.117 -0.3067  0.0174  0.6858
 9520TIP3   OH249974   5.875   0.769  12.880 -0.0129  0.1591  0.5080
 9520TIP3    H149975   5.904   0.780  12.789 -0.8291  1.1829  0.3694
 9520TIP3    H249976   5.946   0.806  12.932  0.6017 -0.7160  0.3119
 9521TIP3   OH249977   5.576   6.562   0.633  0.2448 -0.2539  0.6700
 9521TIP3    H149978   5.654   6.573   0.688  0.1603 -0.3825  0.8176
 9521TIP3    H249979   5.597   6.488   0.576  0.8062  0.6515 -0.3114
 9522TIP3   OH249980   2.072   4.974  11.216  0.0621  0.5508  0.2986
 9522TIP3    H149981   2.141   4.995  11.153  0.0922  2.2161  0.8457
 9522TIP3    H249982   2.110   4.906  11.272  0.6255  0.2232 -0.4764
 9523TIP3   OH249983   0.444   6.691   4.260  0.0502 -0.1582 -0.0537
 9523TIP3    H149984   0.443   6.627   4.190 -0.7902 -0.2599  0.0445
 9523TIP3    H249985   0.419   6.773   4.218  1.3803  0.1697 -0.2314
 9524TIP3   OH249986   6.583   4.320  12.806  0.4002  0.6600 -0.1490
 9524TIP3    H149987   6.575   4.359  12.719  1.2047  0.4902 -0.3051
 9524TIP3    H249988   6.503   4.269  12.816  0.2611  0.7481 -0.7601
 9525TIP3   OH249989   3.200   0.123  14.845  0.5527 -0.2206  0.0517
 9525TIP3    H149990   3.283   0.122  14.892 -0.2428  0.1388  1.4954
 9525TIP3    H249991   3.195   0.210  14.807  1.9144 -1.0286 -2.0221
 9526TIP3   OH249992   4.901   1.615  17.117 -0.8043 -0.6211 -0.1463
 9526TIP3    H149993   4.965   1.628  17.048 -1.4709  0.7451 -0.5279
 9526TIP3    H249994   4.882   1.521  17.115 -0.3497 -0.6905 -1.3880
 9527TIP3   OH249995   2.903   0.593   5.089 -0.0842 -0.1914  0.0675
 9527TIP3    H149996   2.951   0.592   5.007 -1.1948  0.5581 -0.6059
 9527TIP3    H249997   2.970   0.579   5.156  0.9428 -0.0116 -0.9025
 9528TIP3   OH249998   3.204   2.356   4.389  0.2065  0.6918  0.3437
 9528TIP3    H149999   3.198   2.387   4.479 -0.4326 -1.0293  0.9138
 9528TIP3    H250000   3.133   2.293   4.380  0.0432  1.1116 -1.4786
 9529TIP3   OH250001   6.708   0.529   3.687 -0.5850  0.5170 -0.1871
 9529TIP3    H150002   6.753   0.611   3.667 -1.4850  1.2609  0.8099
 9529TIP3    H250003   6.760   0.462   3.642  1.4041  1.3758  0.7410
 9530TIP3   OH250004   4.897   4.500   5.607 -0.3838  0.1055  0.4421
 9530TIP3    H150005   4.939   4.434   5.551 -0.0238 -1.0523  2.0582
 9530TIP3    H250006   4.916   4.471   5.696 -2.1776  1.1492  1.1805
 9531TIP3   OH250007   3.507   1.950   0.432  0.3497  0.1185  0.0934
 9531TIP3    H150008   3.596   1.933   0.402  0.0551  1.6880 -1.8232
 9531TIP3    H250009   3.451   1.923   0.359 -0.7880 -1.1862  1.4126
 9532TIP3   OH250010   4.081   0.367  10.803 -0.1038  0.2121  0.3019
 9532TIP3    H150011   4.037   0.282  10.801 -0.7844  0.5744  0.0206
 9532TIP3    H250012   4.158   0.352  10.859  0.1241 -0.7549 -0.2556
 9533TIP3   OH250013   5.270   1.582  12.075 -0.0487  0.0975  0.0466
 9533TIP3    H150014   5.288   1.509  12.134  0.5591  0.5093  0.3754
 9533TIP3    H250015   5.184   1.615  12.102  0.8345  1.1826  1.6393
 9534TIP3   OH250016   4.005   6.769  15.931 -0.7079  0.1002 -0.3491
 9534TIP3    H150017   4.017   6.864  15.928  0.0198  0.0784  1.3930
 9534TIP3    H250018   3.941   6.755  16.000 -0.3739 -0.7284 -0.2011
 9535TIP3   OH250019   2.246   0.527   2.981  0.0481  0.0092  0.0666
 9535TIP3    H150020   2.197   0.474   3.043  1.5335 -0.2585  1.0396
 9535TIP3    H250021   2.330   0.481   2.970  0.2937  0.7167 -1.1690
 9536TIP3   OH250022   1.118   5.005  11.254 -0.4723  0.0145  0.3460
 9536TIP3    H150023   1.134   4.911  11.248  0.3421  0.0505  1.5985
 9536TIP3    H250024   1.196   5.045  11.216  0.2961  0.1692  1.9985
 9537TIP3   OH250025   4.315   2.274   0.074  0.4648 -0.1954 -0.2232
 9537TIP3    H150026   4.392   2.232   0.114  1.5295  1.8177 -0.0970
 9537TIP3    H250027   4.245   2.261   0.137  1.6803  1.3739  1.5151
 9538TIP3   OH250028   3.683   1.436   4.557 -0.1094 -0.1126  0.2022
 9538TIP3    H150029   3.743   1.491   4.606 -0.6235 -0.5996  1.4014
 9538TIP3    H250030   3.700   1.347   4.588  0.3049 -0.5708 -1.2866
 9539TIP3   OH250031   0.774   3.162   3.101  0.1406  0.0512  0.1210
 9539TIP3    H150032   0.763   3.069   3.081  0.1827 -0.3579  1.8804
 9539TIP3    H250033   0.755   3.168   3.195  1.6302  1.5705  0.3370
 9540TIP3   OH250034   1.330   6.426  15.019 -0.4008 -0.3684  0.2981
 9540TIP3    H150035   1.420   6.435  14.987 -0.1684  0.5353  1.1869
 9540TIP3    H250036   1.300   6.343  14.984 -0.5401  1.0815 -3.2244
 9541TIP3   OH250037   5.857   3.246   4.617 -0.2417 -0.4399  0.2051
 9541TIP3    H150038   5.763   3.259   4.605 -0.5419  0.0441  2.7720
 9541TIP3    H250039   5.887   3.325   4.662  1.4297 -0.5530 -0.6444
 9542TIP3   OH250040   3.448   2.030   2.767 -0.1989 -0.3989 -0.0600
 9542TIP3    H150041   3.475   2.005   2.678  0.3690 -0.1951  0.0525
 9542TIP3    H250042   3.371   1.976   2.785 -0.3045 -0.4553 -0.6706
 9543TIP3   OH250043   2.051   4.434   4.087  0.0540 -0.9255 -0.0274
 9543TIP3    H150044   2.124   4.495   4.095 -0.1664 -0.8757  1.8192
 9543TIP3    H250045   2.022   4.419   4.177 -3.1678  0.2293 -0.8025
 9544TIP3   OH250046   6.615   4.868   4.322  0.4297  0.4085 -0.7365
 9544TIP3    H150047   6.699   4.830   4.297  0.3490 -1.5181  1.7178
 9544TIP3    H250048   6.551   4.822   4.267  0.5864 -1.2429  0.4265
 9545TIP3   OH250049   3.665   3.516  15.416  0.2914  0.1937 -0.1311
 9545TIP3    H150050   3.595   3.466  15.372  1.2555  1.0821 -2.7420
 9545TIP3    H250051   3.631   3.530  15.505 -1.1077 -2.8593 -0.0917
 9546TIP3   OH250052   3.418   0.617  10.241 -0.1087 -0.2567 -0.1511
 9546TIP3    H150053   3.329   0.585  10.223 -0.3690  0.8525 -0.8945
 9546TIP3    H250054   3.433   0.684  10.174  1.8481 -1.4543 -0.9458
 9547TIP3   OH250055   6.436   6.632  17.148  0.5317 -0.0231  0.1441
 9547TIP3    H150056   6.447   6.592  17.062  1.2732  1.1009 -0.2874
 9547TIP3    H250057   6.383   6.710  17.132 -1.7137 -1.2884  1.1163
 9548TIP3   OH250058   3.485   4.262   0.307  0.8387  0.6584 -0.0101
 9548TIP3    H150059   3.503   4.170   0.290  2.3261  1.2659 -1.8658
 9548TIP3    H250060   3.395   4.263   0.340 -0.1545 -1.2003 -2.5299
 9549TIP3   OH250061   5.623   5.128   3.720 -0.2104 -0.0712 -0.0351
 9549TIP3    H150062   5.660   5.079   3.646  0.6997  0.5326  0.0134
 9549TIP3    H250063   5.653   5.080   3.797 -1.4812 -0.9250 -0.0562
 9550TIP3   OH250064   5.395   1.480   1.743  0.4319 -0.1716 -0.1107
 9550TIP3    H150065   5.322   1.514   1.692  1.6451 -0.7893 -2.3094
 9550TIP3    H250066   5.383   1.385   1.740  0.5077 -0.2105  0.7733
 9551TIP3   OH250067   4.325   6.431  13.709  0.0194  0.7623 -0.3871
 9551TIP3    H150068   4.420   6.415  13.713  0.0295  0.7586 -0.6695
 9551TIP3    H250069   4.297   6.428  13.801  0.5534  2.3542 -0.1444
 9552TIP3   OH250070   2.422   5.809  12.429  0.0564  0.3750  0.0660
 9552TIP3    H150071   2.511   5.773  12.432  0.5865  1.2061 -3.3029
 9552TIP3    H250072   2.432   5.900  12.457 -0.0775 -0.0830  1.6190
 9553TIP3   OH250073   6.445   6.457   4.437  0.4704 -0.1125  0.4551
 9553TIP3    H150074   6.419   6.465   4.345 -0.9980  0.9611  0.9496
 9553TIP3    H250075   6.530   6.412   4.434  1.2268  1.3995 -1.5067
 9554TIP3   OH250076   3.833   3.916   2.219 -0.5719 -0.5479 -0.5393
 9554TIP3    H150077   3.902   3.850   2.230  0.0846  0.1933 -0.1599
 9554TIP3    H250078   3.820   3.951   2.307 -0.2014  0.5353 -0.9096
 9555TIP3   OH250079   4.672   6.023   1.460 -0.5110 -0.3981 -0.5420
 9555TIP3    H150080   4.764   6.049   1.463 -0.9613  1.1504  0.4128
 9555TIP3    H250081   4.674   5.930   1.435  1.3030 -0.3949 -0.4675
 9556TIP3   OH250082   2.457   1.640  16.980 -0.0841  0.5220  0.6691
 9556TIP3    H150083   2.446   1.545  16.980 -0.4097  0.5315  3.0364
 9556TIP3    H250084   2.428   1.668  16.893 -0.7216 -1.4558  0.2270
 9557TIP3   OH250085   0.108   5.189   6.698 -0.0849  0.2007  0.2003
 9557TIP3    H150086   0.153   5.263   6.739  0.4172  0.5414 -0.9596
 9557TIP3    H250087   0.033   5.228   6.652  0.7568  0.1315 -1.2681
 9558TIP3   OH250088   1.701   2.210  12.604  0.4085 -0.7487  0.3034
 9558TIP3    H150089   1.613   2.173  12.615 -0.0698  0.2875  0.1016
 9558TIP3    H250090   1.720   2.250  12.689 -0.4144  1.2781 -0.4272
 9559TIP3   OH250091   0.793   6.221  13.198 -0.1397 -0.2753  0.3822
 9559TIP3    H150092   0.740   6.293  13.163 -0.7664 -0.9069  0.0085
 9559TIP3    H250093   0.743   6.191  13.274 -1.0944 -1.8406 -0.8334
 9560TIP3   OH250094   4.079   6.779   4.904  0.7055  0.8037 -0.4583
 9560TIP3    H150095   4.141   6.844   4.936  0.5335  0.2085  1.1359
 9560TIP3    H250096   3.998   6.828   4.890  0.3744  0.8278  1.4112
 9561TIP3   OH250097   6.777   6.148   5.921 -0.1618 -0.1877 -0.3138
 9561TIP3    H150098   6.717   6.213   5.884 -0.1398  0.8715  1.4341
 9561TIP3    H250099   6.726   6.067   5.925 -0.7055  0.1180 -1.0503
 9562TIP3   OH250100   1.637   2.495   5.113  0.2461  0.2094  0.0860
 9562TIP3    H150101   1.602   2.545   5.186 -1.5835 -0.9355  0.0370
 9562TIP3    H250102   1.624   2.551   5.037 -0.4801  0.2556  0.2394
 9563TIP3   OH250103   2.391   2.155  14.395  0.1250 -0.0585  0.2223
 9563TIP3    H150104   2.481   2.152  14.362  0.4311  0.4357  1.0055
 9563TIP3    H250105   2.374   2.248  14.410 -0.5129 -0.1554  0.0973
 9564TIP3   OH250106   3.153   5.812  16.480  0.1048 -0.2348 -0.0503
 9564TIP3    H150107   3.175   5.904  16.463 -0.5522 -0.0225  0.2311
 9564TIP3    H250108   3.064   5.815  16.515 -0.2348 -1.0468 -0.8256
 9565TIP3   OH250109   3.254   0.272  15.450  0.2663 -0.1995 -0.3818
 9565TIP3    H150110   3.195   0.340  15.484 -0.1170  0.0789 -1.6011
 9565TIP3    H250111   3.201   0.193  15.450  0.3697 -0.2704 -0.0252
 9566TIP3   OH250112   3.566   2.755   5.453  0.0062 -0.6250 -0.6359
 9566TIP3    H150113   3.651   2.795   5.469  1.0241 -2.5486 -1.0970
 9566TIP3    H250114   3.526   2.812   5.386  0.5370  0.7829  0.2131
 9567TIP3   OH250115   1.077   5.213   4.109  0.0974 -0.4299 -0.3164
 9567TIP3    H150116   1.167   5.181   4.112  0.9739  1.8358 -1.4444
 9567TIP3    H250117   1.065   5.257   4.193  0.2389 -0.2277 -0.4018
 9568TIP3   OH250118   1.441   1.535   1.867 -0.0882 -0.3729 -0.2202
 9568TIP3    H150119   1.462   1.568   1.954 -1.7131 -0.1166  0.0893
 9568TIP3    H250120   1.515   1.562   1.813  0.7369 -0.1741  0.9905
 9569TIP3   OH250121   4.539   1.182   4.514  0.1017 -0.1995  0.2330
 9569TIP3    H150122   4.498   1.096   4.504 -1.3178  0.6464 -1.7272
 9569TIP3    H250123   4.468   1.239   4.544  1.2295  0.1356  2.3579
 9570TIP3   OH250124   0.308   1.156   3.051  0.0871  0.5298  0.3812
 9570TIP3    H150125   0.282   1.209   3.126 -0.2724  1.1768 -0.1943
 9570TIP3    H250126   0.384   1.202   3.015  1.8233 -1.1462  1.8292
 9571TIP3   OH250127   2.135   1.544   3.552 -0.5778  0.0596  0.1106
 9571TIP3    H150128   2.124   1.621   3.497  0.1495  0.4364  0.4867
 9571TIP3    H250129   2.229   1.537   3.565 -0.6410 -0.9036  0.0650
 9572TIP3   OH250130   0.634   6.624   3.828  0.0919  0.0942 -0.3515
 9572TIP3    H150131   0.689   6.570   3.772 -1.4283 -2.1432  0.2196
 9572TIP3    H250132   0.695   6.675   3.881  1.6074 -1.5256 -0.4972
 9573TIP3   OH250133   4.800   4.440  16.846 -0.4173  0.0019 -0.5057
 9573TIP3    H150134   4.830   4.351  16.828  0.0349 -0.2323  1.3454
 9573TIP3    H250135   4.731   4.429  16.911 -1.5161  0.8796 -1.5206
 9574TIP3   OH250136   5.777   1.990   3.148  0.0388  0.2632  0.4733
 9574TIP3    H150137   5.856   1.993   3.094 -0.4046  1.4404 -0.1424
 9574TIP3    H250138   5.791   2.058   3.214 -0.8532  1.1274 -0.2158
 9575TIP3   OH250139   2.088   6.602   3.930 -0.1076 -0.3218  0.0558
 9575TIP3    H150140   2.130   6.525   3.891 -2.5445 -1.2048 -0.9693
 9575TIP3    H250141   2.015   6.566   3.982 -0.7924  1.2364  0.2182
 9576TIP3   OH250142   2.813   6.624  11.634 -0.2784  0.4186 -0.5541
 9576TIP3    H150143   2.781   6.709  11.664  0.4262  0.4588  0.0868
 9576TIP3    H250144   2.888   6.645  11.578 -0.5075  0.2461 -0.9321
 9577TIP3   OH250145   4.442   6.101  16.361 -0.3679  0.1291 -0.4160
 9577TIP3    H150146   4.404   6.064  16.281 -1.1800 -0.3494  0.1901
 9577TIP3    H250147   4.388   6.066  16.432  1.6455 -1.1774  0.5219
 9578TIP3   OH250148   2.667   0.874   3.945 -0.4634 -0.2857 -0.3911
 9578TIP3    H150149   2.709   0.903   3.864  0.0548  0.4484  0.1344
 9578TIP3    H250150   2.574   0.871   3.924 -0.4486  1.0128 -0.6840
 9579TIP3   OH250151   2.630   6.015  15.948  0.4422 -0.3384  0.2327
 9579TIP3    H150152   2.583   6.097  15.941 -0.9277 -1.0778  0.6720
 9579TIP3    H250153   2.665   5.999  15.860  0.9206  0.8203  0.2049
 9580TIP3   OH250154   3.738   5.027   0.848  0.6909  0.0330 -0.0397
 9580TIP3    H150155   3.729   4.932   0.836 -0.0300  0.1464 -0.4215
 9580TIP3    H250156   3.821   5.037   0.894  0.2792 -0.8534  0.9273
 9581TIP3   OH250157   1.835   6.064  15.267  0.4761  0.1975 -0.7185
 9581TIP3    H150158   1.879   6.121  15.330  1.7654 -1.8034  0.2590
 9581TIP3    H250159   1.906   6.012  15.228 -0.6310 -0.5513 -1.7714
 9582TIP3   OH250160   5.756   6.777   2.219  0.2785 -0.1536 -0.0536
 9582TIP3    H150161   5.693   6.849   2.213  0.6972  0.2612  0.4645
 9582TIP3    H250162   5.824   6.810   2.278  0.9623 -0.6160 -0.5831
 9583TIP3   OH250163   3.747   4.793   3.399 -0.0901 -0.5127 -0.0549
 9583TIP3    H150164   3.685   4.852   3.355 -0.4715 -0.9481 -0.0989
 9583TIP3    H250165   3.829   4.843   3.401 -0.5734  0.2754  0.4813
 9584TIP3   OH250166   3.791   4.444   3.756  0.3721 -0.6924 -1.0308
 9584TIP3    H150167   3.827   4.527   3.788 -0.4493 -0.6671 -0.1725
 9584TIP3    H250168   3.863   4.406   3.705  0.7497  0.5493 -1.4493
 9585TIP3   OH250169   3.855   1.100   2.653  0.6624  0.3919 -0.2403
 9585TIP3    H150170   3.904   1.030   2.608  1.4604 -0.0562  1.3058
 9585TIP3    H250171   3.797   1.053   2.713 -0.5068  0.9935 -0.8638
 9586TIP3   OH250172   5.121   3.705   4.969  0.3834 -0.3510 -0.0643
 9586TIP3    H150173   5.061   3.637   5.000 -1.1809  0.8213 -0.4524
 9586TIP3    H250174   5.143   3.679   4.879 -2.1035  0.8279 -1.0842
 9587TIP3   OH250175   4.942   0.286   4.263  0.3429  0.4408  0.1547
 9587TIP3    H150176   4.967   0.193   4.259  0.5421  0.4911  0.2279
 9587TIP3    H250177   4.856   0.286   4.306  0.0006  0.2271 -0.5243
 9588TIP3   OH250178   3.638   2.469  13.327  0.2994  0.5015 -0.1696
 9588TIP3    H150179   3.575   2.521  13.377  0.4959 -0.8935  1.5803
 9588TIP3    H250180   3.615   2.378  13.347  1.4093 -0.0612 -1.3603
 9589TIP3   OH250181   3.898   3.973  13.772 -0.2549  0.6088  0.1651
 9589TIP3    H150182   3.851   3.934  13.845  0.4435  0.8358  0.7405
 9589TIP3    H250183   3.856   3.937  13.694  0.2574 -1.1498  0.6844
 9590TIP3   OH250184   5.882   4.120   3.733 -0.2298  0.2279 -0.1012
 9590TIP3    H150185   5.889   4.037   3.781 -3.2165  0.0070  0.0063
 9590TIP3    H250186   5.876   4.187   3.801  0.8174  0.4247 -0.1923
 9591TIP3   OH250187   5.240   6.546  16.463 -0.0777  0.0033  0.4095
 9591TIP3    H150188   5.287   6.469  16.431  0.1765  0.2675  0.1444
 9591TIP3    H250189   5.307   6.598  16.508  0.3175  1.3615 -1.7137
 9592TIP3   OH250190   4.451   2.306   4.257  0.5373 -0.4037  0.5826
 9592TIP3    H150191   4.474   2.299   4.165 -1.8414  2.3639 -0.3103
 9592TIP3    H250192   4.519   2.257   4.303  1.7057 -1.9328 -2.6144
 9593TIP3   OH250193   4.573   5.146  11.358  0.2416 -0.2952 -0.2643
 9593TIP3    H150194   4.654   5.110  11.323  0.7964  1.9401 -1.4247
 9593TIP3    H250195   4.598   5.188  11.440 -0.2462 -1.7864  0.6695
 9594TIP3   OH250196   0.383   3.886  16.770 -0.4443 -0.1086  0.3198
 9594TIP3    H150197   0.437   3.893  16.849  1.1705 -0.9591 -0.6786
 9594TIP3    H250198   0.424   3.947  16.708 -1.1516 -0.1190 -0.1573
 9595TIP3   OH250199   6.485   3.184   3.920  0.0878 -0.2079 -0.1717
 9595TIP3    H150200   6.516   3.255   3.863  1.1617 -0.8914 -0.4365
 9595TIP3    H250201   6.500   3.217   4.009 -0.6218  0.4226 -0.2715
 9596TIP3   OH250202   5.726   1.144   2.935  0.1794  0.4153 -0.3011
 9596TIP3    H150203   5.654   1.087   2.963 -0.8383  0.9471 -1.8016
 9596TIP3    H250204   5.689   1.232   2.936  0.3535  0.5381 -2.5021
 9597TIP3   OH250205   6.402   2.676   3.064  0.1639  0.0537 -0.2494
 9597TIP3    H150206   6.386   2.609   2.998  0.9183 -0.6913  0.3112
 9597TIP3    H250207   6.324   2.731   3.062 -1.0198 -1.5838  0.1671
 9598TIP3   OH250208   4.032   2.622  12.552 -0.6158  0.3482  0.3580
 9598TIP3    H150209   3.949   2.648  12.511  1.1190  1.1515 -2.8663
 9598TIP3    H250210   4.065   2.552  12.495  0.2358 -0.9768  2.4402
 9599TIP3   OH250211   0.957   2.838  11.949  0.1951  0.0261 -0.4178
 9599TIP3    H150212   1.014   2.872  12.018 -0.3096  1.0538 -0.4961
 9599TIP3    H250213   0.968   2.743  11.954 -0.0867  0.0669  1.2922
 9600TIP3   OH250214   0.320   1.648   5.334 -0.0867 -0.1018 -0.0991
 9600TIP3    H150215   0.384   1.712   5.305  1.2816 -1.7835 -0.8505
 9600TIP3    H250216   0.306   1.668   5.427  0.6889  0.9607 -0.2101
 9601TIP3   OH250217   3.168   0.754  11.708  0.1668  0.3240 -0.1043
 9601TIP3    H150218   3.242   0.815  11.698 -0.3566  0.8880 -0.5959
 9601TIP3    H250219   3.191   0.680  11.651  0.4186  0.4427 -0.1588
 9602TIP3   OH250220   0.409   2.752  12.436  0.0997 -0.2600 -0.2515
 9602TIP3    H150221   0.326   2.799  12.442 -0.3557 -1.2764  2.0179
 9602TIP3    H250222   0.433   2.756  12.343 -1.2136  2.1840 -0.5137
 9603TIP3   OH250223   5.736   3.327  16.577  0.4307 -0.1744 -0.0169
 9603TIP3    H150224   5.728   3.387  16.652 -1.3418 -0.7746  0.2993
 9603TIP3    H250225   5.822   3.286  16.589  1.3347  1.7412  0.1798
 9604TIP3   OH250226   3.055   5.224   3.912 -0.1643 -0.4006  0.1534
 9604TIP3    H150227   3.105   5.302   3.934 -0.8166 -0.4517  1.9122
 9604TIP3    H250228   3.051   5.174   3.994  0.4565 -2.4046 -0.9964
 9605TIP3   OH250229   4.277   0.211  13.910  0.2185 -0.2998  0.0867
 9605TIP3    H150230   4.289   0.295  13.866  1.0645 -1.1400 -1.3355
 9605TIP3    H250231   4.325   0.219  13.992  3.2566 -0.5698 -1.5906
 9606TIP3   OH250232   0.426   3.960   3.897 -0.1005 -0.3278  0.2495
 9606TIP3    H150233   0.520   3.942   3.895  0.2983  1.6007  1.0968
 9606TIP3    H250234   0.418   4.051   3.868 -1.8335 -0.8980 -1.1554
 9607TIP3   OH250235   5.912   5.195  12.444  0.4736  0.2945  0.3334
 9607TIP3    H150236   5.953   5.109  12.430  1.3378  0.8197 -0.3799
 9607TIP3    H250237   5.851   5.180  12.516 -0.0917 -1.1525 -0.4208
 9608TIP3   OH250238   4.724   1.538  13.760  0.3150  0.3231  0.0477
 9608TIP3    H150239   4.730   1.455  13.808 -1.0564  0.8507  1.1452
 9608TIP3    H250240   4.723   1.605  13.829  2.7014  1.3561 -0.8583
 9609TIP3   OH250241   1.915   1.328  15.374 -0.3381  0.0027  0.0795
 9609TIP3    H150242   1.970   1.346  15.451  1.3461  0.0590 -1.1228
 9609TIP3    H250243   1.917   1.232  15.366 -1.4676 -0.0914  0.7772
 9610TIP3   OH250244   3.073   5.791  13.160 -0.1881 -0.0965  0.1365
 9610TIP3    H150245   3.144   5.842  13.200 -0.1233  0.3117 -0.4915
 9610TIP3    H250246   2.998   5.849  13.162  0.1957  0.4832 -1.6933
 9611TIP3   OH250247   5.058   1.092  15.108 -0.5436 -0.2711  0.4628
 9611TIP3    H150248   4.984   1.149  15.128 -1.5096 -1.9285  1.7241
 9611TIP3    H250249   5.019   1.013  15.070  0.4760 -1.5382  1.9530
 9612TIP3   OH250250   1.413   5.805  16.446 -0.5015  0.1899  0.3291
 9612TIP3    H150251   1.471   5.868  16.488  1.5005 -1.0210 -0.5654
 9612TIP3    H250252   1.403   5.838  16.356  0.3398 -0.6136 -0.0646
 9613TIP3   OH250253   4.363   2.318   3.428 -0.1587  0.4482 -0.2507
 9613TIP3    H150254   4.287   2.321   3.370  0.1052  1.0748 -0.5711
 9613TIP3    H250255   4.349   2.389   3.491  0.4207  0.9168 -0.6445
 9614TIP3   OH250256   4.615   1.512   3.430  0.7129  0.0392 -0.2159
 9614TIP3    H150257   4.534   1.505   3.481  0.7189  0.9338 -0.0771
 9614TIP3    H250258   4.650   1.598   3.452  1.0923  0.1419 -1.1754
 9615TIP3   OH250259   0.579   5.438  16.490  0.5317  0.3117 -0.8736
 9615TIP3    H150260   0.490   5.464  16.466 -0.1784 -1.7495 -0.6234
 9615TIP3    H250261   0.623   5.423  16.406  0.0108 -0.6203 -0.9910
 9616TIP3   OH250262   4.115   4.332   0.745 -0.0539  0.4460  0.5370
 9616TIP3    H150263   4.172   4.268   0.787  2.0645  0.4005 -2.2965
 9616TIP3    H250264   4.035   4.283   0.724  1.3438 -1.1631 -1.1436
 9617TIP3   OH250265   4.106   3.333   0.997  0.3802  0.1447 -0.2171
 9617TIP3    H150266   4.095   3.309   1.089 -1.1645  0.7800 -0.2365
 9617TIP3    H250267   4.200   3.322   0.982  0.5645 -0.5401  1.2682
 9618TIP3   OH250268   5.737   2.097   6.136  0.0957  0.1797 -0.4835
 9618TIP3    H150269   5.662   2.109   6.077  0.0574 -0.9156 -0.6623
 9618TIP3    H250270   5.788   2.026   6.096  0.9072  0.5012 -0.0328
 9619TIP3   OH250271   1.623   6.098  14.959  0.3573  0.3840  0.3403
 9619TIP3    H150272   1.642   6.012  14.996  0.3480  0.8253  1.3976
 9619TIP3    H250273   1.708   6.134  14.934  0.3200 -0.1083 -0.5194
 9620TIP3   OH250274   2.908   1.765  13.739 -0.3816  0.0159 -0.1571
 9620TIP3    H150275   2.958   1.719  13.806 -0.1128 -0.4681 -0.6868
 9620TIP3    H250276   2.833   1.708  13.721 -0.1990 -0.0897 -0.6089
 9621TIP3   OH250277   0.098   4.131   5.127  0.5010 -0.7821  0.1896
 9621TIP3    H150278   0.138   4.118   5.041 -2.4508  0.5880 -1.4694
 9621TIP3    H250279   0.144   4.070   5.184  3.0697 -1.1673 -2.1657
 9622TIP3   OH250280   4.222   1.205  12.078 -0.7138 -0.6287  0.4692
 9622TIP3    H150281   4.148   1.144  12.087 -1.6485  0.1816 -1.4121
 9622TIP3    H250282   4.201   1.257  12.000  1.3182  0.3668  0.5487
 9623TIP3   OH250283   0.121   1.936   4.359  0.4093 -0.2466 -0.2663
 9623TIP3    H150284   0.181   1.922   4.432  1.5196 -0.0576 -1.1211
 9623TIP3    H250285   0.176   1.974   4.290 -0.6657 -0.2114 -1.1211
 9624TIP3   OH250286   1.628   3.026  11.153 -0.2204 -0.5724 -0.1174
 9624TIP3    H150287   1.708   3.044  11.203 -0.0832  0.8954 -0.8431
 9624TIP3    H250288   1.623   3.097  11.089 -4.0935  1.4960  2.2880
 9625TIP3   OH250289   4.213   1.097   4.217  0.3821  0.1082 -0.1516
 9625TIP3    H150290   4.290   1.146   4.190  2.5273 -1.3593  2.9785
 9625TIP3    H250291   4.154   1.163   4.254  1.5984  0.8478  0.4898
 9626TIP3   OH250292   1.820   0.520  15.084  0.0018 -0.3792  0.4531
 9626TIP3    H150293   1.766   0.451  15.122  0.0445  0.1827  1.5382
 9626TIP3    H250294   1.900   0.475  15.056 -0.4899 -0.9853  0.0066
 9627TIP3   OH250295   3.572   5.549  12.682 -0.7300 -0.4342 -0.2804
 9627TIP3    H150296   3.631   5.602  12.629 -0.7494 -0.1196  0.0110
 9627TIP3    H250297   3.486   5.590  12.671 -0.7290 -0.3519  0.0176
 9628TIP3   OH250298   3.556   1.269  11.103  0.2660 -0.4003 -0.5954
 9628TIP3    H150299   3.604   1.252  11.022 -0.8078 -0.4620 -1.2250
 9628TIP3    H250300   3.523   1.183  11.129  0.2827 -0.3170 -0.2948
 9629TIP3   OH250301   1.026   2.102  13.913 -0.1377  0.1827  0.1937
 9629TIP3    H150302   1.022   2.172  13.978 -0.9425 -0.7439  1.1621
 9629TIP3    H250303   0.983   2.139  13.835  0.7777  1.2708  0.1909
 9630TIP3   OH250304   6.388   3.929   1.686  0.0014  1.0086  0.0612
 9630TIP3    H150305   6.471   3.883   1.676 -1.4464 -1.4929 -0.8938
 9630TIP3    H250306   6.384   3.988   1.611  0.4776  0.3743 -0.4716
 9631TIP3   OH250307   2.697   6.711   3.512  0.2394  0.4717  0.0275
 9631TIP3    H150308   2.643   6.778   3.555 -2.0974 -0.0531 -1.9397
 9631TIP3    H250309   2.646   6.631   3.519  1.4347 -0.3632 -0.6464
 9632TIP3   OH250310   0.649   4.221  14.165 -0.2882 -0.2535 -0.0998
 9632TIP3    H150311   0.566   4.173  14.163 -0.6139  0.2549  0.8372
 9632TIP3    H250312   0.624   4.312  14.154  0.0086  0.0389  1.4753
 9633TIP3   OH250313   0.425   2.823  13.020 -0.2579 -0.0859  0.4927
 9633TIP3    H150314   0.449   2.841  12.929 -2.2116  4.1892  0.7088
 9633TIP3    H250315   0.487   2.875  13.072 -1.3058  0.2154  1.4687
 9634TIP3   OH250316   6.408   3.742   0.313  0.0523 -0.4127  0.1930
 9634TIP3    H150317   6.467   3.817   0.309  0.2674 -0.6403 -1.1191
 9634TIP3    H250318   6.361   3.743   0.230 -0.2842 -1.4564  0.3548
 9635TIP3   OH250319   0.236   4.304   1.302  0.0194 -0.2172 -0.1913
 9635TIP3    H150320   0.241   4.276   1.211  0.3729  0.4416 -0.3825
 9635TIP3    H250321   0.157   4.263   1.336 -0.5853  0.2233 -1.0384
 9636TIP3   OH250322   1.249   2.650  11.881 -0.3512 -0.6110  0.0731
 9636TIP3    H150323   1.233   2.601  11.800 -1.0408 -0.6275  0.2095
 9636TIP3    H250324   1.285   2.734  11.853  0.4755 -1.0510 -0.1851
 9637TIP3   OH250325   1.042   4.518   6.743 -0.3053  0.0761  0.2103
 9637TIP3    H150326   1.059   4.551   6.654  0.4952 -2.3138 -0.5469
 9637TIP3    H250327   1.121   4.538   6.792  0.1605 -0.6970 -0.2311
 9638TIP3   OH250328   1.416   2.387   2.293 -0.5262 -0.1211  0.4123
 9638TIP3    H150329   1.493   2.350   2.249 -1.5587 -1.1873 -0.5019
 9638TIP3    H250330   1.427   2.361   2.385  0.3790  0.0436  0.3609
 9639TIP3   OH250331   3.395   2.680   2.325  0.6251  0.4952 -0.1673
 9639TIP3    H150332   3.446   2.690   2.244 -1.2718 -2.2706 -1.7980
 9639TIP3    H250333   3.306   2.665   2.295 -0.5382  1.6802  2.5561
 9640TIP3   OH250334   3.401   0.596  17.154 -0.2534 -0.3316  0.8541
 9640TIP3    H150335   3.454   0.580  17.232  0.3475  1.2211  0.7721
 9640TIP3    H250336   3.315   0.623  17.187 -0.2334 -0.4099  0.9691
 9641TIP3   OH250337   4.202   3.907  15.159 -0.2911 -0.1253  0.8373
 9641TIP3    H150338   4.277   3.901  15.100 -0.0105 -2.6527  1.4127
 9641TIP3    H250339   4.136   3.850  15.120 -0.7422 -0.4404  2.0489
 9642TIP3   OH250340   1.506   5.238   2.153 -0.9098  0.3882 -0.5099
 9642TIP3    H150341   1.413   5.225   2.131 -0.3982 -1.8387 -1.5132
 9642TIP3    H250342   1.543   5.276   2.074 -0.7775  0.3684 -0.4567
 9643TIP3   OH250343   6.266   3.325   2.190 -0.3131  0.4354 -0.1022
 9643TIP3    H150344   6.320   3.297   2.264  0.8138 -2.2292 -1.8670
 9643TIP3    H250345   6.183   3.278   2.202 -0.1064 -0.0482 -0.5551
 9644TIP3   OH250346   0.647   3.646  13.897  0.1928 -0.1348 -0.2063
 9644TIP3    H150347   0.641   3.575  13.833  1.5619 -0.1133 -0.3851
 9644TIP3    H250348   0.557   3.659  13.928 -0.3933 -0.5030 -1.7301
 9645TIP3   OH250349   1.155   0.570  11.507  0.2398  0.2248  0.0687
 9645TIP3    H150350   1.135   0.491  11.456 -0.2304  2.3118 -3.1856
 9645TIP3    H250351   1.247   0.587  11.490 -0.0739  1.2830 -0.6121
 9646TIP3   OH250352   1.447   1.712   5.494  0.2781 -0.2504  0.2831
 9646TIP3    H150353   1.407   1.794   5.523 -0.8359 -0.9765  0.8505
 9646TIP3    H250354   1.375   1.648   5.497  0.9170 -1.0454 -1.0181
 9647TIP3   OH250355   4.617   2.625   0.123 -0.1880 -0.2680  0.0881
 9647TIP3    H150356   4.673   2.556   0.087 -0.9647 -0.4625 -0.8008
 9647TIP3    H250357   4.675   2.681   0.173  0.8580 -0.2820 -1.0892
 9648TIP3   OH250358   0.842   2.078  17.044  0.3891  0.0379 -0.0414
 9648TIP3    H150359   0.818   2.099  16.954 -1.6936 -0.2173  0.4373
 9648TIP3    H250360   0.808   2.151  17.096  0.8780 -0.2023  0.6272
 9649TIP3   OH250361   6.451   1.648   0.254 -0.3759  0.0257 -0.0172
 9649TIP3    H150362   6.430   1.702   0.330  0.3568 -1.7411  1.4723
 9649TIP3    H250363   6.528   1.690   0.215  0.3702 -0.1038  1.2913
 9650TIP3   OH250364   2.731   3.620  13.564  0.4913 -0.2038  0.2393
 9650TIP3    H150365   2.723   3.527  13.586 -1.3218 -0.5805 -1.8634
 9650TIP3    H250366   2.697   3.665  13.641 -0.6009 -1.3509  0.4601
 9651TIP3   OH250367   5.563   4.147   4.433 -0.1957  0.0706  0.1207
 9651TIP3    H150368   5.511   4.201   4.373  1.2688  0.1330 -1.1201
 9651TIP3    H250369   5.602   4.080   4.377  2.9388  1.4154  0.5608
 9652TIP3   OH250370   2.958   6.032   3.594  0.7327  0.5858 -0.0281
 9652TIP3    H150371   3.011   5.969   3.545  1.8751  1.0971  0.5087
 9652TIP3    H250372   2.953   5.996   3.682 -2.1629 -0.8286 -0.7280
 9653TIP3   OH250373   5.404   1.593   1.048 -0.3131  0.2210  0.3848
 9653TIP3    H150374   5.327   1.573   0.995 -0.4568 -1.2405  1.1410
 9653TIP3    H250375   5.478   1.577   0.990 -0.5469  1.3310 -0.2444
 9654TIP3   OH250376   0.099   6.125  10.807 -0.4012 -0.3885  0.4553
 9654TIP3    H150377   0.169   6.074  10.765 -1.3836  0.0783 -1.8461
 9654TIP3    H250378   0.143   6.202  10.843  0.2974 -0.1297 -0.9128
 9655TIP3   OH250379   5.901   3.498  14.386  0.1652 -0.0579  0.9865
 9655TIP3    H150380   5.885   3.406  14.407  1.4753 -0.2617  1.1064
 9655TIP3    H250381   5.902   3.542  14.471  0.8752 -0.1515  1.0304
 9656TIP3   OH250382   2.384   5.581   2.865 -0.6510  0.0919  0.4523
 9656TIP3    H150383   2.469   5.624   2.875  0.9941 -2.3485 -2.2469
 9656TIP3    H250384   2.320   5.651   2.877  1.8657  2.9351 -1.9233
 9657TIP3   OH250385   4.082   2.658   2.885 -0.2525  0.1678  0.1622
 9657TIP3    H150386   4.140   2.734   2.877  0.4011 -0.4249 -0.8565
 9657TIP3    H250387   4.047   2.646   2.796 -0.8530 -0.3259  0.4621
 9658TIP3   OH250388   4.796   5.211  16.320  0.5222  0.0895  0.2533
 9658TIP3    H150389   4.739   5.157  16.375 -0.0276 -0.7013 -1.0613
 9658TIP3    H250390   4.835   5.274  16.380  0.2795 -1.0462  1.6150
 9659TIP3   OH250391   5.936   0.554  15.193 -0.5009 -0.4902 -0.6092
 9659TIP3    H150392   6.003   0.591  15.250 -0.1731  0.4654 -1.5859
 9659TIP3    H250393   5.858   0.607  15.209 -0.3631 -0.1150 -1.1483
 9660TIP3   OH250394   0.540   1.373   2.734 -0.4846 -0.3188  0.3234
 9660TIP3    H150395   0.579   1.328   2.660  0.0467  1.4605 -0.5180
 9660TIP3    H250396   0.458   1.326   2.751 -0.8214 -0.4790 -1.6675
 9661TIP3   OH250397   4.103   2.662  14.663  0.2859 -0.1294 -0.2645
 9661TIP3    H150398   4.026   2.608  14.683  0.3545 -0.7270 -1.5450
 9661TIP3    H250399   4.174   2.622  14.713 -0.4118  0.9699  1.6381
 9662TIP3   OH250400   3.498   3.763  16.111 -0.4303  0.0334  0.0853
 9662TIP3    H150401   3.500   3.851  16.147 -0.6338  0.4508 -0.8861
 9662TIP3    H250402   3.446   3.712  16.173 -1.7313  0.9972 -0.1914
 9663TIP3   OH250403   3.514   5.976   2.917 -0.2188  0.6996  0.5918
 9663TIP3    H150404   3.445   5.974   2.983 -0.0456 -1.0301  0.7531
 9663TIP3    H250405   3.496   6.054   2.865 -0.2495  2.1812  2.7773
 9664TIP3   OH250406   3.061   1.054  16.349 -0.4609 -0.1042 -0.5336
 9664TIP3    H150407   3.117   1.132  16.350  0.1002 -0.5214  0.9083
 9664TIP3    H250408   3.120   0.983  16.324 -0.6763 -0.3047 -0.4679
 9665TIP3   OH250409   5.442   3.561   1.222 -0.0352 -0.1797 -0.3340
 9665TIP3    H150410   5.507   3.627   1.244 -0.0591  0.6330 -2.6025
 9665TIP3    H250411   5.492   3.491   1.179 -0.2256 -0.9602  0.6985
 9666TIP3   OH250412   4.933   2.037  16.631  0.0964  0.1438 -0.0453
 9666TIP3    H150413   4.922   2.052  16.725 -0.2896  0.4467 -0.1338
 9666TIP3    H250414   4.953   2.123  16.595  1.5365 -0.1991 -0.0687
 9667TIP3   OH250415   1.481   3.568  11.499  0.4876  0.1483 -0.0259
 9667TIP3    H150416   1.425   3.615  11.436 -0.5431 -1.0364 -0.0210
 9667TIP3    H250417   1.564   3.615  11.497  0.1100  0.7956 -1.4687
 9668TIP3   OH250418   1.261   2.404   2.062 -0.2422  0.6705 -0.4152
 9668TIP3    H150419   1.327   2.416   2.131 -0.1663 -0.2966 -0.3164
 9668TIP3    H250420   1.260   2.488   2.015 -1.2152  1.8184  1.5601
 9669TIP3   OH250421   2.227   6.357  14.809 -0.4423 -0.3952 -0.1234
 9669TIP3    H150422   2.179   6.275  14.822 -0.1756 -0.5285  0.0194
 9669TIP3    H250423   2.189   6.417  14.874  0.1879 -0.7622  0.5958
 9670TIP3   OH250424   2.863   1.330  12.252 -0.3050  0.0393 -0.1209
 9670TIP3    H150425   2.818   1.254  12.215  1.1872 -0.5491 -0.7861
 9670TIP3    H250426   2.923   1.292  12.317 -1.7406  0.9216  1.7528
 9671TIP3   OH250427   1.903   6.326   4.186  0.1012 -0.2768  0.2679
 9671TIP3    H150428   1.844   6.382   4.136  1.5685  0.4460 -0.7229
 9671TIP3    H250429   1.864   6.239   4.183  1.4482 -0.8396 -4.4516
 9672TIP3   OH250430   1.744   3.930   5.471 -0.1289 -0.1589 -0.0354
 9672TIP3    H150431   1.810   3.861   5.467 -1.5148 -1.5343  0.1966
 9672TIP3    H250432   1.762   3.976   5.553  0.5146 -0.5717  0.0551
 9673TIP3   OH250433   4.829   6.767   3.958 -0.0669 -0.4472  0.5701
 9673TIP3    H150434   4.780   6.777   4.040  0.1241 -1.3606  0.8008
 9673TIP3    H250435   4.824   6.674   3.938 -0.8405 -0.0967 -0.9319
 9674TIP3   OH250436   1.246   2.344   5.221  0.2170 -0.3792  0.1375
 9674TIP3    H150437   1.330   2.322   5.261  0.0188  2.5076  2.3365
 9674TIP3    H250438   1.260   2.431   5.184 -0.7292 -1.4554 -2.8605
 9675TIP3   OH250439   2.233   3.917   3.748  0.3024  0.3000  0.5577
 9675TIP3    H150440   2.327   3.911   3.729  0.2910  1.9715 -0.0951
 9675TIP3    H250441   2.227   3.977   3.822 -0.3480  1.6457 -0.5498
 9676TIP3   OH250442   2.330   6.068  15.001  0.3185  0.0111  0.6834
 9676TIP3    H150443   2.369   5.985  14.974 -0.8092 -0.1927 -0.3542
 9676TIP3    H250444   2.317   6.059  15.095  2.7331  0.0762  1.0451
 9677TIP3   OH250445   6.002   2.029   5.526  0.3463 -0.1348 -0.0365
 9677TIP3    H150446   5.952   1.948   5.520 -0.0774  0.0889  0.4245
 9677TIP3    H250447   5.954   2.092   5.472  0.4326 -0.0729 -0.0416
 9678TIP3   OH250448   1.983   2.090  15.836  0.0560 -0.5037  0.1706
 9678TIP3    H150449   2.023   2.018  15.787 -0.3450 -1.0094  0.5702
 9678TIP3    H250450   1.923   2.131  15.774 -1.5228 -2.0425  0.6244
 9679TIP3   OH250451   2.627   3.724  12.774  0.1291 -0.2633  0.7996
 9679TIP3    H150452   2.626   3.694  12.865  0.7127  0.3086  1.0094
 9679TIP3    H250453   2.636   3.645  12.722  1.1220 -0.5067  1.3118
 9680TIP3   OH250454   1.391   1.794   1.628  0.1720  0.2620 -0.0876
 9680TIP3    H150455   1.462   1.763   1.683  1.4719  1.3328 -1.1328
 9680TIP3    H250456   1.314   1.747   1.660  1.5947 -2.0200  0.1026
 9681TIP3   OH250457   2.120   6.032  11.520 -0.2469 -0.5008  0.2210
 9681TIP3    H150458   2.158   5.974  11.586 -0.5846 -0.4405  0.4685
 9681TIP3    H250459   2.026   6.022  11.530 -0.5241  3.6497  3.5501
 9682TIP3   OH250460   2.038   1.861  11.452 -0.0534 -0.1228 -0.1711
 9682TIP3    H150461   2.072   1.813  11.376 -1.8124 -0.8791 -0.4900
 9682TIP3    H250462   2.039   1.953  11.424  1.7975 -0.1152 -0.1337
 9683TIP3   OH250463   4.159   5.770  15.862  0.3622  0.7264  0.6363
 9683TIP3    H150464   4.125   5.712  15.793  1.7897  0.0043  0.5103
 9683TIP3    H250465   4.103   5.847  15.858  0.0921  0.4755 -1.0073
 9684TIP3   OH250466   4.375   0.215   0.001 -0.2408 -0.1369  0.0875
 9684TIP3    H150467   4.366   0.120   0.007  0.6834 -0.3721 -1.6456
 9684TIP3    H250468   4.463   0.228  -0.034 -0.3606  1.3548  0.3099
 9685TIP3   OH250469   0.698   6.057   5.173  0.1792 -0.0724 -0.1336
 9685TIP3    H150470   0.678   6.104   5.253  1.8828  0.3294  0.0777
 9685TIP3    H250471   0.695   6.123   5.104  0.1348 -0.1363 -0.1938
 9686TIP3   OH250472   2.387   3.196   1.907  0.1960 -0.5191 -0.8689
 9686TIP3    H150473   2.427   3.188   1.821 -1.0925  0.2505 -1.5344
 9686TIP3    H250474   2.393   3.107   1.944  1.8426 -0.5871 -1.2310
 9687TIP3   OH250475   2.188   1.940  12.880 -0.0684 -0.2517 -0.2748
 9687TIP3    H150476   2.127   1.987  12.822  1.1027 -0.1651 -1.4542
 9687TIP3    H250477   2.185   1.850  12.849  0.8707 -0.1264 -0.7518
 9688TIP3   OH250478   0.000   2.969   4.079 -0.4275 -0.4554 -0.4394
 9688TIP3    H150479   0.001   2.884   4.124 -0.1487 -0.8624 -1.2025
 9688TIP3    H250480   0.092   2.987   4.060 -0.6815 -1.2911 -2.6860
 9689TIP3   OH250481   0.346   5.379  11.262  0.3582  0.0485  0.0253
 9689TIP3    H150482   0.353   5.319  11.188  1.6046 -0.9744  0.9556
 9689TIP3    H250483   0.253   5.377  11.286  0.4722 -1.8931  0.3527
 9690TIP3   OH250484   6.771   0.871   1.883 -0.6517  0.2996 -0.4951
 9690TIP3    H150485   6.688   0.829   1.858 -0.2521  0.4918 -2.1882
 9690TIP3    H250486   6.828   0.798   1.908 -0.4692 -0.0731 -1.9354
 9691TIP3   OH250487   3.275   6.442  12.241  0.9483  0.4612 -0.2884
 9691TIP3    H150488   3.214   6.485  12.182 -2.7476 -1.4013  1.9854
 9691TIP3    H250489   3.308   6.367  12.191  0.1920  0.6180 -1.0329
 9692TIP3   OH250490   0.553   5.990   3.160  0.3647  0.2597 -0.6078
 9692TIP3    H150491   0.570   5.928   3.088  0.1419 -0.0438 -0.4004
 9692TIP3    H250492   0.552   6.076   3.117  1.1752  0.1678 -0.8177
 9693TIP3   OH250493   5.724   4.701  16.521  0.5257  0.3286 -0.1125
 9693TIP3    H150494   5.698   4.791  16.502 -0.7646 -0.2903 -1.3466
 9693TIP3    H250495   5.719   4.656  16.437 -2.7590 -1.8756  1.1725
 9694TIP3   OH250496   3.753   0.490   2.596  0.0117  0.2702 -0.3259
 9694TIP3    H150497   3.726   0.581   2.609 -2.0589 -0.6777  2.7189
 9694TIP3    H250498   3.675   0.439   2.619  1.9350 -2.3458  0.5720
 9695TIP3   OH250499   0.187   4.075  11.926  0.1979  0.1469 -0.1982
 9695TIP3    H150500   0.107   4.117  11.957 -1.2976 -0.7966 -2.7042
 9695TIP3    H250501   0.242   4.148  11.897 -1.1486  0.6137 -1.6607
 9696TIP3   OH250502   5.500   0.015  16.738 -0.2885 -0.2105  0.5355
 9696TIP3    H150503   5.535   0.018  16.828 -1.2507  1.2555  0.8840
 9696TIP3    H250504   5.558   0.073  16.688 -1.7993  1.7743  0.9924
 9697TIP3   OH250505   0.359   1.307  11.406 -0.1783  0.0063 -0.1870
 9697TIP3    H150506   0.415   1.329  11.480 -1.4537  3.1396 -0.0589
 9697TIP3    H250507   0.412   1.325  11.329  0.3943 -1.0625 -0.0391
 9698TIP3   OH250508   6.555   5.482   2.006 -0.1602 -0.1474 -0.2393
 9698TIP3    H150509   6.635   5.534   1.997 -0.3847  0.2523  0.0092
 9698TIP3    H250510   6.585   5.394   2.028  0.2612 -0.3731 -1.6985
 9699TIP3   OH250511   2.005   6.602   3.022  0.3148 -0.2986  0.9867
 9699TIP3    H150512   2.035   6.512   3.035 -1.0714 -0.7720  0.9901
 9699TIP3    H250513   1.913   6.593   2.996  0.2208  1.1082  0.8080
 9700TIP3   OH250514   1.038   0.479  14.422  0.3659 -0.3883  0.0939
 9700TIP3    H150515   1.083   0.466  14.339  1.0675  1.7005  0.1312
 9700TIP3    H250516   1.032   0.391  14.460  1.6434 -1.1086 -1.3270
 9701TIP3   OH250517   5.938   1.799   5.377  0.0710  0.2176 -0.5324
 9701TIP3    H150518   5.888   1.720   5.358 -0.0875 -0.2821  1.7781
 9701TIP3    H250519   6.030   1.770   5.376  0.1149  0.4025 -1.5090
 9702TIP3   OH250520   5.775   2.800   3.017 -0.0655  0.1786  0.3746
 9702TIP3    H150521   5.868   2.825   3.025  0.2995 -0.8222 -0.6463
 9702TIP3    H250522   5.740   2.858   2.951 -0.3297  0.9859  1.2179
 9703TIP3   OH250523   3.665   3.120   4.967 -0.3764 -0.6785  0.1333
 9703TIP3    H150524   3.693   3.112   5.058 -2.1883  1.5440  0.9241
 9703TIP3    H250525   3.581   3.073   4.964 -0.9697  0.3859 -0.0606
 9704TIP3   OH250526   2.433   4.210  13.789 -0.3543 -0.4800 -0.0616
 9704TIP3    H150527   2.457   4.117  13.789 -0.6048 -0.5454 -0.9716
 9704TIP3    H250528   2.467   4.244  13.707  1.4263  0.6891  1.1321
 9705TIP3   OH250529   0.829   4.893   1.085 -0.0591 -0.1116 -0.5034
 9705TIP3    H150530   0.767   4.964   1.098  0.6025  0.1990  0.9869
 9705TIP3    H250531   0.873   4.916   1.002 -2.4905 -0.7956 -2.0419
 9706TIP3   OH250532   5.381   3.600  11.400  0.1991 -0.4137 -0.4046
 9706TIP3    H150533   5.319   3.625  11.332  0.3068 -0.6160 -0.5782
 9706TIP3    H250534   5.340   3.630  11.482  0.7416  1.1528 -0.6831
 9707TIP3   OH250535   0.524   1.016   0.703 -0.0493  0.4094 -0.0448
 9707TIP3    H150536   0.444   1.006   0.651 -0.7532  1.2798  0.8621
 9707TIP3    H250537   0.547   1.108   0.695 -2.1468  1.4051  3.9946
 9708TIP3   OH250538   2.116   0.931  17.221 -0.0985  0.2427  0.1691
 9708TIP3    H150539   2.140   0.903  17.133 -1.5922 -0.3991 -0.0499
 9708TIP3    H250540   2.127   1.026  17.220 -2.6795  0.5762 -1.5691
 9709TIP3   OH250541   4.888   1.439   4.647 -0.0773  0.1349 -0.2075
 9709TIP3    H150542   4.923   1.352   4.665 -0.9568 -0.2415 -0.3240
 9709TIP3    H250543   4.839   1.428   4.566  0.7455  0.9912 -0.8353
 9710TIP3   OH250544   2.151   4.001  13.979 -0.0772 -0.1408  0.0899
 9710TIP3    H150545   2.077   4.050  13.944  0.2405 -0.4634 -1.0504
 9710TIP3    H250546   2.163   3.928  13.918  1.3627  0.0763  0.0908
 9711TIP3   OH250547   6.178   2.499  15.480  0.0636  0.0984 -0.1400
 9711TIP3    H150548   6.124   2.420  15.480  0.4134 -0.1392 -0.2243
 9711TIP3    H250549   6.160   2.541  15.396 -0.5514  0.4034  0.1399
 9712TIP3   OH250550   5.886   6.597   3.502 -0.4144 -0.2186  0.5374
 9712TIP3    H150551   5.840   6.572   3.421  0.1088 -1.0751  0.5030
 9712TIP3    H250552   5.867   6.690   3.512 -0.7425 -0.1789 -0.4090
 9713TIP3   OH250553   2.739   6.259  14.078  0.2589  0.7208 -0.3986
 9713TIP3    H150554   2.645   6.249  14.093  0.4033  1.8115  1.4287
 9713TIP3    H250555   2.780   6.197  14.138  0.7027  0.3106 -1.1255
 9714TIP3   OH250556   4.057   0.498   0.973 -0.1324 -0.7138 -0.5380
 9714TIP3    H150557   4.026   0.568   0.915 -0.2861 -0.3790 -0.0505
 9714TIP3    H250558   4.148   0.523   0.993  0.5798 -1.8457 -2.2024
 9715TIP3   OH250559   6.060   4.077  13.739  0.2263 -0.0070  0.6266
 9715TIP3    H150560   5.998   4.128  13.792  1.8032  0.6953  1.8272
 9715TIP3    H250561   6.016   4.066  13.655 -1.8924 -0.2671  1.7366
 9716TIP3   OH250562   4.667   5.273  13.814 -0.4142 -0.5184  0.7031
 9716TIP3    H150563   4.573   5.288  13.821 -0.3182 -0.3942  1.8596
 9716TIP3    H250564   4.675   5.190  13.768 -1.0396  0.7015 -1.7208
 9717TIP3   OH250565   6.376   6.701   4.591  0.0893 -0.0494 -0.3675
 9717TIP3    H150566   6.457   6.706   4.541  0.3393  0.8371  0.1092
 9717TIP3    H250567   6.325   6.633   4.547  1.0611 -0.5775 -0.7024
 9718TIP3   OH250568   5.644   3.659  16.530 -0.0779  0.8662  0.8028
 9718TIP3    H150569   5.564   3.706  16.554  0.5521  2.2831  0.1561
 9718TIP3    H250570   5.685   3.639  16.614 -1.5017 -0.5928  1.1863
 9719TIP3   OH250571   1.688   1.324  11.579 -0.0420  0.0463 -0.1953
 9719TIP3    H150572   1.751   1.396  11.584  1.2804 -1.0547 -0.5874
 9719TIP3    H250573   1.653   1.329  11.490  0.0044  0.2327 -0.2040
 9720TIP3   OH250574   1.951   2.615   5.898  0.1365 -1.0211 -0.4228
 9720TIP3    H150575   1.878   2.664   5.936  0.3951 -0.8884 -0.0983
 9720TIP3    H250576   1.912   2.569   5.823 -0.3601 -1.2418 -0.0328
 9721TIP3   OH250577   0.388   5.382   2.091  0.0808  0.5547 -0.8078
 9721TIP3    H150578   0.411   5.459   2.040 -0.0632  0.6401 -0.7448
 9721TIP3    H250579   0.463   5.367   2.148  0.1764  0.5510 -0.9358
 9722TIP3   OH250580   3.865   4.995   1.951  0.1554 -0.5684  0.0469
 9722TIP3    H150581   3.810   5.056   2.001 -0.1745 -0.7989 -0.0327
 9722TIP3    H250582   3.807   4.961   1.883  1.0331  0.9681 -1.5199
 9723TIP3   OH250583   1.901   1.927   1.201  0.5241 -0.2238 -0.1568
 9723TIP3    H150584   1.976   1.871   1.181  0.9061 -0.4184  1.6956
 9723TIP3    H250585   1.883   1.910   1.294  0.3058  2.3069  0.2958
 9724TIP3   OH250586   6.377   5.426   0.007  0.1392 -0.2733 -0.0998
 9724TIP3    H150587   6.329   5.375   0.072  1.8367 -0.3384  1.1554
 9724TIP3    H250588   6.334   5.407  -0.076 -1.0892 -1.4255  0.7968
 9725TIP3   OH250589   4.804   4.507   0.453  0.3132 -0.5795 -0.4748
 9725TIP3    H150590   4.867   4.477   0.518 -1.4202 -2.5840  0.3234
 9725TIP3    H250591   4.843   4.482   0.369  1.3261 -0.3229 -0.0957
 9726TIP3   OH250592   1.395   2.597  11.462  0.1861 -0.0454  0.0811
 9726TIP3    H150593   1.337   2.668  11.491 -0.4862 -0.2303 -0.7848
 9726TIP3    H250594   1.337   2.520  11.457  0.2972 -0.0179 -1.7300
 9727TIP3   OH250595   3.904   5.905   0.788  0.2683  0.2240  0.7853
 9727TIP3    H150596   3.966   5.834   0.773  1.5076  0.9803  2.2127
 9727TIP3    H250597   3.953   5.985   0.767 -0.3280  0.8126  1.5932
 9728TIP3   OH250598   1.545   3.248   0.060  0.8237  0.0064  0.3749
 9728TIP3    H150599   1.467   3.225   0.010  1.1886 -2.3487  0.8435
 9728TIP3    H250600   1.596   3.304   0.002  0.6417 -1.6565 -1.4128
 9729TIP3   OH250601   3.006   1.065   5.145  0.4457  0.3048 -0.6806
 9729TIP3    H150602   2.993   1.016   5.064  1.4058  0.7239 -1.0953
 9729TIP3    H250603   3.031   0.998   5.209  0.9461  0.1437 -1.0412
 9730TIP3   OH250604   2.733   4.807  13.501 -0.2588  0.1503  0.5565
 9730TIP3    H150605   2.715   4.870  13.431 -0.4362 -0.4097  0.0991
 9730TIP3    H250606   2.767   4.730  13.456 -0.4288 -0.2343  1.0835
 9731TIP3   OH250607   3.584   3.224  12.147  0.0411  0.1976  0.0853
 9731TIP3    H150608   3.665   3.180  12.119 -1.1879 -2.4125  0.5612
 9731TIP3    H250609   3.600   3.247  12.239  0.3327 -0.0915  0.1104
 9732TIP3   OH250610   0.874   3.965   3.573  0.7150  0.4464  0.0552
 9732TIP3    H150611   0.869   4.009   3.488  1.6956  1.6311  0.5827
 9732TIP3    H250612   0.794   3.913   3.578  0.2795  0.9531 -1.2639
 9733TIP3   OH250613   3.336   0.694  15.638  0.0786 -0.5279 -0.2627
 9733TIP3    H150614   3.344   0.734  15.725 -0.4097  0.2021 -0.5471
 9733TIP3    H250615   3.250   0.652  15.639 -0.7874  1.1549 -1.0540
 9734TIP3   OH250616   1.638   2.344   6.505 -0.3529 -0.0128 -0.2620
 9734TIP3    H150617   1.656   2.438   6.497 -0.2358 -0.1867 -2.1867
 9734TIP3    H250618   1.616   2.332   6.597  0.4710  1.7601  0.1852
 9735TIP3   OH250619   1.616   2.823   1.382  0.3883 -0.3773  0.0956
 9735TIP3    H150620   1.617   2.887   1.453  0.2829 -0.3413  0.0647
 9735TIP3    H250621   1.672   2.861   1.315 -0.3292  0.0561 -0.2502
 9736TIP3   OH250622   2.756   5.880   2.063 -0.1071 -0.5221 -0.1670
 9736TIP3    H150623   2.688   5.864   2.128 -0.4330 -0.7093 -0.5514
 9736TIP3    H250624   2.795   5.963   2.089  0.2664 -0.9727  0.6981
 9737TIP3   OH250625   6.627   5.613  11.302  0.3887  0.0865 -0.3566
 9737TIP3    H150626   6.592   5.649  11.221 -0.4062  0.0489 -0.0302
 9737TIP3    H250627   6.575   5.534  11.319  2.6595 -1.7088 -1.5062
 9738TIP3   OH250628   3.268   5.373  13.941  0.6254 -0.0295 -0.0245
 9738TIP3    H150629   3.303   5.462  13.946  0.8690 -0.2066  1.4829
 9738TIP3    H250630   3.320   5.332  13.872  1.1215  0.7265 -0.1195
 9739TIP3   OH250631   4.150   5.744   3.347 -0.0906  0.2481  0.1883
 9739TIP3    H150632   4.103   5.780   3.272  0.8953  0.2748 -0.4331
 9739TIP3    H250633   4.241   5.773   3.334  0.1180  0.1012  1.2980
 9740TIP3   OH250634   3.295   3.162  12.559  0.2922 -0.3073 -0.1164
 9740TIP3    H150635   3.331   3.121  12.480 -0.6691 -1.1586 -0.1257
 9740TIP3    H250636   3.217   3.209  12.528 -0.5206 -1.2631  0.4310
 9741TIP3   OH250637   5.560   2.143  14.142 -0.5270  0.2979 -0.3339
 9741TIP3    H150638   5.539   2.185  14.226 -1.7431 -0.9565  0.0174
 9741TIP3    H250639   5.640   2.094  14.159 -0.2101  0.8646 -0.1863
 9742TIP3   OH250640   2.912   2.788  15.012 -0.0845 -0.2000 -0.7337
 9742TIP3    H150641   2.998   2.826  14.996  1.0220 -3.2694 -2.4972
 9742TIP3    H250642   2.874   2.776  14.925 -2.0611  0.4939 -0.0128
 9743TIP3   OH250643   1.184   4.058   2.305  0.0611 -0.0980 -0.3259
 9743TIP3    H150644   1.099   4.035   2.268 -0.4978 -0.7190  1.3066
 9743TIP3    H250645   1.164   4.122   2.373  1.0141  0.5202 -0.6131
 9744TIP3   OH250646   3.565   3.950   5.934  0.0934 -0.3006 -0.4615
 9744TIP3    H150647   3.623   3.877   5.956  1.0194  1.0368  1.6588
 9744TIP3    H250648   3.498   3.949   6.002 -0.2273  0.4675 -0.7649
 9745TIP3   OH250649   1.759   6.332   0.335 -0.0610 -0.2717 -0.5697
 9745TIP3    H150650   1.716   6.358   0.417  0.7154 -0.6771 -0.0294
 9745TIP3    H250651   1.738   6.402   0.274  0.2320  0.5629  0.2770
 9746TIP3   OH250652   1.250   3.665  14.042  0.2355 -0.0285 -0.2207
 9746TIP3    H150653   1.167   3.704  14.069 -0.1347 -1.1332  0.2475
 9746TIP3    H250654   1.226   3.582  14.000  1.0749 -0.2134 -0.3468
 9747TIP3   OH250655   6.133   0.168  11.323  0.4710  0.1784 -0.1960
 9747TIP3    H150656   6.131   0.126  11.237 -0.7042  0.7022 -0.4334
 9747TIP3    H250657   6.195   0.240  11.313  2.5479 -1.5043  0.2329
 9748TIP3   OH250658   0.300   2.700   5.700 -0.0855 -0.0901  0.1667
 9748TIP3    H150659   0.268   2.695   5.610 -1.0311  0.8821  0.4381
 9748TIP3    H250660   0.223   2.688   5.754 -0.1904  2.9688  0.8281
 9749TIP3   OH250661   1.945   4.656   0.170  0.1678 -0.4955 -0.2674
 9749TIP3    H150662   1.896   4.586   0.126 -0.7447 -0.8635  1.2949
 9749TIP3    H250663   1.891   4.734   0.159 -0.9319 -0.9546  1.6752
 9750TIP3   OH250664   0.538   4.471  14.685  0.2433 -0.3609 -0.5990
 9750TIP3    H150665   0.451   4.511  14.680 -0.1475 -1.0622  0.5251
 9750TIP3    H250666   0.576   4.487  14.598 -0.4165  1.2579 -0.6182
 9751TIP3   OH250667   4.396   2.249  12.376 -0.1069  0.4272  0.2843
 9751TIP3    H150668   4.425   2.289  12.294 -0.6305  0.0194 -0.1046
 9751TIP3    H250669   4.361   2.322  12.427  0.9361  0.8052  0.4713
 9752TIP3   OH250670   2.879   5.493  14.567 -0.5140  0.7082  0.2134
 9752TIP3    H150671   2.839   5.573  14.602 -0.0472  0.7264  0.6979
 9752TIP3    H250672   2.969   5.518  14.545 -0.4688  0.4006  0.0471
 9753TIP3   OH250673   3.543   3.265   5.400  0.5616  0.0493 -0.4582
 9753TIP3    H150674   3.453   3.277   5.430  0.9854  0.0369  0.8633
 9753TIP3    H250675   3.535   3.232   5.311 -0.7610 -1.0924  0.0687
 9754TIP3   OH250676   3.148   3.906   1.526  0.2726  0.8317  0.1875
 9754TIP3    H150677   3.105   3.849   1.589  0.2924  1.1880  0.5231
 9754TIP3    H250678   3.235   3.923   1.563  1.1217 -0.7912 -1.0246
 9755TIP3   OH250679   2.530   6.420   2.826  0.4774  0.2591  0.0134
 9755TIP3    H150680   2.483   6.371   2.893  0.0856  1.7769  0.8718
 9755TIP3    H250681   2.584   6.482   2.875  2.0675 -0.2900 -1.0126
 9756TIP3   OH250682   6.744   6.446   5.858  0.5522  0.3530 -0.4239
 9756TIP3    H150683   6.662   6.461   5.906  0.7393  1.0111 -0.3047
 9756TIP3    H250684   6.801   6.404   5.922 -0.5304 -2.5097 -1.2390
 9757TIP3   OH250685   6.656   5.168  15.945 -0.3429 -0.1009 -0.4759
 9757TIP3    H150686   6.675   5.153  16.037 -0.5189 -1.1312 -0.6067
 9757TIP3    H250687   6.575   5.219  15.945  1.0356  2.1910  0.0078
 9758TIP3   OH250688   5.864   4.301  15.904 -0.3716  0.4884 -0.3922
 9758TIP3    H150689   5.890   4.209  15.900 -1.0299  0.3492 -1.6504
 9758TIP3    H250690   5.920   4.345  15.841 -1.0920  0.6979 -0.8867
 9759TIP3   OH250691   1.446   0.401   3.811 -0.4987  0.7943 -0.3347
 9759TIP3    H150692   1.466   0.368   3.899 -0.3223  1.5165 -0.0985
 9759TIP3    H250693   1.435   0.323   3.758  0.9892  0.3635 -0.0257
 9760TIP3   OH250694   4.766   0.125   1.658 -0.4219  0.2010  0.2543
 9760TIP3    H150695   4.674   0.144   1.638 -0.3991 -0.6874 -0.7687
 9760TIP3    H250696   4.794   0.067   1.587  0.9892  0.6213  0.4616
 9761TIP3   OH250697   1.544   5.748  14.388 -0.1099 -0.4483  0.2996
 9761TIP3    H150698   1.508   5.702  14.464  0.7865 -1.1965  0.2849
 9761TIP3    H250699   1.469   5.793  14.349  0.1552  3.5120  4.0587
 9762TIP3   OH250700   5.493   2.910   1.079 -0.0001  0.5405  0.1369
 9762TIP3    H150701   5.551   2.849   1.033 -0.5898 -0.6604  0.9651
 9762TIP3    H250702   5.439   2.948   1.009  2.3711  2.3852 -0.7769
 9763TIP3   OH250703   1.468   3.857   2.676 -0.0395  0.0726 -0.5329
 9763TIP3    H150704   1.462   3.952   2.665 -2.2350  0.2751  2.0397
 9763TIP3    H250705   1.394   3.834   2.733  0.9817 -3.0609 -0.3677
 9764TIP3   OH250706   6.670   4.423  12.058 -0.3088 -0.3930 -0.3379
 9764TIP3    H150707   6.700   4.475  11.983 -0.5441  2.8726  1.7489
 9764TIP3    H250708   6.751   4.398  12.103 -0.3142  0.7113  0.2951
 9765TIP3   OH250709   3.255   0.283   3.792 -0.1196 -0.1128  0.6639
 9765TIP3    H150710   3.193   0.224   3.749 -1.5377  1.1287  0.9739
 9765TIP3    H250711   3.227   0.286   3.883  0.0673  0.8719  0.7006
 9766TIP3   OH250712   4.418   3.248   1.450  0.2891 -0.0327  1.0982
 9766TIP3    H150713   4.430   3.239   1.356  1.4357 -0.9676  1.3280
 9766TIP3    H250714   4.344   3.191   1.470 -0.0706  0.3075  0.7381
 9767TIP3   OH250715   6.216   5.479  16.344 -1.0794  0.1007  0.1481
 9767TIP3    H150716   6.206   5.423  16.420 -0.4228 -1.2497 -0.7272
 9767TIP3    H250717   6.216   5.419  16.269 -1.2415  1.3464 -0.8808
 9768TIP3   OH250718   5.661   5.523  10.183  0.3610 -0.4743  0.4652
 9768TIP3    H150719   5.723   5.595  10.182  0.4538 -0.5406  1.2810
 9768TIP3    H250720   5.689   5.468  10.257 -1.4265  0.1617  1.6311
 9769TIP3   OH250721   1.116   2.190   0.275 -0.2066  0.4286 -0.1313
 9769TIP3    H150722   1.122   2.197   0.180  0.2157  0.9723 -0.0673
 9769TIP3    H250723   1.208   2.187   0.304 -0.3337  0.0129  0.2420
 9770TIP3   OH250724   1.461   2.027  11.348 -0.0291 -0.6052  0.0378
 9770TIP3    H150725   1.466   1.985  11.434  0.5313  1.6187  1.1275
 9770TIP3    H250726   1.552   2.032  11.318  0.0870  1.1206  0.5968
 9771TIP3   OH250727   5.657   1.836  16.737  0.0356 -0.5806 -0.3292
 9771TIP3    H150728   5.715   1.845  16.661 -0.3968  1.4633 -0.4394
 9771TIP3    H250729   5.570   1.856  16.703 -0.2917 -0.5353  0.5200
 9772TIP3   OH250730   3.644   1.831   0.641 -0.0326 -0.2053 -0.7759
 9772TIP3    H150731   3.710   1.899   0.655  0.2739 -0.1885 -2.2455
 9772TIP3    H250732   3.585   1.867   0.575 -1.3270 -0.3634  0.2606
 9773TIP3   OH250733   4.457   5.146  14.007 -0.4078 -0.2664  0.1890
 9773TIP3    H150734   4.393   5.076  13.990 -0.9777  0.3756 -0.3319
 9773TIP3    H250735   4.428   5.219  13.953 -1.2176  1.2010  2.5107
 9774TIP3   OH250736   2.290   5.732  14.547 -0.4742 -0.1325  0.2817
 9774TIP3    H150737   2.274   5.673  14.621 -0.6541  1.1440  1.2846
 9774TIP3    H250738   2.203   5.756  14.516 -0.4080 -2.5456 -1.9154
 9775TIP3   OH250739   2.052   3.895   5.517 -0.1037  0.3762  0.0265
 9775TIP3    H150740   2.044   3.862   5.607 -2.3741  0.3355 -0.1698
 9775TIP3    H250741   2.047   3.990   5.526 -2.6755  0.2975 -0.2419
 9776TIP3   OH250742   6.410   1.226   1.397 -0.6513 -0.5287 -0.0214
 9776TIP3    H150743   6.345   1.187   1.456 -2.6070  0.3636 -1.5352
 9776TIP3    H250744   6.368   1.225   1.311  1.4621 -0.1646 -1.0957
 9777TIP3   OH250745   6.559   4.785   1.838 -0.3644  0.1133  0.3623
 9777TIP3    H150746   6.646   4.755   1.862  0.2082  1.0113 -0.5838
 9777TIP3    H250747   6.546   4.754   1.748 -0.7925  0.4702  0.2953
 9778TIP3   OH250748   6.491   1.347  12.800  0.7629 -0.3957 -0.1890
 9778TIP3    H150749   6.580   1.332  12.767  1.4646  0.0659  1.3993
 9778TIP3    H250750   6.479   1.280  12.867  0.0138 -0.2926 -0.2145
 9779TIP3   OH250751   6.751   1.061  12.987 -0.4798  0.0416 -0.1634
 9779TIP3    H150752   6.758   0.986  12.928 -2.2970  0.7695 -1.3589
 9779TIP3    H250753   6.810   1.126  12.950  2.0878 -1.2057  1.5995
 9780TIP3   OH250754   3.638   3.073  14.554  0.3493  0.0532 -0.4380
 9780TIP3    H150755   3.731   3.048  14.553  0.3374  0.0027 -2.6658
 9780TIP3    H250756   3.623   3.110  14.467 -1.2882  1.7037  0.5334
 9781TIP3   OH250757   2.426   3.097   2.493 -0.6746  0.3645  0.0887
 9781TIP3    H150758   2.513   3.134   2.477 -0.5761  0.7872  1.5126
 9781TIP3    H250759   2.438   3.003   2.481 -0.1561  0.4753 -0.3043
 9782TIP3   OH250760   0.531   0.469  15.583  0.6345 -0.4519 -0.1521
 9782TIP3    H150761   0.465   0.489  15.650 -1.6514 -3.6357 -1.3178
 9782TIP3    H250762   0.573   0.553  15.566 -3.0779  1.7215  0.7278
 9783TIP3   OH250763   0.159   1.857   1.043 -0.7467 -0.0217  0.0778
 9783TIP3    H150764   0.145   1.789   0.977 -0.7613  0.1107 -0.0579
 9783TIP3    H250765   0.075   1.865   1.087 -0.9314  0.3537 -0.3350
 9784TIP3   OH250766   5.884   5.142  12.034  0.5172 -0.5201  0.0473
 9784TIP3    H150767   5.842   5.162  11.951  0.3340 -0.5341  0.1361
 9784TIP3    H250768   5.835   5.191  12.099  1.1952  0.1704  0.0468
 9785TIP3   OH250769   5.465   3.743  11.820  0.0898 -0.0987  0.3450
 9785TIP3    H150770   5.533   3.754  11.754 -0.6201 -1.7010 -0.6929
 9785TIP3    H250771   5.389   3.789  11.785 -0.0182 -0.1776  0.4725
 9786TIP3   OH250772   2.098   1.037   5.431  0.4101  0.1331  0.2215
 9786TIP3    H150773   2.070   1.117   5.387  0.7418 -0.4567 -1.0686
 9786TIP3    H250774   2.194   1.041   5.428  0.4695  0.8015  2.1892
 9787TIP3   OH250775   0.395   4.202   1.796  0.0011 -0.3064 -0.1771
 9787TIP3    H150776   0.316   4.240   1.835  0.3181 -0.7160  0.8617
 9787TIP3    H250777   0.444   4.277   1.763 -1.8558 -0.1767 -2.8019
 9788TIP3   OH250778   1.628   5.145  15.213  0.2683  0.0139 -0.0947
 9788TIP3    H150779   1.699   5.123  15.273 -0.5300  1.8482  1.5498
 9788TIP3    H250780   1.670   5.147  15.127  1.8303 -0.7211  0.6219
 9789TIP3   OH250781   6.566   4.824  13.500 -0.8328 -0.1207  0.0971
 9789TIP3    H150782   6.484   4.858  13.534 -1.0412  0.6193 -1.1067
 9789TIP3    H250783   6.541   4.763  13.431 -0.3646  1.3042 -1.3676
 9790TIP3   OH250784   6.211   2.522  16.221 -0.2776 -0.0430  0.2315
 9790TIP3    H150785   6.262   2.573  16.158 -0.5297 -0.1775 -0.0773
 9790TIP3    H250786   6.220   2.431  16.193 -1.8234  0.0593 -0.6343
 9791TIP3   OH250787   1.920   1.402  12.017 -0.2318 -0.1042 -0.3008
 9791TIP3    H150788   1.847   1.359  11.972  0.0743  1.1321 -2.0681
 9791TIP3    H250789   1.996   1.350  11.994 -0.5228 -1.3441  1.4717
 9792TIP3   OH250790   1.367   0.635  17.014  0.5142  0.1449 -0.1829
 9792TIP3    H150791   1.440   0.693  16.988 -0.2792  1.1973 -0.0999
 9792TIP3    H250792   1.408   0.568  17.068  1.4826  0.5547 -0.3945
 9793TIP3   OH250793   0.902   5.835  14.650 -0.1266  0.2811  0.3591
 9793TIP3    H150794   0.854   5.903  14.604  1.1397 -0.1879 -1.7033
 9793TIP3    H250795   0.851   5.755  14.635 -0.2697  0.3176  0.6504
 9794TIP3   OH250796   1.898   0.697  11.092  0.7128  0.0750 -0.4540
 9794TIP3    H150797   1.992   0.696  11.076  0.5789 -1.5506 -1.2185
 9794TIP3    H250798   1.861   0.735  11.012  0.7595  1.5878  0.2176
 9795TIP3   OH250799   3.913   2.902   3.109  0.0679  0.3620  0.4131
 9795TIP3    H150800   4.001   2.920   3.141  0.4889  1.3921 -1.2862
 9795TIP3    H250801   3.907   2.948   3.026 -1.7727 -0.4364  0.0673
 9796TIP3   OH250802   0.175   5.811   0.644 -0.3912 -0.3613 -0.0923
 9796TIP3    H150803   0.116   5.856   0.584  0.8939 -0.7866 -1.7020
 9796TIP3    H250804   0.135   5.725   0.656 -0.4648 -0.4056 -0.6256
 9797TIP3   OH250805   2.243   2.765  17.009 -0.5403 -0.3149  0.2813
 9797TIP3    H150806   2.293   2.837  17.049  0.0848 -0.9043  0.5762
 9797TIP3    H250807   2.293   2.741  16.931 -0.9552 -0.1774 -0.0297
 9798TIP3   OH250808   4.854   1.982   3.657  0.6576  0.3173  0.2234
 9798TIP3    H150809   4.832   2.058   3.603  2.2089  0.4353 -0.2436
 9798TIP3    H250810   4.944   1.997   3.685  0.7853 -1.0812  0.5955
 9799TIP3   OH250811   4.839   2.426  13.588  0.1981  0.0099 -0.2265
 9799TIP3    H150812   4.925   2.388  13.572  0.6153  0.2585  1.2915
 9799TIP3    H250813   4.847   2.517  13.558  0.6977  0.2354  0.5732
 9800TIP3   OH250814   0.877   0.080  15.440 -0.7291 -0.5949  0.0133
 9800TIP3    H150815   0.968   0.092  15.411 -0.5047  0.3519  1.0974
 9800TIP3    H250816   0.883   0.018  15.512 -0.9205 -0.4025  0.1955
 9801TIP3   OH250817   3.537   3.061   3.535  0.4600  0.2250 -0.3061
 9801TIP3    H150818   3.510   2.987   3.480  0.0854  0.3596 -0.3037
 9801TIP3    H250819   3.511   3.035   3.623 -0.6537  0.8307 -0.4561
 9802TIP3   OH250820   1.754   1.824   3.850 -0.1809  0.9041 -0.1414
 9802TIP3    H150821   1.756   1.817   3.946 -0.5064 -0.8550 -0.2533
 9802TIP3    H250822   1.667   1.793   3.825 -0.0258  1.1661 -1.0330
 9803TIP3   OH250823   2.333   3.014   5.902 -0.4917  0.5820  0.1991
 9803TIP3    H150824   2.423   2.996   5.926 -0.8344  0.4368  1.4046
 9803TIP3    H250825   2.281   2.963   5.964 -1.4074  1.5047  0.2121
 9804TIP3   OH250826   2.674   5.985   1.065 -0.2450  1.1144 -0.0903
 9804TIP3    H150827   2.748   5.946   1.019 -0.2011  0.1180  0.7991
 9804TIP3    H250828   2.616   6.018   0.995 -0.0366 -0.0949 -0.8399
 9805TIP3   OH250829   0.505   4.918   2.120  0.1004 -0.4504 -0.1821
 9805TIP3    H150830   0.564   4.962   2.181  0.4248 -0.1446 -0.7075
 9805TIP3    H250831   0.563   4.873   2.058 -0.2086  0.0462 -0.8451
 9806TIP3   OH250832   3.417   1.155   4.031  0.1239  0.2740 -0.6134
 9806TIP3    H150833   3.463   1.119   4.107 -1.1375  0.7811  0.4260
 9806TIP3    H250834   3.464   1.235   4.009  0.4432  0.1717 -0.3100
 9807TIP3   OH250835   1.904   4.415   2.363  0.2116 -0.1048 -0.0221
 9807TIP3    H150836   1.984   4.393   2.315 -0.5035  0.1422 -1.3563
 9807TIP3    H250837   1.855   4.472   2.304 -0.6965  0.2137  1.0108
 9808TIP3   OH250838   4.996   5.211  15.084 -0.4286 -0.4543 -0.6289
 9808TIP3    H150839   4.936   5.234  15.013  0.6054 -2.1431 -2.0935
 9808TIP3    H250840   5.083   5.218  15.045  0.3944  2.1608  1.5211
 9809TIP3   OH250841   3.927   1.862  13.537 -0.0279  0.0641 -0.0025
 9809TIP3    H150842   3.978   1.846  13.616 -0.0771  1.4363  0.3149
 9809TIP3    H250843   3.992   1.879  13.469 -0.0088 -0.1657 -0.0406
 9810TIP3   OH250844   5.624   2.070   2.646  0.2236 -0.1467  0.2444
 9810TIP3    H150845   5.651   2.017   2.571  0.0053 -0.6386  0.5135
 9810TIP3    H250846   5.623   2.008   2.719  2.3335  0.7262  1.0493
 9811TIP3   OH250847   5.210   3.371   0.301  0.6183 -0.1500  0.2335
 9811TIP3    H150848   5.161   3.292   0.323  1.1225 -0.5750 -0.1461
 9811TIP3    H250849   5.146   3.428   0.259 -0.1119  0.2753  1.9041
 9812TIP3   OH250850   3.258   1.154   3.383 -0.0860 -0.3877 -0.2199
 9812TIP3    H150851   3.282   1.194   3.467  3.6201  0.4325 -1.5469
 9812TIP3    H250852   3.293   1.065   3.388 -1.3686 -0.9031 -0.2728
 9813TIP3   OH250853   5.766   5.125  15.743 -0.9340  0.2997  0.7895
 9813TIP3    H150854   5.708   5.145  15.817  1.0577  2.1240  1.9127
 9813TIP3    H250855   5.798   5.037  15.760 -0.0438  0.9209  2.4593
 9814TIP3   OH250856   5.859   2.935  14.112 -0.3162  0.3967  0.8766
 9814TIP3    H150857   5.927   2.879  14.075 -0.3560  0.2838  0.9721
 9814TIP3    H250858   5.870   2.927  14.207 -0.8550 -0.0993  0.8934
 9815TIP3   OH250859   0.091   5.164  11.900 -0.5397 -0.4212 -0.1603
 9815TIP3    H150860   0.005   5.132  11.926 -0.3514  0.2214  1.3655
 9815TIP3    H250861   0.078   5.258  11.885  0.3402  0.1695  2.4333
 9816TIP3   OH250862   1.420   5.255  13.864  0.1153  0.1856  0.3045
 9816TIP3    H150863   1.353   5.212  13.812  1.5273  0.3352 -1.6727
 9816TIP3    H250864   1.421   5.206  13.946 -1.2997 -0.8075 -0.2485
 9817TIP3   OH250865   0.896   1.848  13.366  0.1145  0.0035  0.0487
 9817TIP3    H150866   0.933   1.815  13.283 -0.0808 -1.1163  0.3950
 9817TIP3    H250867   0.952   1.923  13.388 -0.0533  0.5401 -1.2786
 9818TIP3   OH250868   1.967   6.531  12.089 -0.1118  0.0154  0.6106
 9818TIP3    H150869   1.897   6.557  12.149 -0.5195 -1.1377  0.6335
 9818TIP3    H250870   1.950   6.439  12.069  1.1129 -0.1396  0.2181
 9819TIP3   OH250871   5.786   3.980   0.392 -0.0439  0.3617  0.2057
 9819TIP3    H150872   5.798   4.070   0.364 -1.4713  0.3569 -0.4918
 9819TIP3    H250873   5.698   3.978   0.429 -1.1489 -1.3230 -2.3100
 9820TIP3   OH250874   6.102   5.466   2.345  0.4078  0.0474 -0.3933
 9820TIP3    H150875   6.137   5.401   2.283 -1.1229 -1.1617 -0.0140
 9820TIP3    H250876   6.114   5.426   2.431  0.5039  0.7802 -0.0639
 9821TIP3   OH250877   3.014   5.766   5.741 -0.2099 -0.3580 -0.0000
 9821TIP3    H150878   2.943   5.809   5.693 -0.7124 -1.4500 -0.2598
 9821TIP3    H250879   3.081   5.833   5.750 -0.8264  0.3678 -0.7155
 9822TIP3   OH250880   0.791   4.180   5.203 -0.7998 -0.4983  0.7696
 9822TIP3    H150881   0.792   4.235   5.282  2.2530  1.2559 -0.3898
 9822TIP3    H250882   0.720   4.215   5.150 -1.2058  0.0001  1.6295
 9823TIP3   OH250883   0.469   0.988   1.093 -0.6999 -0.5428 -0.4522
 9823TIP3    H150884   0.440   1.029   1.175  0.7468  0.3735 -0.3837
 9823TIP3    H250885   0.413   1.027   1.026 -1.8918 -1.2936  0.0766
 9824TIP3   OH250886   4.830   5.645  13.869  0.1544 -0.3663  0.1732
 9824TIP3    H150887   4.829   5.588  13.946  0.5284  0.2852  0.6629
 9824TIP3    H250888   4.773   5.601  13.806 -1.1475 -0.2915  1.2698
 9825TIP3   OH250889   5.360   1.572  16.206 -0.0088  0.7074 -1.0550
 9825TIP3    H150890   5.269   1.544  16.220 -0.3428 -0.0694 -4.3862
 9825TIP3    H250891   5.412   1.494  16.225 -0.2806  0.2884 -2.0126
 9826TIP3   OH250892   0.301   0.370  12.967  0.2314 -0.9093 -0.2148
 9826TIP3    H150893   0.350   0.292  12.943 -0.2174 -0.8958 -1.2033
 9826TIP3    H250894   0.327   0.389  13.057 -0.7088 -3.0063  0.5154
 9827TIP3   OH250895   0.556   4.990  12.079 -0.5562  0.2118  0.4812
 9827TIP3    H150896   0.495   5.048  12.033  1.6682  0.6615 -2.0250
 9827TIP3    H250897   0.589   5.043  12.152 -1.7292  0.6098  0.7314
 9828TIP3   OH250898   1.475   4.274  11.868 -0.2531  0.3396 -0.2432
 9828TIP3    H150899   1.384   4.266  11.896  0.4523  1.1222  2.3797
 9828TIP3    H250900   1.496   4.367  11.880  0.3632  0.5530 -2.6103
 9829TIP3   OH250901   4.731   4.835   4.330  0.0051  0.0405 -0.3341
 9829TIP3    H150902   4.771   4.754   4.361 -0.7003 -0.5790 -0.9964
 9829TIP3    H250903   4.777   4.905   4.377 -0.7549 -0.8406  1.7721
 9830TIP3   OH250904   6.499   3.691   0.836 -0.2182  0.0621 -0.4777
 9830TIP3    H150905   6.490   3.783   0.814 -2.3932 -0.5964 -2.5393
 9830TIP3    H250906   6.453   3.681   0.920  0.8858  1.0114  0.2521
 9831TIP3   OH250907   3.879   2.729   5.147  0.0728  0.6905 -0.0327
 9831TIP3    H150908   3.789   2.703   5.131  0.0488  0.7705 -0.0253
 9831TIP3    H250909   3.932   2.666   5.098  0.0471  0.0126  0.7966
 9832TIP3   OH250910   4.128   6.424   0.466 -0.6251  0.9397 -0.3451
 9832TIP3    H150911   4.057   6.364   0.443  1.9824 -3.1513  1.6109
 9832TIP3    H250912   4.189   6.418   0.392 -0.6169  1.5746 -0.3861
 9833TIP3   OH250913   2.605   5.570  14.429  0.1048  0.4092  0.5180
 9833TIP3    H150914   2.671   5.638  14.416 -0.0254  0.2130 -1.1817
 9833TIP3    H250915   2.577   5.582  14.520  1.2502  1.5764  0.7379
 9834TIP3   OH250916   4.295   0.774   0.951 -0.1811 -0.3155 -0.3774
 9834TIP3    H150917   4.241   0.808   0.880  0.0158 -0.0156 -0.3836
 9834TIP3    H250918   4.385   0.783   0.920 -0.0781  0.1338  0.0421
 9835TIP3   OH250919   2.995   3.894  11.735 -0.0731  0.1752 -0.0773
 9835TIP3    H150920   2.924   3.842  11.773 -1.1657 -1.1368 -3.6714
 9835TIP3    H250921   2.953   3.976  11.710  0.1747  0.2755 -0.1565
 9836TIP3   OH250922   1.599   2.832  12.127  0.5648 -0.2861 -0.1730
 9836TIP3    H150923   1.505   2.816  12.122  0.5987 -0.5142 -0.1002
 9836TIP3    H250924   1.632   2.813  12.039  0.6646 -1.0232  0.0190
 9837TIP3   OH250925   3.099   0.658  12.548 -0.3879  0.5613 -0.2634
 9837TIP3    H150926   3.141   0.702  12.621 -0.0871  0.8338 -0.5984
 9837TIP3    H250927   3.171   0.630  12.492 -0.6462  0.9033 -0.7712
 9838TIP3   OH250928   1.720   3.103   4.313  0.0677  0.5138 -0.2602
 9838TIP3    H150929   1.628   3.088   4.333  0.4254  0.1283  1.1154
 9838TIP3    H250930   1.763   3.018   4.325  0.5940  0.6765 -0.9347
 9839TIP3   OH250931   4.043   0.662  14.863 -0.7708 -0.2601  0.3125
 9839TIP3    H150932   4.015   0.660  14.772 -1.5976 -1.3576  0.5669
 9839TIP3    H250933   4.127   0.708  14.862  0.6285 -2.7137 -1.3872
 9840TIP3   OH250934   5.154   4.987   0.562  0.0471 -0.0164  0.2438
 9840TIP3    H150935   5.105   4.911   0.531 -0.9774  0.9536 -0.5772
 9840TIP3    H250936   5.201   5.018   0.484  1.3117 -0.4253  0.8222
 9841TIP3   OH250937   3.650   5.397   6.432 -0.2658  0.4280  0.2428
 9841TIP3    H150938   3.674   5.393   6.525  1.5259  0.7916 -0.1774
 9841TIP3    H250939   3.568   5.446   6.430  0.2955  1.4576  1.5410
 9842TIP3   OH250940   0.696   1.459  11.825 -0.4103  0.1953  0.4751
 9842TIP3    H150941   0.621   1.409  11.793 -0.0010 -0.8396  1.1071
 9842TIP3    H250942   0.764   1.446  11.758 -0.2587 -0.2111  0.7071
 9843TIP3   OH250943   3.575   3.397  13.778 -0.0704 -0.5013  0.3848
 9843TIP3    H150944   3.670   3.387  13.774  0.3033  2.6928 -0.6526
 9843TIP3    H250945   3.547   3.400  13.686 -1.1112 -0.9647  0.6781
 9844TIP3   OH250946   5.147   3.723   4.329 -0.6172 -0.2153 -0.0878
 9844TIP3    H150947   5.082   3.682   4.385  2.7069 -1.3517  3.1877
 9844TIP3    H250948   5.182   3.796   4.381 -0.3052  1.3631 -2.3740
 9845TIP3   OH250949   4.022   3.122   4.032 -0.5486 -0.0713  0.8933
 9845TIP3    H150950   4.056   3.092   3.947  1.7867  0.0736  1.7568
 9845TIP3    H250951   3.927   3.123   4.020 -0.2640 -0.0904 -1.7145
 9846TIP3   OH250952   2.679   0.237   1.617 -0.2311  0.1173 -0.0334
 9846TIP3    H150953   2.768   0.228   1.650  0.4334  0.6266 -1.6358
 9846TIP3    H250954   2.680   0.190   1.533 -0.8471  2.0090 -1.1250
 9847TIP3   OH250955   4.053   3.678   4.925 -0.5725 -0.0519 -0.4761
 9847TIP3    H150956   4.058   3.585   4.947  0.6543  0.3131  0.8348
 9847TIP3    H250957   4.109   3.688   4.849  1.1863  0.0178  0.8001
 9848TIP3   OH250958   2.400   2.736  14.058 -0.3165 -0.6439 -0.0003
 9848TIP3    H150959   2.323   2.776  14.098 -1.6413 -2.0020 -1.1432
 9848TIP3    H250960   2.388   2.748  13.964  0.9907 -0.6627 -0.1850
 9849TIP3   OH250961   2.844   2.155  12.900  0.1649 -0.3371  0.0814
 9849TIP3    H150962   2.927   2.122  12.935  0.1398 -1.5290 -0.9454
 9849TIP3    H250963   2.822   2.094  12.830 -1.2090  0.4042 -0.1438
 9850TIP3   OH250964   3.700   6.765  12.315 -0.1230 -0.1838 -0.2688
 9850TIP3    H150965   3.646   6.844  12.310 -1.8269 -1.1958  1.2533
 9850TIP3    H250966   3.657   6.712  12.383  2.7167 -1.1077  0.8505
 9851TIP3   OH250967   2.756   6.275  15.328  0.0531 -0.8399 -0.2519
 9851TIP3    H150968   2.691   6.345  15.327  0.4658 -0.4453  0.0503
 9851TIP3    H250969   2.829   6.309  15.277  0.6815 -0.6278  0.7752
 9852TIP3   OH250970   3.302   1.857   1.739  0.1897  0.2374 -0.7460
 9852TIP3    H150971   3.223   1.858   1.685 -1.4132 -0.0798  1.5397
 9852TIP3    H250972   3.301   1.940   1.786  0.5942 -0.2602  0.1682
 9853TIP3   OH250973   5.564   2.502   1.304 -0.0563 -0.2640 -0.0833
 9853TIP3    H150974   5.638   2.480   1.247  0.2241 -0.4899  0.3645
 9853TIP3    H250975   5.509   2.559   1.250  0.2720 -0.3676 -0.5367
 9854TIP3   OH250976   0.690   1.826  15.387 -0.7639  0.2760 -0.0665
 9854TIP3    H150977   0.662   1.773  15.313 -0.0152 -0.5180  0.2092
 9854TIP3    H250978   0.609   1.845  15.435 -1.2417  0.7462 -1.0370
 9855TIP3   OH250979   3.394   3.974   4.817 -0.2299 -0.1980  0.3706
 9855TIP3    H150980   3.488   3.961   4.823  0.0620  1.6826  0.2419
 9855TIP3    H250981   3.375   4.044   4.880 -1.4933 -0.3473  0.1808
 9856TIP3   OH250982   0.541   1.771   5.754  0.2078 -0.3318  0.9028
 9856TIP3    H150983   0.572   1.847   5.804 -0.5868 -0.5261  1.7093
 9856TIP3    H250984   0.568   1.696   5.806  0.3538 -0.5777  0.4704
 9857TIP3   OH250985   1.116   2.557   4.538  0.6221  0.7835  0.4077
 9857TIP3    H150986   1.029   2.594   4.524  0.5365  0.2347 -0.6005
 9857TIP3    H250987   1.139   2.518   4.453  1.2807 -0.2694  1.0604
 9858TIP3   OH250988   5.107   4.838   1.450 -0.4174  0.4458  0.8115
 9858TIP3    H150989   5.057   4.845   1.369 -1.5126  1.3604  1.5536
 9858TIP3    H250990   5.188   4.887   1.433 -0.7678  0.8708  0.3732
 9859TIP3   OH250991   4.939   1.470  15.662 -0.0022  0.2764 -0.0387
 9859TIP3    H150992   4.849   1.444  15.643 -0.0495  0.5493 -0.1789
 9859TIP3    H250993   4.951   1.553  15.618 -0.0223  0.7791  0.8845
 9860TIP3   OH250994   0.258   6.193  11.112  0.3913 -0.1049 -0.0004
 9860TIP3    H150995   0.264   6.242  11.031 -0.1404 -0.7846 -0.4625
 9860TIP3    H250996   0.304   6.246  11.177  0.2512  0.7498 -0.6025
 9861TIP3   OH250997   3.726   2.539   1.002 -0.0640 -0.0266  0.0528
 9861TIP3    H150998   3.755   2.467   1.059  0.1351  0.3014  0.3662
 9861TIP3    H250999   3.691   2.605   1.062  1.0102  0.7215 -0.1277
 9862TIP3   OH251000   1.773   0.882  12.709  0.1483 -0.6573 -0.7075
 9862TIP3    H151001   1.784   0.867  12.803 -0.8054 -1.6224 -0.7441
 9862TIP3    H251002   1.847   0.835  12.669  0.0096 -1.0458 -0.5047
 9863TIP3   OH251003   6.393   1.154  12.458 -0.5088 -0.3675  0.0720
 9863TIP3    H151004   6.450   1.227  12.481 -1.0873  0.0987  0.0598
 9863TIP3    H251005   6.375   1.110  12.541 -0.8503  0.0231  0.2111
 9864TIP3   OH251006   5.523   0.602  15.759  0.2231  0.5200 -0.4896
 9864TIP3    H151007   5.527   0.601  15.855 -2.2645  2.8001 -0.3090
 9864TIP3    H251008   5.607   0.566  15.732  1.1047  0.1038  2.5525
 9865TIP3   OH251009   5.252   3.144   2.071 -0.2092  0.0871 -0.0532
 9865TIP3    H151010   5.178   3.183   2.116  1.3786  1.9734  1.0277
 9865TIP3    H251011   5.244   3.174   1.981 -1.2540 -0.5135 -0.1732
 9866TIP3   OH251012   5.609   5.542  14.043  0.4635  0.1888 -0.7510
 9866TIP3    H151013   5.704   5.549  14.042  0.6394 -1.8128 -0.1980
 9866TIP3    H251014   5.582   5.582  14.125  0.8435  0.5099 -0.7836
 9867TIP3   OH251015   3.554   2.580  11.809 -0.5856  0.2446  0.1347
 9867TIP3    H151016   3.521   2.544  11.726  1.2391  1.5257 -1.1919
 9867TIP3    H251017   3.483   2.637  11.840 -1.3140 -0.2898 -0.5171
 9868TIP3   OH251018   5.954   4.794   4.073 -0.5215 -0.3165  0.0666
 9868TIP3    H151019   5.968   4.740   4.150 -1.4401  0.1624  0.5807
 9868TIP3    H251020   5.939   4.882   4.108 -1.9018 -0.2738 -0.5785
 9869TIP3   OH251021   4.346   5.935   4.827  0.0114 -0.0653  0.0438
 9869TIP3    H151022   4.297   5.952   4.746 -1.5484 -1.6036  0.6269
 9869TIP3    H251023   4.284   5.955   4.897  0.5349 -1.0690  0.8115
 9870TIP3   OH251024   0.043   3.750   4.013  0.2045  0.2645  0.2384
 9870TIP3    H151025  -0.018   3.721   3.945 -0.0944  0.6947  0.3201
 9870TIP3    H251026   0.116   3.787   3.964 -0.3321  1.2234  0.1526
 9871TIP3   OH251027   0.836   2.977   5.309  0.2507 -0.8130 -0.0919
 9871TIP3    H151028   0.790   3.059   5.328 -1.2816 -1.5534 -0.5231
 9871TIP3    H251029   0.815   2.958   5.218  1.1192 -1.3688 -0.1872
 9872TIP3   OH251030   0.059   5.557   0.693 -0.1706  0.6062  0.0048
 9872TIP3    H151031  -0.018   5.503   0.709 -0.4773  0.5911 -1.4707
 9872TIP3    H251032   0.130   5.493   0.680  0.3616  0.6252  2.4889
 9873TIP3   OH251033   0.339   1.085  13.576 -0.4843 -0.0327  0.3359
 9873TIP3    H151034   0.421   1.083  13.624  0.6205 -1.6410 -1.5377
 9873TIP3    H251035   0.307   1.175  13.586  2.0772  0.9376  0.1218
 9874TIP3   OH251036   0.397   3.136   1.164 -0.5430 -0.0968  0.2044
 9874TIP3    H151037   0.419   3.209   1.221 -0.3909  0.3405 -0.4079
 9874TIP3    H251038   0.355   3.176   1.088 -0.8232 -0.6782  0.0447
 9875TIP3   OH251039   6.087   2.960   5.927  0.2375  0.2510  0.1125
 9875TIP3    H151040   6.013   2.936   5.871  0.6130  2.4035 -1.3666
 9875TIP3    H251041   6.142   3.015   5.872  2.4707 -0.5424  1.4982
 9876TIP3   OH251042   1.969   4.158  15.142  0.0941  0.2365 -0.1972
 9876TIP3    H151043   2.004   4.247  15.140  1.3265 -0.2257  0.1631
 9876TIP3    H251044   2.031   4.109  15.198 -0.0276 -1.0643 -1.1682
 9877TIP3   OH251045   3.894   3.179   1.686 -0.4691 -0.1872 -0.4927
 9877TIP3    H151046   3.983   3.199   1.659 -0.4505  1.0458  0.4159
 9877TIP3    H251047   3.895   3.085   1.706  0.8295 -0.0321  0.2362
 9878TIP3   OH251048   4.145   2.924  14.579 -0.6777  0.2706 -0.1940
 9878TIP3    H151049   4.145   2.917  14.483 -0.8546  0.6052 -0.2192
 9878TIP3    H251050   4.126   2.835  14.609  0.7783 -0.1405 -0.4411
 9879TIP3   OH251051   2.401   1.826  14.912 -0.2207 -0.2399  0.1118
 9879TIP3    H151052   2.440   1.795  14.830  0.0310  2.3283 -0.7881
 9879TIP3    H251053   2.365   1.913  14.890 -3.8599 -1.2623  1.6676
 9880TIP3   OH251054   3.461   3.543   5.315 -0.5509 -0.0983  0.0408
 9880TIP3    H151055   3.471   3.450   5.294  0.2745  0.4291 -2.0517
 9880TIP3    H251056   3.382   3.570   5.268 -0.8554  0.2303  0.7365
 9881TIP3   OH251057   4.300   4.091  12.773 -0.4449 -0.5678 -0.6688
 9881TIP3    H151058   4.353   4.136  12.840  1.0556 -0.6515 -1.7615
 9881TIP3    H251059   4.231   4.154  12.752  0.7972  0.6828 -1.1407
 9882TIP3   OH251060   5.691   3.907  12.887  0.2937  0.3857 -0.0476
 9882TIP3    H151061   5.781   3.930  12.910 -0.0225  0.6574  0.9704
 9882TIP3    H251062   5.699   3.852  12.809  1.3633  0.1193  0.2413
 9883TIP3   OH251063   2.393   4.026   1.673 -0.0893 -0.5652 -0.4025
 9883TIP3    H151064   2.467   4.083   1.651 -1.1797  0.8022 -0.5828
 9883TIP3    H251065   2.424   3.975   1.748  0.9823  0.1235 -0.3599
 9884TIP3   OH251066   0.590   1.825   4.346 -0.6762  0.2933  0.3166
 9884TIP3    H151067   0.614   1.879   4.421 -2.0632 -1.1373  1.8551
 9884TIP3    H251068   0.494   1.820   4.351 -0.6278 -1.4861 -0.3711
 9885TIP3   OH251069   4.487   4.504  14.085 -0.0146  0.5194  0.1485
 9885TIP3    H151070   4.432   4.426  14.087  1.6022 -0.8161 -3.1194
 9885TIP3    H251071   4.568   4.477  14.129  0.1056  0.7315  0.0572
 9886TIP3   OH251072   5.815   2.280  14.655  0.0863  0.1009 -0.1683
 9886TIP3    H151073   5.723   2.257  14.646  0.4678 -0.8701 -1.8568
 9886TIP3    H251074   5.858   2.197  14.676  0.4835  0.6858  1.3776
 9887TIP3   OH251075   4.948   0.145  12.744 -0.2481  0.4109  0.4385
 9887TIP3    H151076   4.992   0.190  12.672 -1.5933  1.0074 -0.0483
 9887TIP3    H251077   4.931   0.214  12.808 -1.7044  0.4750 -0.0007
 9888TIP3   OH251078   1.431   0.318   1.896  0.2574  0.2532 -0.1351
 9888TIP3    H151079   1.398   0.337   1.984  0.0176 -3.0129  0.5446
 9888TIP3    H251080   1.524   0.340   1.900  0.9048 -2.5431  1.8626
 9889TIP3   OH251081   4.546   5.196   4.859 -0.5907  0.2394  0.5177
 9889TIP3    H151082   4.535   5.262   4.927 -1.6776 -0.9732  1.5488
 9889TIP3    H251083   4.554   5.114   4.908 -0.9969 -0.5988 -0.8158
 9890TIP3   OH251084   4.543   3.008   2.225  0.4653 -0.1415 -0.4258
 9890TIP3    H151085   4.617   3.022   2.285 -0.3755  0.3330  0.5164
 9890TIP3    H251086   4.520   3.095   2.195 -0.9160 -0.0821  0.7594
 9891TIP3   OH251087   0.904   5.743   4.021 -0.1724  0.5717 -0.0953
 9891TIP3    H151088   0.921   5.702   4.106  0.0699  0.8782  0.0063
 9891TIP3    H251089   0.988   5.780   3.995 -0.5718  1.7301  0.2057
 9892TIP3   OH251090   0.319   3.042   1.445 -0.2987 -0.9267  0.0080
 9892TIP3    H151091   0.361   3.044   1.359  0.8890  1.2418  0.6087
 9892TIP3    H251092   0.304   2.949   1.462  1.3388 -1.5248 -1.6543
 9893TIP3   OH251093   1.609   1.920   2.975 -0.2567  0.1049 -0.2947
 9893TIP3    H151094   1.578   1.835   2.945 -0.9869  0.6543 -1.1222
 9893TIP3    H251095   1.616   1.973   2.896 -0.1721  0.9243  0.2526
 9894TIP3   OH251096   4.720   2.484  11.475 -0.2297  0.0630  0.5676
 9894TIP3    H151097   4.797   2.445  11.434  0.3059  0.9010  0.7576
 9894TIP3    H251098   4.655   2.488  11.406  0.6699  1.4825 -0.2272
 9895TIP3   OH251099   3.741   5.284   0.710  0.1351  0.7843  0.6089
 9895TIP3    H151100   3.719   5.203   0.755 -0.7760 -0.4871 -2.0319
 9895TIP3    H251101   3.696   5.352   0.760 -0.1631 -0.4749  2.0925
 9896TIP3   OH251102   4.170   3.963  13.824 -0.6934 -0.0188  0.0433
 9896TIP3    H151103   4.202   3.884  13.780  0.0277  0.4855 -0.3483
 9896TIP3    H251104   4.080   3.972  13.795 -0.5534 -0.2976 -0.4780
 9897TIP3   OH251105   4.590   2.939   5.053 -0.1231  0.1729 -0.2031
 9897TIP3    H151106   4.635   2.858   5.077  0.4214  0.7533  0.7612
 9897TIP3    H251107   4.644   3.008   5.089 -0.3472  0.9997 -1.4136
 9898TIP3   OH251108   0.977   3.511  12.008  0.2118  0.0029  0.2436
 9898TIP3    H151109   1.072   3.505  11.997  0.1992  1.4372 -0.7552
 9898TIP3    H251110   0.942   3.462  11.934  0.1463 -2.2553  1.7100
 9899TIP3   OH251111   2.691   3.186   4.433  0.0410 -0.2433 -0.1878
 9899TIP3    H151112   2.626   3.125   4.467  0.1419  0.4151  1.2167
 9899TIP3    H251113   2.713   3.241   4.507  0.4065  1.1101 -1.2796
 9900TIP3   OH251114   1.667   0.227  15.671  0.2335 -0.1521 -0.1778
 9900TIP3    H151115   1.584   0.216  15.625 -1.5813  1.4223  2.5967
 9900TIP3    H251116   1.650   0.193  15.759  2.5834  0.0609  0.3888
 9901TIP3   OH251117   6.360   0.768  16.436 -0.1511 -0.3780 -0.0382
 9901TIP3    H151118   6.374   0.734  16.524  2.6561  0.9703  0.1090
 9901TIP3    H251119   6.449   0.784  16.402 -1.2392  2.6275 -1.7022
 9902TIP3   OH251120   5.657   6.556  10.389  0.6731  0.3312  0.3398
 9902TIP3    H151121   5.717   6.630  10.379 -0.2903  1.1523  0.5206
 9902TIP3    H251122   5.576   6.584  10.347  0.2940 -0.6216  0.4123
 9903TIP3   OH251123   5.001   1.845   1.528  0.5780 -0.0450  0.2068
 9903TIP3    H151124   5.083   1.844   1.479  0.3504  2.6543 -0.3214
 9903TIP3    H251125   4.940   1.893   1.472 -1.1806 -1.4624  0.8780
 9904TIP3   OH251126   1.986   2.007  14.128  0.8239  0.1270  0.2637
 9904TIP3    H151127   2.066   1.992  14.178  0.8660 -2.5897 -0.5919
 9904TIP3    H251128   1.921   1.950  14.169  0.0457  0.2439 -0.7944
 9905TIP3   OH251129   3.224   0.705  13.060 -0.7617  0.1930  0.0448
 9905TIP3    H151130   3.209   0.652  13.139 -0.4053 -0.8635 -0.6002
 9905TIP3    H251131   3.151   0.768  13.060 -2.5045 -1.7732 -0.4214
 9906TIP3   OH251132   2.017   5.139   0.770  0.4579 -0.2662 -0.5475
 9906TIP3    H151133   2.014   5.136   0.675 -1.5236 -2.1223 -0.4709
 9906TIP3    H251134   2.019   5.047   0.797  0.8445  0.2318  1.1998
 9907TIP3   OH251135   5.367   3.036   4.707  0.7239  0.2842 -0.2239
 9907TIP3    H151136   5.429   2.971   4.673  2.1258  2.1640 -1.3677
 9907TIP3    H251137   5.288   2.986   4.725  2.0089 -1.8790 -0.3807
 9908TIP3   OH251138   0.718   5.249  12.579  0.1857 -0.5256  0.2261
 9908TIP3    H151139   0.724   5.284  12.668  0.7205 -1.1341  0.4350
 9908TIP3    H251140   0.753   5.319  12.523 -0.7003  0.0889  0.4362
 9909TIP3   OH251141   2.991   1.820   1.247  0.3032  0.2455  0.2352
 9909TIP3    H151142   2.908   1.779   1.271  0.0942  0.5002 -0.0491
 9909TIP3    H251143   3.042   1.749   1.207  1.1795 -0.5303  2.6021
 9910TIP3   OH251144   5.155   1.441  16.715 -0.0136 -0.0931 -0.0086
 9910TIP3    H151145   5.146   1.471  16.625 -2.6771 -0.0313  0.2413
 9910TIP3    H251146   5.182   1.350  16.707 -0.3003 -0.1082 -0.8421
 9911TIP3   OH251147   1.014   3.189   4.448 -0.1686 -0.4319 -0.6039
 9911TIP3    H151148   1.046   3.118   4.504 -1.0635 -0.5631 -0.2587
 9911TIP3    H251149   0.933   3.155   4.410 -0.6197  0.4255 -0.4160
 9912TIP3   OH251150   3.405   0.153   5.309 -0.1910  0.0707  0.0765
 9912TIP3    H151151   3.405   0.147   5.214  2.0089 -0.4660  0.0683
 9912TIP3    H251152   3.490   0.116   5.335 -0.2386  1.3403  2.1493
 9913TIP3   OH251153   1.798   3.826  15.599  0.2069  0.3051 -0.3644
 9913TIP3    H151154   1.878   3.780  15.625 -0.9820 -1.6573 -0.0265
 9913TIP3    H251155   1.807   3.836  15.504  0.6941 -0.2198 -0.3808
 9914TIP3   OH251156   3.624   0.782   3.701 -0.3621  0.5336 -0.2932
 9914TIP3    H151157   3.706   0.829   3.714  0.0843 -0.2061 -0.4139
 9914TIP3    H251158   3.595   0.759   3.789  0.7984 -1.2969 -0.3533
 9915TIP3   OH251159   1.105   3.154  13.158 -0.2455  0.2896 -0.3287
 9915TIP3    H151160   1.147   3.084  13.208  0.5702  1.4408  0.6551
 9915TIP3    H251161   1.171   3.182  13.095 -0.7194 -0.1209 -1.0001
 9916TIP3   OH251162   1.482   0.344   2.386  0.3584 -0.8950  0.0593
 9916TIP3    H151163   1.555   0.385   2.339 -0.5667  1.1848  0.4000
 9916TIP3    H251164   1.437   0.293   2.319  0.4348  0.1396 -0.7929
 9917TIP3   OH251165   1.172   5.215   2.171  0.1861  0.7711  0.0734
 9917TIP3    H151166   1.088   5.167   2.169  0.6783 -0.0776 -0.9254
 9917TIP3    H251167   1.219   5.177   2.245 -0.2633  1.1598  0.5596
 9918TIP3   OH251168   0.423   2.684   6.120 -0.0590 -0.7556  0.5490
 9918TIP3    H151169   0.340   2.659   6.161  0.2139 -3.2584 -0.3449
 9918TIP3    H251170   0.421   2.642   6.034  2.3296 -1.2050  0.6956
 9919TIP3   OH251171   1.671   2.640   6.194 -0.5756 -0.0156  0.3459
 9919TIP3    H151172   1.764   2.660   6.187 -0.6659  0.7618  1.3108
 9919TIP3    H251173   1.636   2.659   6.107  0.2602 -0.8462 -0.1826
 9920TIP3   OH251174   3.192   0.812   1.936 -0.3058  0.2854 -0.0338
 9920TIP3    H151175   3.179   0.855   2.020  0.2468 -1.2861  0.8755
 9920TIP3    H251176   3.108   0.772   1.917 -0.1616 -0.1417  0.2249
 9921TIP3   OH251177   4.572   1.397  16.578 -0.9725 -0.2489 -0.1055
 9921TIP3    H151178   4.563   1.477  16.630  0.3095 -0.9651  1.2466
 9921TIP3    H251179   4.657   1.405  16.536  0.2318 -1.9905  1.9521
 9922TIP3   OH251180   5.908   2.052   3.463  0.5659  0.1169 -0.1592
 9922TIP3    H151181   5.907   2.089   3.552 -1.2053  1.7050 -0.8074
 9922TIP3    H251182   5.934   2.125   3.407  1.7020 -0.8828 -0.9688
 9923TIP3   OH251183   1.902   1.758   0.780  0.0520  0.2919 -0.2128
 9923TIP3    H151184   1.982   1.736   0.733  0.8554 -1.0957  1.7289
 9923TIP3    H251185   1.837   1.696   0.748 -0.1071  1.0334 -1.3559
 9924TIP3   OH251186   2.492   4.659  15.883 -0.4344 -0.3032  0.0040
 9924TIP3    H151187   2.489   4.580  15.830 -1.3194  0.4844 -1.1381
 9924TIP3    H251188   2.517   4.728  15.822  4.3373 -0.3225  1.7773
 9925TIP3   OH251189   0.712   2.145  16.296 -0.1056 -0.9406 -0.2405
 9925TIP3    H151190   0.741   2.076  16.355  0.3765  0.2739  0.9720
 9925TIP3    H251191   0.623   2.165  16.325  0.1575 -0.2929  0.1277
 9926TIP3   OH251192   3.225   6.000  13.528  0.1777  0.2006 -0.1206
 9926TIP3    H151193   3.134   5.971  13.529 -1.1827  4.1677  0.2406
 9926TIP3    H251194   3.256   5.983  13.439 -1.4986  0.4097 -0.7484
 9927TIP3   OH251195   2.663   0.519   1.321 -0.2086  0.2060  0.0087
 9927TIP3    H151196   2.717   0.548   1.394  0.8887 -2.2837  0.2142
 9927TIP3    H251197   2.714   0.541   1.243 -0.5676  1.2000  0.0452
 9928TIP3   OH251198   2.855   0.406   1.031  0.1149 -0.3904  0.1072
 9928TIP3    H151199   2.769   0.435   1.001  0.1365 -0.5448 -0.1079
 9928TIP3    H251200   2.917   0.465   0.988  0.1164 -0.2532  0.2938
 9929TIP3   OH251201   3.874   3.503  12.444  0.0438  0.4331 -0.0808
 9929TIP3    H151202   3.882   3.486  12.538  1.5765 -1.0377 -0.4522
 9929TIP3    H251203   3.898   3.421  12.402  2.0258  1.8276 -1.8321
 9930TIP3   OH251204   5.333   0.691  11.501  0.4445  0.1253 -0.2690
 9930TIP3    H151205   5.308   0.630  11.570 -0.3851 -0.5702 -1.1535
 9930TIP3    H251206   5.414   0.731  11.531 -0.8421  1.1388  1.9012
 9931TIP3   OH251207   6.753   3.312  15.188  0.3202 -0.0640 -0.2844
 9931TIP3    H151208   6.688   3.273  15.246  0.3151 -0.6130 -0.6546
 9931TIP3    H251209   6.826   3.335  15.246  0.4875 -0.9942 -0.1251
 9932TIP3   OH251210   2.751   5.368   0.575  0.0059  0.0897  0.4815
 9932TIP3    H151211   2.749   5.375   0.480  2.9194  0.2321  0.4056
 9932TIP3    H251212   2.748   5.274   0.593  0.7015  0.0156  0.2085
 9933TIP3   OH251213   0.832   5.424   1.770 -0.2658  0.3425  0.0388
 9933TIP3    H151214   0.757   5.474   1.740 -1.2086  1.1055  3.4159
 9933TIP3    H251215   0.805   5.332   1.762 -0.0803  0.4608 -2.2896
 9934TIP3   OH251216   4.555   0.817   1.561 -0.3489  0.2347 -0.1885
 9934TIP3    H151217   4.506   0.898   1.544  0.4624  1.1230  1.5433
 9934TIP3    H251218   4.554   0.809   1.657  0.0970 -1.4967 -0.3119
 9935TIP3   OH251219   6.720   6.142  12.974 -0.2324  0.0009 -0.3266
 9935TIP3    H151220   6.811   6.130  13.002 -0.3544 -1.3513 -0.5202
 9935TIP3    H251221   6.694   6.057  12.939 -0.7220  1.1081 -2.7345
 9936TIP3   OH251222   2.520   4.504  12.183 -0.6959 -0.8236  0.0625
 9936TIP3    H151223   2.548   4.473  12.097 -0.8340 -3.0489  0.7902
 9936TIP3    H251224   2.454   4.570  12.164  0.1833 -0.3630 -1.5523
 9937TIP3   OH251225   5.566   4.667  16.258  0.5845  0.1466  0.5696
 9937TIP3    H151226   5.479   4.628  16.257  0.4346  0.4258  1.6376
 9937TIP3    H251227   5.625   4.594  16.240  0.1935 -0.2325  0.8026
 9938TIP3   OH251228   2.841   6.401   2.145 -0.5799 -0.0577  0.1987
 9938TIP3    H151229   2.857   6.490   2.175  2.2832 -0.2018 -0.7292
 9938TIP3    H251230   2.779   6.364   2.208 -2.1312  2.7055  0.3416
 9939TIP3   OH251231   1.329   4.430   2.466  0.4400 -0.3912 -0.0301
 9939TIP3    H151232   1.247   4.380   2.465 -0.3282  0.8677 -1.3099
 9939TIP3    H251233   1.357   4.434   2.375  1.5583 -0.1801  0.3097
 9940TIP3   OH251234   0.923   2.660   4.863  0.2013 -0.0325  0.0895
 9940TIP3    H151235   0.910   2.614   4.946 -1.7483  0.5703  0.1513
 9940TIP3    H251236   0.875   2.607   4.799  0.3966  0.3500 -0.3727
 9941TIP3   OH251237   6.574   0.391   1.704 -0.1090 -0.5214 -0.1113
 9941TIP3    H151238   6.638   0.394   1.775  0.5418 -1.9335 -0.6222
 9941TIP3    H251239   6.588   0.471   1.655 -0.2375  0.2395  1.0656
 9942TIP3   OH251240   3.306   4.161   1.198  0.0555 -0.3921  0.3821
 9942TIP3    H151241   3.260   4.082   1.173 -0.5871  0.1834 -0.2761
 9942TIP3    H251242   3.383   4.163   1.142 -0.6898  0.2047 -0.6247
 9943TIP3   OH251243   0.886   0.358   2.743 -0.1909 -0.7587  0.5403
 9943TIP3    H151244   0.799   0.367   2.703  0.7027  0.5684 -1.1903
 9943TIP3    H251245   0.935   0.304   2.682  0.3089 -1.2017  1.3311
 9944TIP3   OH251246   1.907   3.981  12.362 -0.6938  0.4253 -0.1250
 9944TIP3    H151247   1.817   4.015  12.358  0.9683  5.1521 -0.1809
 9944TIP3    H251248   1.942   3.995  12.274  0.3296 -0.7751  0.0772
 9945TIP3   OH251249   5.786   4.607   1.488  0.7354  0.2045  0.0810
 9945TIP3    H151250   5.868   4.569   1.455 -1.3736 -1.0623 -4.0399
 9945TIP3    H251251   5.745   4.536   1.537 -0.6483 -1.2186 -3.0041
 9946TIP3   OH251252   6.040   6.162  11.882 -0.2327  0.6508  0.0212
 9946TIP3    H151253   6.003   6.176  11.794 -0.9247 -1.1022  0.0204
 9946TIP3    H251254   6.092   6.083  11.874  0.2142  0.8356  1.0522
 9947TIP3   OH251255   4.574   3.623  15.676 -0.1314 -0.5932 -0.2639
 9947TIP3    H151256   4.598   3.666  15.594  1.3734  0.1475  0.5637
 9947TIP3    H251257   4.547   3.535  15.649 -0.5105 -0.0740 -1.6409
 9948TIP3   OH251258   0.445   0.195  11.544  0.1121 -0.1440  0.1230
 9948TIP3    H151259   0.384   0.191  11.617 -0.4032  1.1336 -0.2290
 9948TIP3    H251260   0.419   0.272  11.495  2.0700  0.5016  0.0303
 9949TIP3   OH251261   1.003   3.131   3.488  0.1879 -0.9230 -0.3761
 9949TIP3    H151262   0.917   3.107   3.452 -0.4685  2.8929 -1.6215
 9949TIP3    H251263   0.985   3.209   3.541  2.6194 -1.1870  0.8759
 9950TIP3   OH251264   6.449   5.876   2.478 -0.5334  0.4601  0.2130
 9950TIP3    H151265   6.424   5.805   2.420 -0.4970  1.2047 -0.7229
 9950TIP3    H251266   6.371   5.893   2.531 -0.6495 -0.0469  0.1990
 9951TIP3   OH251267   4.906   6.374  12.952 -0.8046  0.1643  0.4060
 9951TIP3    H151268   4.925   6.282  12.969 -1.7203 -0.0823  0.1154
 9951TIP3    H251269   4.940   6.389  12.864 -0.2409  0.2269  0.6325
 9952TIP3   OH251270   4.413   6.416  13.016  0.1831 -0.3166  0.0874
 9952TIP3    H151271   4.358   6.363  13.073 -2.5904  1.2756 -0.9804
 9952TIP3    H251272   4.437   6.357  12.945  0.7614 -1.3292  1.1071
 9953TIP3   OH251273   2.128   6.767  10.655 -0.2573 -0.1565  0.3097
 9953TIP3    H151274   2.167   6.751  10.569 -0.6555  1.4325 -0.1775
 9953TIP3    H251275   2.066   6.838  10.640 -0.3774  0.0849  1.9072
 9954TIP3   OH251276   3.351   6.755   3.120 -0.3180  0.4564  0.1840
 9954TIP3    H151277   3.389   6.842   3.132 -0.4307  0.6517 -0.7752
 9954TIP3    H251278   3.265   6.760   3.161 -0.0201  0.5705  0.7870
 9955TIP3   OH251279   1.092   1.908  10.973  0.0962 -0.2372  0.1004
 9955TIP3    H151280   1.160   1.919  11.040 -1.3550  0.6069  1.4556
 9955TIP3    H251281   1.117   1.969  10.903 -0.9229  2.3943  1.9572
 9956TIP3   OH251282   2.751   2.843   1.967 -0.2215 -0.0712  0.0631
 9956TIP3    H151283   2.752   2.888   2.051 -0.1485 -0.9811  0.5622
 9956TIP3    H251284   2.844   2.828   1.947 -0.2837 -1.0726  0.4953
 9957TIP3   OH251285   5.461   2.810   1.398 -0.2260 -0.1660 -0.3542
 9957TIP3    H151286   5.410   2.857   1.464 -1.1114 -0.6908 -0.6446
 9957TIP3    H251287   5.534   2.868   1.378 -0.4174  0.3672  0.4661
 9958TIP3   OH251288   5.345   1.418   0.300  0.2055  0.1474  0.4365
 9958TIP3    H151289   5.392   1.460   0.228 -0.4305  0.0813 -0.0229
 9958TIP3    H251290   5.274   1.370   0.257  0.0554 -0.2060  1.0773
 9959TIP3   OH251291   3.510   0.953   3.486  0.2633  0.2392 -0.3518
 9959TIP3    H151292   3.553   0.914   3.562 -0.0246 -0.2556 -0.4468
 9959TIP3    H251293   3.516   1.048   3.502  0.6228  0.1498  0.0544
 9960TIP3   OH251294   2.810   2.046   3.262  0.2466 -0.4905 -0.1447
 9960TIP3    H151295   2.802   1.975   3.200  0.8650 -1.4349  0.8396
 9960TIP3    H251296   2.812   2.125   3.208 -0.8708 -1.1690 -1.2184
 9961TIP3   OH251297   3.329   1.787  11.362 -0.0790 -0.7237 -0.2743
 9961TIP3    H151298   3.255   1.833  11.321 -0.6167 -0.7902  0.5997
 9961TIP3    H251299   3.404   1.807  11.306 -1.0342 -1.7853 -1.9565
 9962TIP3   OH251300   4.298   5.519   1.938  0.4015 -0.2949 -0.0519
 9962TIP3    H151301   4.265   5.521   2.028 -1.4128  0.2787 -0.7051
 9962TIP3    H251302   4.220   5.535   1.884  1.0283 -2.9592 -1.8309
 9963TIP3   OH251303   6.333   5.687   5.212 -0.0088  0.0739  0.4107
 9963TIP3    H151304   6.313   5.641   5.293 -0.1328 -1.1356 -0.2980
 9963TIP3    H251305   6.402   5.634   5.171 -1.5058 -0.5484 -1.3414
 9964TIP3   OH251306   6.108   6.413  14.371  0.4241  0.0514 -0.4723
 9964TIP3    H151307   6.134   6.344  14.432 -0.2273 -0.4751 -0.7912
 9964TIP3    H251308   6.048   6.468  14.420 -2.7162 -2.2182 -1.5837
 9965TIP3   OH251309   5.744   0.218   2.754 -0.8732  0.1446  0.1574
 9965TIP3    H151310   5.719   0.226   2.846 -1.8961 -0.7649 -0.0211
 9965TIP3    H251311   5.702   0.292   2.711  1.2560  1.7162  0.7285
 9966TIP3   OH251312   5.043   4.926   3.028 -0.4533  0.0884  0.0357
 9966TIP3    H151313   5.134   4.934   3.055 -0.9202 -0.4317  1.8476
 9966TIP3    H251314   5.033   4.835   3.003 -0.5399  0.0876  0.0725
 9967TIP3   OH251315   6.426   5.012   2.967 -0.5735 -0.1039 -0.1244
 9967TIP3    H151316   6.470   4.991   3.049  0.3388  0.9795 -0.3255
 9967TIP3    H251317   6.333   5.003   2.986 -0.4192  1.3561  1.3905
 9968TIP3   OH251318   1.409   4.084   1.523 -0.2753 -0.0582 -0.0791
 9968TIP3    H151319   1.372   4.119   1.442 -0.1679 -0.3594 -0.2581
 9968TIP3    H251320   1.338   4.093   1.587 -0.8113 -1.0316 -0.5258
 9969TIP3   OH251321   1.033   6.063  13.226 -0.1697 -0.5038 -0.8915
 9969TIP3    H151322   1.092   6.096  13.294  1.4950 -1.2431 -1.9436
 9969TIP3    H251323   0.960   6.125  13.226 -0.1204 -0.3892  1.4385
 9970TIP3   OH251324   0.485   2.768   5.074  0.7066 -0.2356  0.2214
 9970TIP3    H151325   0.511   2.811   4.993  1.2042  1.1171  1.0943
 9970TIP3    H251326   0.445   2.837   5.126  2.0437 -0.6895  1.8832
 9971TIP3   OH251327   1.415   3.913  12.197  0.6279 -0.2541  0.3388
 9971TIP3    H151328   1.474   3.841  12.173  2.7517  1.1153  1.3711
 9971TIP3    H251329   1.334   3.869  12.222  1.1334 -2.1644 -1.2396
 9972TIP3   OH251330   6.248   4.597   1.058  0.5974  0.0250  0.4790
 9972TIP3    H151331   6.333   4.553   1.063  1.2133  1.1337 -0.0423
 9972TIP3    H251332   6.270   4.690   1.053 -0.6088  0.2455 -0.8505
 9973TIP3   OH251333   4.903   6.434   0.871 -0.5610 -0.0583 -0.2222
 9973TIP3    H151334   4.849   6.364   0.909 -1.4408  0.6420 -0.1679
 9973TIP3    H251335   4.909   6.411   0.778 -3.1326  1.2056 -0.7559
 9974TIP3   OH251336   3.027   3.562  10.884  0.1774  0.3500 -0.4407
 9974TIP3    H151337   3.101   3.501  10.894 -0.5900 -0.4084  0.6686
 9974TIP3    H251338   3.068   3.648  10.883  1.0200 -0.0257  1.0043
 9975TIP3   OH251339   5.722   2.150   4.125  0.0890 -0.2949 -0.4231
 9975TIP3    H151340   5.810   2.173   4.096 -0.0901 -1.4873 -1.9677
 9975TIP3    H251341   5.731   2.063   4.163 -0.0659  0.4110  1.2781
 9976TIP3   OH251342   5.551   4.111  11.770  0.1417  0.2843  0.3150
 9976TIP3    H151343   5.482   4.092  11.706  0.6506 -0.2141 -0.0819
 9976TIP3    H251344   5.612   4.169  11.725  2.5789 -3.1640 -0.9891
 9977TIP3   OH251345   5.457   3.792  13.740  0.5430 -0.3440 -0.1113
 9977TIP3    H151346   5.429   3.862  13.682 -0.2234 -1.4551 -1.1156
 9977TIP3    H251347   5.540   3.763  13.703  1.2611  0.5487  0.7690
 9978TIP3   OH251348   1.636   5.074   5.044  0.1338  0.4801  0.2784
 9978TIP3    H151349   1.681   5.051   5.125  4.1592  0.0608 -1.9330
 9978TIP3    H251350   1.584   4.997   5.023  2.0466 -0.9074  0.5188
 9979TIP3   OH251351   5.968   1.208   0.876 -0.4849 -0.1363 -0.2932
 9979TIP3    H151352   5.963   1.183   0.784  1.2073  0.0789 -0.4667
 9979TIP3    H251353   6.018   1.290   0.876 -0.6281 -0.0394  0.7956
 9980TIP3   OH251354   0.502   2.636   2.204  0.4076  0.4735  0.1743
 9980TIP3    H151355   0.522   2.720   2.164  0.8383  1.2849  2.0666
 9980TIP3    H251356   0.414   2.646   2.240 -0.7162 -0.8462 -2.0842
 9981TIP3   OH251357   2.017   3.254  11.624 -0.3424  0.3848  0.3104
 9981TIP3    H151358   1.978   3.192  11.563 -1.1576  2.6004 -1.5182
 9981TIP3    H251359   2.111   3.235  11.621 -0.5559 -0.5853 -0.3901
 9982TIP3   OH251360   6.417   0.320   3.113  0.0468  0.1054  0.1564
 9982TIP3    H151361   6.465   0.398   3.084  0.6566 -0.7100 -1.0916
 9982TIP3    H251362   6.478   0.274   3.171 -0.8539  1.2912  2.0809
 9983TIP3   OH251363   5.071   0.516   3.388 -0.3974 -0.0450  0.2792
 9983TIP3    H151364   5.052   0.438   3.441 -0.5638 -0.4166 -0.3266
 9983TIP3    H251365   5.052   0.590   3.447 -0.1653 -0.4584  0.8776
 9984TIP3   OH251366   3.986   4.007  16.176 -0.0555 -0.5694  0.4559
 9984TIP3    H151367   3.930   4.084  16.179 -0.0500 -0.5513  0.0969
 9984TIP3    H251368   3.926   3.933  16.171 -0.0358 -0.4724 -1.5824
 9985TIP3   OH251369   1.389   4.137   5.704  1.0033 -0.1261 -0.1455
 9985TIP3    H151370   1.390   4.051   5.746 -0.4369 -0.9490 -1.7466
 9985TIP3    H251371   1.320   4.131   5.638 -0.1262  2.7645  0.7029
 9986TIP3   OH251372   4.759   4.747  14.214 -0.0934 -0.1530 -0.7237
 9986TIP3    H151373   4.791   4.831  14.248 -0.6299  0.3718 -1.5012
 9986TIP3    H251374   4.817   4.726  14.141  1.2376 -1.4280  0.6647
 9987TIP3   OH251375   2.388   4.430   6.001 -0.2500  0.7241  0.3127
 9987TIP3    H151376   2.468   4.433   6.053 -0.1505  3.4515  0.0639
 9987TIP3    H251377   2.368   4.521   5.981 -3.2163  0.0756  0.0161
 9988TIP3   OH251378   5.816   0.150   3.930  0.3172  0.5087  0.5016
 9988TIP3    H151379   5.799   0.105   3.847  0.0021 -0.4315  1.0620
 9988TIP3    H251380   5.752   0.220   3.934 -1.0098 -0.7039  0.8768
 9989TIP3   OH251381   0.860   5.158  13.123  0.4588  0.0821 -0.1143
 9989TIP3    H151382   0.869   5.251  13.103  0.6229  0.1199  0.1359
 9989TIP3    H251383   0.765   5.143  13.125  0.4356  0.1437 -0.6094
 9990TIP3   OH251384   6.082   2.844   4.488  0.4555 -0.0838  0.1422
 9990TIP3    H151385   6.115   2.802   4.568  2.9137 -0.3369 -0.9367
 9990TIP3    H251386   5.993   2.811   4.479  0.7811 -1.5252  1.7769
 9991TIP3   OH251387   1.855   3.172  10.595 -0.4295  0.4948  0.0876
 9991TIP3    H151388   1.933   3.173  10.540  1.2300  1.8251  2.3794
 9991TIP3    H251389   1.818   3.084  10.582  1.2978 -0.0610 -1.2321
 9992TIP3   OH251390   1.587   1.103  17.150 -0.2143 -0.0321 -0.3435
 9992TIP3    H151391   1.514   1.127  17.206  1.5986  0.1741  2.0042
 9992TIP3    H251392   1.599   1.179  17.092 -0.9656  0.5027  0.2026
 9993TIP3   OH251393   4.155   6.217   4.494  0.1667 -0.1656 -0.0676
 9993TIP3    H151394   4.126   6.135   4.534 -2.6111  0.7870  0.0316
 9993TIP3    H251395   4.214   6.191   4.424 -0.2799 -2.2223  0.2935
 9994TIP3   OH251396   1.035   0.063  17.156  0.1793  0.0045  0.9430
 9994TIP3    H151397   1.124   0.096  17.139  1.2340 -3.5453 -0.8334
 9994TIP3    H251398   0.986   0.084  17.077  0.3239 -0.9308  0.6009
 9995TIP3   OH251399   5.266   0.066   3.745 -0.2014  0.0344  0.0670
 9995TIP3    H151400   5.297   0.038   3.831 -0.1037 -1.4588 -0.4270
 9995TIP3    H251401   5.315   0.145   3.725 -0.5148  0.6163  1.5587
 9996TIP3   OH251402   3.785   5.129  12.239 -0.3770  0.0127  0.4346
 9996TIP3    H151403   3.869   5.107  12.278 -0.4522  0.1819  0.6938
 9996TIP3    H251404   3.721   5.075  12.286 -0.0652 -2.4804 -1.8877
 9997TIP3   OH251405   4.820   2.384  14.121 -0.2331 -0.5626  0.2462
 9997TIP3    H151406   4.818   2.296  14.159  2.7195 -1.2096 -0.9446
 9997TIP3    H251407   4.821   2.370  14.027  0.4590  0.7156  0.0428
 9998TIP3   OH251408   6.193   1.360   4.043  0.1173  0.2065  0.7905
 9998TIP3    H151409   6.208   1.292   3.977  1.4677  0.6928  0.5715
 9998TIP3    H251410   6.194   1.442   3.994 -2.5220  0.3345  0.9100
 9999TIP3   OH251411   5.497   5.181   0.266  0.8823  0.2043 -0.0163
 9999TIP3    H151412   5.416   5.132   0.278  0.0809  1.2079 -1.3298
 9999TIP3    H251413   5.524   5.162   0.176  3.3413 -1.9537  1.0854
10000TIP3   OH251414   2.896   6.286   3.243  0.2626 -0.1786 -0.6264
10000TIP3    H151415   2.826   6.291   3.308  0.5293  1.6899 -0.4671
10000TIP3    H251416   2.974   6.314   3.289  0.8012 -0.5779 -1.2783
10001TIP3   OH251417   4.221   1.549  15.396  0.5673 -0.3601 -0.0578
10001TIP3    H151418   4.171   1.581  15.471 -0.4070 -0.6609 -0.5689
10001TIP3    H251419   4.157   1.547  15.324  1.4018 -0.4070 -0.8074
10002TIP3   OH251420   0.631   3.216  16.094  0.4531 -0.2828  0.3525
10002TIP3    H151421   0.697   3.151  16.067 -0.5476 -0.4240 -1.9001
10002TIP3    H251422   0.675   3.300  16.082  0.8981 -0.4433  0.8257
10003TIP3   OH251423   4.935   1.297  13.706 -0.5258 -1.1047  0.5232
10003TIP3    H151424   5.014   1.331  13.749 -0.8284  0.4698 -0.1009
10003TIP3    H251425   4.870   1.293  13.776 -0.5822 -0.0358  0.5415
10004TIP3   OH251426   4.720   0.792   0.092  0.1245 -0.3119  0.3712
10004TIP3    H151427   4.643   0.849   0.094  0.9881  0.9663 -1.6645
10004TIP3    H251428   4.721   0.757   0.003  0.8575 -1.7972  0.9572
10005TIP3   OH251429   1.110   1.056  11.767  0.1466  0.4464 -0.3184
10005TIP3    H151430   1.099   0.986  11.703  0.2481  0.2620 -0.1358
10005TIP3    H251431   1.097   1.137  11.718 -1.6289  0.2507 -0.1798
10006TIP3   OH251432   5.545   0.987  14.477  0.6876 -0.5654  0.5666
10006TIP3    H151433   5.482   1.057  14.459 -0.1701 -1.3975  0.2371
10006TIP3    H251434   5.552   0.985  14.573  0.7608  0.0119  0.5716
10007TIP3   OH251435   3.635   4.398   5.184 -0.6095  0.3969  0.0879
10007TIP3    H151436   3.722   4.404   5.224 -1.0361  0.5676  1.0125
10007TIP3    H251437   3.640   4.322   5.126  0.6303  1.3502 -1.0916
10008TIP3   OH251438   1.452   1.756  12.593 -0.3812 -0.1266  0.2807
10008TIP3    H151439   1.481   1.743  12.503 -1.3468  0.1608 -0.0834
10008TIP3    H251440   1.386   1.688  12.607 -0.2342 -0.1701  0.7683
10009TIP3   OH251441   2.097   2.120  12.694 -0.1864 -0.4874  0.1242
10009TIP3    H151442   2.171   2.101  12.637 -0.7574 -1.2500 -0.3776
10009TIP3    H251443   2.089   2.216  12.692  0.6890 -0.4119  0.0679
10010TIP3   OH251444   4.312   1.730   0.062  0.4354  0.0591  0.0470
10010TIP3    H151445   4.263   1.649   0.049  0.0906  0.3429 -0.4054
10010TIP3    H251446   4.402   1.706   0.039  0.2338 -0.0498 -0.6560
10011TIP3   OH251447   1.727   4.549   2.199 -0.1976 -0.4385  0.7023
10011TIP3    H151448   1.638   4.562   2.232 -0.6334 -0.4059 -0.4733
10011TIP3    H251449   1.719   4.481   2.132  0.4434  0.5042 -0.3519
10012TIP3   OH251450   3.736   0.553  15.798 -0.1200 -0.1978  0.1354
10012TIP3    H151451   3.706   0.641  15.824 -0.8322 -0.3461 -0.1601
10012TIP3    H251452   3.831   0.562  15.787 -0.3837  0.9593 -1.4690
10013TIP3   OH251453   5.968   4.101  15.255 -0.2396 -0.3511  0.4731
10013TIP3    H151454   6.060   4.106  15.228 -0.2871 -1.4775  0.0816
10013TIP3    H251455   5.945   4.192  15.276  0.1285  0.4288 -2.2162
10014TIP3   OH251456   2.937   4.595  12.993  0.0049  0.5159  0.4704
10014TIP3    H151457   2.953   4.531  12.923  0.2563  0.6475  0.4077
10014TIP3    H251458   2.964   4.679  12.955 -1.9159  0.9275 -0.0602
10015TIP3   OH251459   4.969   4.642  12.465  0.0742  0.1519  0.5621
10015TIP3    H151460   4.915   4.581  12.515 -0.2804  1.5015  1.8880
10015TIP3    H251461   4.906   4.702  12.425  0.2726 -1.6031 -2.5477
10016TIP3   OH251462   4.409   4.042  12.116 -0.3585 -1.0297 -0.2187
10016TIP3    H151463   4.321   4.021  12.148 -1.1959 -0.0457 -1.8144
10016TIP3    H251464   4.426   4.130  12.151 -0.2869 -0.9448 -0.4660
10017TIP3   OH251465   3.254   2.979   2.561 -0.0410 -0.1949 -0.6062
10017TIP3    H151466   3.214   2.932   2.488  1.4208  1.0678 -2.2385
10017TIP3    H251467   3.300   3.053   2.521  1.5129  0.0315  1.4886
10018TIP3   OH251468   0.626   1.926  13.916 -0.4525 -0.1593  0.6633
10018TIP3    H151469   0.637   1.888  13.829  0.1894  1.9512 -0.2006
10018TIP3    H251470   0.710   1.968  13.935 -0.3049 -1.3281  2.6661
10019TIP3   OH251471   1.808   3.536  11.917 -0.1838 -0.0304  0.7544
10019TIP3    H151472   1.775   3.528  11.828  3.2373  0.1325 -0.5922
10019TIP3    H251473   1.797   3.629  11.939  1.1538  0.4350 -0.4430
10020TIP3   OH251474   5.580   5.647   3.901 -0.0920 -0.1146 -0.6230
10020TIP3    H151475   5.538   5.591   3.966  1.1857 -1.0234 -0.5653
10020TIP3    H251476   5.604   5.587   3.830  0.2299  0.5568 -1.0873
10021TIP3   OH251477   0.943   2.342  14.536  0.0567 -0.5303  0.5931
10021TIP3    H151478   0.859   2.298  14.538 -0.8510  1.1634  1.2201
10021TIP3    H251479   1.008   2.272  14.529 -1.4140 -1.8256 -0.0872
10022TIP3   OH251480   2.602   6.596   4.595  0.3098  0.2358 -0.4562
10022TIP3    H151481   2.519   6.624   4.556 -1.1446 -2.8733  0.2488
10022TIP3    H251482   2.581   6.582   4.688  2.4328  2.4313  0.4204
10023TIP3   OH251483   4.977   0.686  11.306 -0.5372 -0.2107  0.1625
10023TIP3    H151484   4.967   0.591  11.305 -1.8216 -0.1419  2.6689
10023TIP3    H251485   5.001   0.709  11.216 -1.7019 -2.7410 -0.8340
10024TIP3   OH251486   6.060   0.671   2.598 -0.4243  0.3081  0.3171
10024TIP3    H151487   6.045   0.590   2.648 -0.2047  0.2168  0.2330
10024TIP3    H251488   6.052   0.644   2.506  1.0422  0.1015  0.2407
10025TIP3   OH251489   5.238   6.098   3.722 -0.3394 -0.4660 -0.2047
10025TIP3    H151490   5.142   6.103   3.715 -0.4289  0.6498  1.5304
10025TIP3    H251491   5.262   6.177   3.770  1.5347 -0.4191 -1.2043
10026TIP3   OH251492   4.160   2.667   3.975  0.2847 -0.4714  0.0246
10026TIP3    H151493   4.064   2.659   3.969  0.4239 -1.8488 -0.4946
10026TIP3    H251494   4.174   2.742   4.033 -1.1309 -1.3280  1.5338
10027TIP3   OH251495   0.679   1.518  16.510  0.6884 -0.2550 -0.1240
10027TIP3    H151496   0.689   1.477  16.596  1.1319 -3.1740 -1.5331
10027TIP3    H251497   0.588   1.550  16.510  0.4316 -0.9526  1.1041
10028TIP3   OH251498   2.823   1.145  14.669 -0.4414 -0.4102 -0.0626
10028TIP3    H151499   2.826   1.240  14.671 -0.4338 -0.4310  1.2527
10028TIP3    H251500   2.744   1.124  14.619 -0.6288  0.2849 -0.0615
10029TIP3   OH251501   4.483   5.749   1.219 -0.1555  0.0727 -0.5499
10029TIP3    H151502   4.390   5.730   1.202  0.5240 -1.5629 -2.6435
10029TIP3    H251503   4.492   5.743   1.314 -1.7926 -1.6759 -0.4779
10030TIP3   OH251504   6.683   3.432   1.828 -0.1439  0.2751 -0.2020
10030TIP3    H151505   6.630   3.501   1.867 -0.2399  0.4645 -0.6628
10030TIP3    H251506   6.635   3.351   1.847 -0.4203  0.4123 -0.3162
10031TIP3   OH251507   1.054   3.971   5.812  0.1809  0.1053  0.1040
10031TIP3    H151508   1.024   3.910   5.745  0.2754 -0.3888  0.5047
10031TIP3    H251509   1.139   3.936   5.840  0.3923  0.6035  0.1071
10032TIP3   OH251510   4.911   1.369  15.932  0.6352  0.4408  0.1795
10032TIP3    H151511   4.964   1.415  15.867 -2.5426  0.6622 -2.3452
10032TIP3    H251512   4.898   1.281  15.895 -0.5684  0.3143  0.8846
10033TIP3   OH251513   5.414   2.228   0.538 -0.3125  0.4009 -0.2885
10033TIP3    H151514   5.436   2.242   0.446  0.4172  0.3699 -0.1175
10033TIP3    H251515   5.381   2.138   0.542  2.1110 -0.4983 -0.0674
10034TIP3   OH251516   1.755   2.845  14.039 -0.4273 -0.5219 -0.1708
10034TIP3    H151517   1.839   2.837  14.083 -0.4449  0.8527  0.1129
10034TIP3    H251518   1.706   2.767  14.067  0.6596 -1.2274 -0.1828
10035TIP3   OH251519   6.038   5.835  16.761  0.2914  0.0292 -0.4341
10035TIP3    H151520   6.131   5.835  16.781 -0.1127 -3.0079  1.7894
10035TIP3    H251521   6.010   5.744  16.773 -3.1120  1.0208 -0.1858
10036TIP3   OH251522   0.105   3.441   4.921  0.2525 -0.2293  0.3063
10036TIP3    H151523   0.092   3.347   4.913 -1.3989 -0.1838  1.9141
10036TIP3    H251524   0.037   3.479   4.866  0.5893  0.0202  0.0631
10037TIP3   OH251525   1.497   2.297   5.302  0.7608 -0.3423  0.2401
10037TIP3    H151526   1.568   2.335   5.354 -0.2406 -0.2618  1.5582
10037TIP3    H251527   1.464   2.225   5.355 -0.4686 -0.0711 -0.1442
10038TIP3   OH251528   6.189   6.178   6.003  0.3351  0.1070 -0.3298
10038TIP3    H151529   6.206   6.202   6.094 -1.0741  0.7559 -0.2289
10038TIP3    H251530   6.224   6.089   5.995  1.2947  0.3940  0.5907
10039TIP3   OH251531   5.258   1.286  15.130  0.4020 -0.0972  0.0584
10039TIP3    H151532   5.207   1.211  15.161  1.9823 -1.6983 -1.0887
10039TIP3    H251533   5.198   1.334  15.074 -0.8407 -0.1082  1.3536
10040TIP3   OH251534   2.810   4.280   2.211 -0.4448  0.1129  0.4330
10040TIP3    H151535   2.782   4.202   2.162  0.0163 -0.4126  1.0071
10040TIP3    H251536   2.752   4.350   2.179  0.5401  0.0339 -1.6520
10041TIP3   OH251537   2.629   5.093   2.849 -0.1031 -0.0319 -0.6914
10041TIP3    H151538   2.614   5.023   2.785 -1.8983 -0.4320  0.1292
10041TIP3    H251539   2.568   5.162   2.823 -0.8293 -0.1859  0.5490
10042TIP3   OH251540   3.828   5.997   6.146 -0.4028  0.1659 -0.4813
10042TIP3    H151541   3.812   6.067   6.210 -1.5874 -0.2532 -0.3097
10042TIP3    H251542   3.843   5.919   6.199  0.8937  0.2686 -0.6757
10043TIP3   OH251543   0.837   1.622  14.750 -0.3542 -0.2745  0.0228
10043TIP3    H151544   0.929   1.618  14.777  0.0843 -1.1470 -1.5113
10043TIP3    H251545   0.788   1.600  14.829  0.6985  1.2266  1.1319
10044TIP3   OH251546   2.903   0.505  14.409 -0.4246  0.0844  0.2682
10044TIP3    H151547   2.993   0.536  14.418 -0.1214 -0.8981  0.7153
10044TIP3    H251548   2.895   0.435  14.474 -0.9132 -1.1324 -1.0637
10045TIP3   OH251549   2.307   2.828  12.881  0.2809 -0.3252 -0.5579
10045TIP3    H151550   2.320   2.734  12.866  0.1070 -0.5263  0.4813
10045TIP3    H251551   2.378   2.852  12.941 -1.2142 -0.3796  1.2886
10046TIP3   OH251552   4.840   0.113   2.125  0.0222  0.5652 -0.3051
10046TIP3    H151553   4.810   0.032   2.165 -1.3734  0.9958 -0.4651
10046TIP3    H251554   4.781   0.127   2.051 -0.0471  1.9710 -0.0041
10047TIP3   OH251555   5.873   5.712   1.853  0.6595  0.6755  0.2549
10047TIP3    H151556   5.900   5.800   1.826  1.0236  0.5095  0.0732
10047TIP3    H251557   5.941   5.683   1.913  1.1318  0.0793 -0.5518
10048TIP3   OH251558   0.583   4.519  15.847  0.0594  0.2562  0.0641
10048TIP3    H151559   0.635   4.440  15.856 -0.3219 -0.1116 -0.8718
10048TIP3    H251560   0.642   4.583  15.808  0.7131  0.8114  1.9093
10049TIP3   OH251561   0.278   0.231   4.867  0.2751 -0.3354  0.0205
10049TIP3    H151562   0.260   0.197   4.955  2.2819  1.1616  1.0755
10049TIP3    H251563   0.331   0.164   4.826  1.8885  0.2504  1.0875
10050TIP3   OH251564   1.778   3.246  14.650  0.6795  0.2688 -1.1114
10050TIP3    H151565   1.724   3.307  14.700  1.4680 -0.5643  0.7895
10050TIP3    H251566   1.719   3.173  14.630  0.8430 -0.2362  0.2049
10051TIP3   OH251567   2.023   5.360  14.039 -0.3586 -0.3152  0.3476
10051TIP3    H151568   1.992   5.448  14.019 -0.3170 -0.2181  0.7090
10051TIP3    H251569   1.985   5.340  14.124 -0.9018 -0.9105 -0.0350
10052TIP3   OH251570   0.940   5.080   4.742  0.3704  0.1268 -0.4136
10052TIP3    H151571   1.027   5.058   4.709 -0.3120 -0.0008 -2.1930
10052TIP3    H251572   0.880   5.048   4.674 -0.9968  1.3790  0.1734
10053TIP3   OH251573   0.118   3.793   1.348 -0.1544 -0.3209  0.2302
10053TIP3    H151574   0.211   3.808   1.332 -0.2718 -1.6511 -1.8930
10053TIP3    H251575   0.110   3.787   1.443  1.7367  0.9106  0.4851
10054TIP3   OH251576   3.127   1.589   1.677  0.0234  0.0714  0.5762
10054TIP3    H151577   3.107   1.650   1.606 -0.3215  0.2578  0.8317
10054TIP3    H251578   3.135   1.645   1.755 -0.6482 -0.2532  0.8756
10055TIP3   OH251579   5.159   2.728  17.228  0.2174 -0.8286 -0.0129
10055TIP3    H151580   5.220   2.759  17.295 -0.6117  0.0268  0.3483
10055TIP3    H251581   5.127   2.808  17.186 -0.8811 -1.2632 -0.0098
10056TIP3   OH251582   5.175   5.961   4.682 -0.6721 -0.0305 -0.0481
10056TIP3    H151583   5.196   5.903   4.755  1.0065  0.5243 -0.0691
10056TIP3    H251584   5.234   5.934   4.612 -1.2453  0.4181 -0.7119
10057TIP3   OH251585   6.325   1.451  14.744 -0.1829  0.2292 -0.0344
10057TIP3    H151586   6.420   1.437  14.745 -0.1280  0.6327  0.3433
10057TIP3    H251587   6.298   1.442  14.836 -0.3390  1.2900  0.0210
10058TIP3   OH251588   2.404   1.754  14.078 -0.5085 -0.1379  0.1761
10058TIP3    H151589   2.355   1.762  13.996 -0.1089 -1.8791 -0.2652
10058TIP3    H251590   2.495   1.743  14.049 -0.1030  1.2549  0.9250
10059TIP3   OH251591   6.654   3.233   6.428  0.3980 -0.3055  0.0281
10059TIP3    H151592   6.727   3.291   6.407  0.4773  0.3026  1.8343
10059TIP3    H251593   6.581   3.291   6.447 -0.3106 -0.8870 -0.8460
10060TIP3   OH251594   4.602   3.736   0.320  0.0514 -0.1202 -0.0683
10060TIP3    H151595   4.563   3.650   0.335 -0.6196  0.3810  1.1859
10060TIP3    H251596   4.619   3.770   0.408  0.5611  0.9134 -0.5585
10061TIP3   OH251597   5.672   0.044   1.838 -0.5738  0.5775 -0.1986
10061TIP3    H151598   5.637  -0.038   1.873  0.6728  0.1721  0.1253
10061TIP3    H251599   5.618   0.112   1.877 -1.2012 -0.0569  0.0465
10062TIP3   OH251600   1.628   6.522  11.100 -0.2490 -0.0031 -0.5363
10062TIP3    H151601   1.688   6.466  11.050  0.5134  1.1587 -0.9283
10062TIP3    H251602   1.613   6.473  11.181  1.0767 -0.3998 -0.5170
10063TIP3   OH251603   6.566   0.188   6.031  0.1962 -0.0254 -0.6123
10063TIP3    H151604   6.622   0.145   6.096 -3.7164 -0.7035  2.5027
10063TIP3    H251605   6.557   0.123   5.961 -0.8893 -2.0712  1.3361
10064TIP3   OH251606   5.875   2.218   5.338 -0.0294 -0.0778 -0.5263
10064TIP3    H151607   5.827   2.222   5.256 -1.6003  0.3692  0.3975
10064TIP3    H251608   5.955   2.268   5.322  0.6642 -1.7082 -2.3987
10065TIP3   OH251609   0.418   2.309  13.616 -0.3830 -0.6499 -0.0994
10065TIP3    H151610   0.483   2.274  13.555 -0.3483 -0.4832 -0.1601
10065TIP3    H251611   0.464   2.379  13.663 -0.4504 -0.6863  0.0206
10066TIP3   OH251612   6.332   6.713  12.362 -0.3567 -0.2549 -0.4960
10066TIP3    H151613   6.356   6.662  12.285 -0.4966 -2.8982  1.1296
10066TIP3    H251614   6.387   6.677  12.432 -0.6364  1.6927  0.7734
10067TIP3   OH251615   6.670   5.150   0.885  0.0639  0.2769  0.2503
10067TIP3    H151616   6.691   5.163   0.977  0.2241  0.0728  0.2427
10067TIP3    H251617   6.639   5.060   0.880 -1.2365  0.7098  0.3365
10068TIP3   OH251618   5.483   0.944  14.164 -0.1573  0.4533  0.3470
10068TIP3    H151619   5.546   0.943  14.236  2.1937 -0.6588 -1.6713
10068TIP3    H251620   5.438   0.859  14.170 -1.4851  1.2227  1.7476
10069TIP3   OH251621   0.193   6.699  15.315 -0.2753  0.4576  0.0105
10069TIP3    H151622   0.215   6.778  15.266 -1.2678  0.5162 -0.3506
10069TIP3    H251623   0.099   6.708  15.334 -0.5918 -1.0569 -0.7946
10070TIP3   OH251624   3.866   3.608  13.689  0.0854 -0.0128  0.2392
10070TIP3    H151625   3.956   3.601  13.656 -0.0825 -2.4785  0.2302
10070TIP3    H251626   3.811   3.583  13.615 -0.5550  0.1741  0.6454
10071TIP3   OH251627   6.144   2.196   0.824  0.2644  0.3365 -0.0990
10071TIP3    H151628   6.075   2.135   0.850  0.5422 -0.7825 -1.9655
10071TIP3    H251629   6.222   2.142   0.812  1.0321  1.3432  0.1912
10072TIP3   OH251630   3.196   5.690   4.856 -0.6374 -0.6815  0.3040
10072TIP3    H151631   3.175   5.731   4.940  1.0580  1.5522 -0.3180
10072TIP3    H251632   3.285   5.718   4.838 -1.0981 -0.8788 -2.4082
10073TIP3   OH251633   5.463   2.384   3.614  0.1673 -0.0634 -0.0094
10073TIP3    H151634   5.490   2.448   3.680 -1.2051  1.4721 -0.9388
10073TIP3    H251635   5.527   2.312   3.624  1.0536  0.9359  1.7626
10074TIP3   OH251636   1.857   3.331   0.277  0.8751  0.5419 -0.4806
10074TIP3    H151637   1.764   3.346   0.295  0.6792 -0.4979 -0.5823
10074TIP3    H251638   1.881   3.402   0.217  0.4777  1.5701  0.5501
10075TIP3   OH251639   6.640   4.474   4.339  0.4813 -0.3614  0.2365
10075TIP3    H151640   6.692   4.539   4.292  1.1017 -0.8466  0.2412
10075TIP3    H251641   6.694   4.449   4.414  0.9574 -2.0400 -0.6291
10076TIP3   OH251642   4.433   4.192   3.406 -0.0772  0.3392  0.4153
10076TIP3    H151643   4.452   4.258   3.339 -0.6778  1.3747  1.2684
10076TIP3    H251644   4.470   4.227   3.486  0.9701 -1.0798  0.5823
10077TIP3   OH251645   0.231   3.811   0.641  0.8549 -0.3740  0.9074
10077TIP3    H151646   0.190   3.750   0.580 -0.5929 -0.2827  1.7667
10077TIP3    H251647   0.310   3.841   0.595 -0.5656  0.2293 -1.2218
10078TIP3   OH251648   3.578   1.947  15.367 -0.4340 -0.1758 -0.0459
10078TIP3    H151649   3.639   1.919  15.435 -0.6974 -0.9950 -0.1454
10078TIP3    H251650   3.624   2.018  15.322 -0.7508  1.2048  1.7410
10079TIP3   OH251651   1.252   4.094  16.794 -0.1990  0.6279 -0.2184
10079TIP3    H151652   1.290   4.009  16.774 -0.2523  0.4842  0.2953
10079TIP3    H251653   1.208   4.120  16.712 -1.0100 -0.2807 -0.0781
10080TIP3   OH251654   3.100   5.053  13.700  0.2246 -0.2160  0.1315
10080TIP3    H151655   3.166   5.120  13.684  0.3335 -0.0413  1.2553
10080TIP3    H251656   3.121   5.019  13.787  0.2232 -1.7721 -0.4571
10081TIP3   OH251657   5.927   4.402   1.037  0.0112  0.2980  0.8487
10081TIP3    H151658   6.022   4.394   1.041  0.0650 -0.6787 -1.3433
10081TIP3    H251659   5.895   4.351   1.111  1.1535 -1.1387  0.3731
10082TIP3   OH251660   6.004   5.060   3.889 -0.4374  0.4884  0.0357
10082TIP3    H151661   6.088   5.014   3.887 -1.6936 -1.8737 -0.0561
10082TIP3    H251662   6.010   5.126   3.820  2.1472  1.8415  1.4940
10083TIP3   OH251663   2.534   0.117   0.253  0.1624  0.6161  0.0731
10083TIP3    H151664   2.501   0.186   0.195  0.6603  0.4772 -0.3793
10083TIP3    H251665   2.455   0.071   0.283  0.0061 -0.4121 -1.8699
10084TIP3   OH251666   0.056   3.457  16.309  0.7549  0.2211 -0.1566
10084TIP3    H151667   0.078   3.366  16.291  0.5748  0.4641 -1.6818
10084TIP3    H251668   0.127   3.507  16.269  0.8318  0.7465  0.6424
10085TIP3   OH251669   1.928   1.131   1.131 -0.5461 -0.3258  0.1928
10085TIP3    H151670   1.929   1.036   1.116 -0.8390 -0.2753 -0.1787
10085TIP3    H251671   1.988   1.166   1.065 -0.4189 -0.2538  0.3458
10086TIP3   OH251672   3.777   4.804   4.589  0.1096  0.4783  0.2573
10086TIP3    H151673   3.697   4.759   4.616  0.0649  1.0458  1.0750
10086TIP3    H251674   3.848   4.751   4.626  0.0649  0.9158  0.9739
10087TIP3   OH251675   0.607   1.591   6.032 -0.1710 -0.4959 -0.2958
10087TIP3    H151676   0.650   1.508   6.052 -0.2919 -0.6429 -0.6530
10087TIP3    H251677   0.674   1.658   6.050 -0.1292 -0.6546  0.1592
10088TIP3   OH251678   0.619   5.824   4.685 -0.0508 -0.1276 -0.1806
10088TIP3    H151679   0.613   5.776   4.603  0.8780  1.5874 -1.2881
10088TIP3    H251680   0.670   5.767   4.743  2.4671  0.1967 -2.0001
10089TIP3   OH251681   4.872   5.806  16.773 -0.3358  0.1220  0.6005
10089TIP3    H151682   4.886   5.871  16.704  3.1676 -0.4869  0.6664
10089TIP3    H251683   4.813   5.741  16.734 -2.0822  2.1506 -0.2122
10090TIP3   OH251684   3.232   5.237   0.269  0.1040  0.3842  0.0919
10090TIP3    H151685   3.297   5.172   0.295 -1.0226  0.2114  2.5882
10090TIP3    H251686   3.264   5.319   0.307  0.2962  0.8427 -1.0427
10091TIP3   OH251687   0.164   0.598  15.652  0.5026 -0.2856  0.4236
10091TIP3    H151688   0.170   0.673  15.711  0.2946  0.0485  0.0259
10091TIP3    H251689   0.181   0.634  15.565 -0.5958 -0.5149  0.1058
10092TIP3   OH251690   2.106   4.743   3.654  0.0865 -0.9014  0.3533
10092TIP3    H151691   2.188   4.790   3.668 -1.0589  0.8528  1.3049
10092TIP3    H251692   2.062   4.793   3.584  0.5510 -2.8111 -1.3528
10093TIP3   OH251693   2.581   4.932   3.663  0.1862 -0.3937  0.2721
10093TIP3    H151694   2.627   5.016   3.665 -1.3520  0.4578 -0.0409
10093TIP3    H251695   2.652   4.867   3.661  1.3837  0.8974 -0.2070
10094TIP3   OH251696   5.523   3.180  14.081  0.0309 -0.6791  0.6399
10094TIP3    H151697   5.596   3.118  14.079  0.0746 -0.6052 -0.5500
10094TIP3    H251698   5.482   3.167  14.166  0.5545 -1.7457  0.7294
10095TIP3   OH251699   5.562   6.314  11.310 -0.2421  0.1883  0.4517
10095TIP3    H151700   5.472   6.335  11.335 -0.5112  0.1687 -0.4710
10095TIP3    H251701   5.555   6.283  11.220  0.8068  1.0147  0.0761
10096TIP3   OH251702   6.014   5.511  15.667  0.4106  0.1200 -0.7061
10096TIP3    H151703   6.002   5.421  15.638 -1.4060 -0.0226  0.3893
10096TIP3    H251704   6.099   5.512  15.711 -0.9299 -1.8266  2.0377
10097TIP3   OH251705   3.967   3.096   3.494  0.2737 -0.0941 -0.1930
10097TIP3    H151706   3.948   3.176   3.542 -0.4271 -0.3325 -0.0749
10097TIP3    H251707   3.901   3.033   3.524  0.7908 -0.7015 -0.3125
10098TIP3   OH251708   2.868   4.532  15.114  0.6090  0.2256 -0.7626
10098TIP3    H151709   2.794   4.530  15.053  0.2586  0.1860 -0.3378
10098TIP3    H251710   2.900   4.442  15.116 -0.4302 -0.1193  0.3949
10099TIP3   OH251711   4.582   0.676  13.926  0.2895  0.1898  1.2587
10099TIP3    H151712   4.640   0.619  13.875 -0.4591 -0.2660  0.9113
10099TIP3    H251713   4.641   0.740  13.966  1.0197 -0.1842  0.7979
10100TIP3   OH251714   0.586   1.851   5.466  0.3228 -0.1183  0.1296
10100TIP3    H151715   0.571   1.815   5.553  2.1899 -1.8066 -0.2079
10100TIP3    H251716   0.662   1.908   5.477  1.7508 -1.8104 -0.7425
10101TIP3   OH251717   4.749   6.167   5.670 -0.3203  0.1685 -0.2295
10101TIP3    H151718   4.661   6.167   5.631 -0.7646 -2.3742  0.6946
10101TIP3    H251719   4.734   6.176   5.764  0.5268  1.6471 -0.2178
10102TIP3   OH251720   5.851   5.806  10.784 -0.4937 -0.7223 -0.9785
10102TIP3    H151721   5.865   5.715  10.755  1.9190 -0.5112 -0.5861
10102TIP3    H251722   5.897   5.859  10.719 -0.0163  0.0944  0.0157
10103TIP3   OH251723   2.487   3.097  16.132  0.1322  0.3329  0.0444
10103TIP3    H151724   2.518   3.167  16.075  0.0146  0.2531 -0.1178
10103TIP3    H251725   2.532   3.019  16.099 -0.3328  0.1952 -0.2682
10104TIP3   OH251726   6.258   0.113   3.001  0.0229  0.1457  0.0253
10104TIP3    H151727   6.280   0.192   3.050 -2.7587  0.3801  1.0288
10104TIP3    H251728   6.263   0.138   2.909  0.7482  1.0087  0.2962
10105TIP3   OH251729   2.957   3.375   1.185 -0.0759 -0.0266  0.5640
10105TIP3    H151730   2.983   3.344   1.271  0.1980 -0.7416  0.2257
10105TIP3    H251731   2.868   3.407   1.196 -0.5252 -1.3534  0.8041
10106TIP3   OH251732   2.316   0.244   3.791 -0.2703 -0.1255  0.4924
10106TIP3    H151733   2.292   0.179   3.857  1.0488  0.2244  1.3275
10106TIP3    H251734   2.354   0.316   3.840 -0.7049  0.8144 -0.5299
10107TIP3   OH251735   4.393   5.250  14.543 -0.0644 -0.1408 -0.1136
10107TIP3    H151736   4.374   5.200  14.464 -0.1013 -0.6800  0.2405
10107TIP3    H251737   4.489   5.253  14.547 -0.0579 -0.9281  0.3401
10108TIP3   OH251738   1.592   0.096  15.916 -0.1413  0.0822 -0.5327
10108TIP3    H151739   1.635   0.107  16.001  1.9592  3.0243 -1.9068
10108TIP3    H251740   1.621   0.010  15.886 -0.4479 -0.7396  1.4330
10109TIP3   OH251741   6.456   6.576  12.595 -0.1375 -0.1645  0.7020
10109TIP3    H151742   6.504   6.657  12.611  0.2227 -0.1780 -0.2388
10109TIP3    H251743   6.517   6.522  12.544 -0.1713 -1.2372  1.7913
10110TIP3   OH251744   4.069   4.713  16.830  0.0164 -0.3701 -0.4254
10110TIP3    H151745   4.097   4.804  16.843  1.4840 -0.7072 -1.0758
10110TIP3    H251746   3.995   4.702  16.890 -1.3205  1.7739 -1.6272
10111TIP3   OH251747   0.106   6.059   4.811  0.0292 -0.2297 -0.3693
10111TIP3    H151748   0.200   6.052   4.795  0.0119 -0.1752 -0.5006
10111TIP3    H251749   0.090   6.004   4.888  0.5026  1.3634  0.8925
10112TIP3   OH251750   6.428   4.343   1.877 -0.3723  0.4167  0.1280
10112TIP3    H151751   6.375   4.422   1.882  1.2333  1.6201 -1.0821
10112TIP3    H251752   6.491   4.361   1.807  0.4197 -1.6966  0.2490
10113TIP3   OH251753   4.412   4.429   0.758  0.0206  0.3479 -0.0044
10113TIP3    H151754   4.411   4.350   0.704  2.2432 -1.4471  2.4538
10113TIP3    H251755   4.448   4.496   0.700 -1.6881 -0.4580 -2.0518
10114TIP3   OH251756   6.711   0.785  12.931  0.6085 -0.1402 -0.0899
10114TIP3    H151757   6.703   0.702  12.885  0.2376 -0.1319 -0.0356
10114TIP3    H251758   6.719   0.760  13.023 -1.9310 -0.0201  0.1981
10115TIP3   OH251759   1.061   0.704   0.811 -0.0715 -0.3471  0.2135
10115TIP3    H151760   1.032   0.615   0.793 -0.7603  0.0766 -0.8411
10115TIP3    H251761   1.152   0.695   0.839  0.0150 -1.3331 -0.3664
10116TIP3   OH251762   4.549   1.236  15.877 -0.0822 -0.5511  0.3594
10116TIP3    H151763   4.610   1.163  15.865  0.4918 -0.1485  0.8154
10116TIP3    H251764   4.524   1.261  15.788 -1.5290 -2.3415  0.2307
10117TIP3   OH251765   3.999   1.312   3.842 -0.5989  0.5189 -0.2494
10117TIP3    H151766   3.945   1.377   3.796  0.4993  2.9975  1.8343
10117TIP3    H251767   3.956   1.301   3.926  0.9554  0.9240  0.6130
10118TIP3   OH251768   0.565   2.892  11.700  0.4069 -0.1027  0.1173
10118TIP3    H151769   0.572   2.812  11.752  0.9220 -1.3922 -1.8804
10118TIP3    H251770   0.471   2.908  11.694 -0.0270 -3.2993 -3.4458
10119TIP3   OH251771   5.704   3.045  11.658  0.1292  0.2562  0.0806
10119TIP3    H151772   5.636   2.982  11.683 -0.0552  1.2073  2.0251
10119TIP3    H251773   5.657   3.129  11.652  0.8399  0.6439 -0.1042
10120TIP3   OH251774   0.815   0.360  10.667 -0.1931 -0.2473  0.4365
10120TIP3    H151775   0.754   0.407  10.724 -0.9222  0.4912 -0.9154
10120TIP3    H251776   0.845   0.427  10.604 -0.2609 -1.2938 -0.7225
10121TIP3   OH251777   3.999   4.313   3.662 -0.1788 -0.0776  0.0134
10121TIP3    H151778   4.094   4.316   3.668 -0.2338 -0.6157  1.6447
10121TIP3    H251779   3.981   4.250   3.592  0.6694 -0.6761  0.3246
10122TIP3   OH251780   4.936   6.768   4.299  0.2067 -0.5274 -0.6708
10122TIP3    H151781   4.853   6.753   4.344  0.3317 -0.3962 -0.4000
10122TIP3    H251782   4.943   6.694   4.238 -0.0517 -0.6033 -0.6098
10123TIP3   OH251783   5.533   4.956  16.592  0.2748  0.1622 -0.2295
10123TIP3    H151784   5.486   4.955  16.509  0.9402  1.4288 -0.6238
10123TIP3    H251785   5.465   4.940  16.658 -0.3446 -0.2369 -0.9546
10124TIP3   OH251786   5.807   2.543   1.470  0.1655 -0.1790  0.5701
10124TIP3    H151787   5.853   2.607   1.415 -0.0330 -1.5710 -1.2530
10124TIP3    H251788   5.752   2.494   1.409 -0.3226 -1.5343  2.0660
10125TIP3   OH251789   1.843   1.363  11.336 -0.0479  0.0074 -0.7775
10125TIP3    H151790   1.845   1.268  11.325  0.2415 -0.0587 -0.2109
10125TIP3    H251791   1.759   1.390  11.300 -0.8171 -0.6642  0.4583
10126TIP3   OH251792   3.306   1.214   1.265 -0.1987  0.5224  0.3446
10126TIP3    H151793   3.393   1.178   1.282 -1.0462 -1.9366 -0.1905
10126TIP3    H251794   3.296   1.285   1.328  2.1626  0.8030  0.4380
10127TIP3   OH251795   6.456   4.768   3.359  0.2640 -0.1015  0.4864
10127TIP3    H151796   6.467   4.702   3.428  1.0573  0.0932  0.5577
10127TIP3    H251797   6.368   4.754   3.325  0.3294 -1.0184  0.6885
10128TIP3   OH251798   3.082   0.126   4.590 -0.4223 -0.3736 -0.0889
10128TIP3    H151799   2.987   0.139   4.592 -0.2533  0.9503 -0.0019
10128TIP3    H251800   3.095   0.051   4.532 -1.4179  0.5288 -1.4947
10129TIP3   OH251801   3.864   5.768  11.574  0.4339 -0.3134  1.0455
10129TIP3    H151802   3.828   5.708  11.509 -0.6004  1.4053 -0.0364
10129TIP3    H251803   3.789   5.793  11.627  0.2863  2.0155 -0.1763
10130TIP3   OH251804   3.350   1.947  13.549  0.5502  0.1014 -0.2513
10130TIP3    H151805   3.428   1.975  13.500  0.5040 -1.0676 -1.0100
10130TIP3    H251806   3.383   1.927  13.636  1.1096 -0.3659 -0.5623
10131TIP3   OH251807   0.085   1.143   1.964 -0.1371 -0.3733  0.3889
10131TIP3    H151808   0.148   1.105   2.025 -0.2673 -0.0912  0.6986
10131TIP3    H251809   0.047   1.067   1.919  0.6933 -0.5176 -0.0666
10132TIP3   OH251810   3.597   0.666  14.213  0.8699  0.4277  0.3655
10132TIP3    H151811   3.552   0.636  14.292 -0.9208 -0.4490 -0.9403
10132TIP3    H251812   3.666   0.601  14.198 -0.7262 -1.1441 -0.4512
10133TIP3   OH251813   1.720   3.916  16.979  0.5278  0.3524  0.2715
10133TIP3    H151814   1.741   3.850  17.045 -0.2840 -0.3750 -0.1927
10133TIP3    H251815   1.626   3.905  16.962  0.8980 -0.0733 -1.6468
10134TIP3   OH251816   4.414   4.384   4.802  0.0462  0.3927  0.2553
10134TIP3    H151817   4.395   4.478   4.811  0.2181  0.8931 -3.6434
10134TIP3    H251818   4.491   4.381   4.746 -0.8518 -2.1386 -0.9054
10135TIP3   OH251819   2.533   4.848  15.657 -0.7040  0.7385 -0.8147
10135TIP3    H151820   2.529   4.866  15.563  0.1799 -1.1479 -1.2374
10135TIP3    H251821   2.622   4.815  15.671 -1.5650 -1.2207  0.2473
10136TIP3   OH251822   0.617   4.342  12.966  0.1015 -0.6804 -0.5104
10136TIP3    H151823   0.538   4.350  12.913 -0.4997  0.7868  0.5824
10136TIP3    H251824   0.625   4.427  13.010  2.1472 -0.8976 -0.4267
10137TIP3   OH251825   2.199   4.679   2.756  0.0610 -0.0678 -0.3566
10137TIP3    H151826   2.171   4.770   2.745 -2.6422 -0.7896  0.2015
10137TIP3    H251827   2.168   4.634   2.678  1.4627 -0.5397 -0.6699
10138TIP3   OH251828   0.416   4.895  14.971 -0.4200 -0.6511  0.0360
10138TIP3    H151829   0.466   4.956  15.025 -0.5235  0.0868 -0.6966
10138TIP3    H251830   0.418   4.932  14.883 -0.7047 -1.5676 -0.3723
10139TIP3   OH251831   6.035   2.643  15.270  0.0051 -0.2525 -0.4479
10139TIP3    H151832   5.956   2.597  15.299 -0.9658 -0.5784 -3.4752
10139TIP3    H251833   6.003   2.728  15.240  1.2298  0.7533  1.0142
10140TIP3   OH251834   3.573   4.513   1.181 -0.0449  0.2746 -0.1861
10140TIP3    H151835   3.663   4.522   1.150  0.0606  2.2195  0.6016
10140TIP3    H251836   3.519   4.547   1.109 -0.2376 -1.7953 -1.0569
10141TIP3   OH251837   5.791   0.619   0.823 -0.5861 -0.3883 -0.4672
10141TIP3    H151838   5.829   0.534   0.844  0.5315  0.5021  1.2800
10141TIP3    H251839   5.770   0.615   0.730  0.4204 -2.1988 -0.6239
10142TIP3   OH251840   3.742   0.048  14.699 -0.3114  0.6816  0.1116
10142TIP3    H151841   3.697   0.123  14.736 -0.9133  0.0702  0.6282
10142TIP3    H251842   3.754   0.069  14.607  0.9366  2.0959  0.5880
10143TIP3   OH251843   2.830   1.370   1.564  0.4959  0.0947 -0.0521
10143TIP3    H151844   2.883   1.290   1.560  0.1330 -0.1772  0.5064
10143TIP3    H251845   2.746   1.341   1.599 -0.4934  0.2753 -2.1892
10144TIP3   OH251846   0.020   5.969  11.115  0.4173 -0.5707 -0.6667
10144TIP3    H151847   0.075   6.047  11.108  1.5624 -1.2129  1.0352
10144TIP3    H251848  -0.065   6.002  11.145  1.0736 -0.0282  0.6263
10145TIP3   OH251849   6.310   2.811  16.746  0.3144  0.1964 -0.0202
10145TIP3    H151850   6.357   2.790  16.827  0.4681  0.0747 -0.1414
10145TIP3    H251851   6.253   2.884  16.770  0.1512 -0.0247  0.2709
10146TIP3   OH251852   0.077   5.942   6.138 -0.4310 -0.0321 -0.6094
10146TIP3    H151853   0.023   6.017   6.166 -0.4134  0.0213 -0.7178
10146TIP3    H251854   0.167   5.971   6.153 -0.3701  0.4236 -1.7587
10147TIP3   OH251855   0.829   3.565   3.668 -0.3336 -0.2993 -0.1966
10147TIP3    H151856   0.801   3.563   3.577 -1.9782 -0.9651  0.3037
10147TIP3    H251857   0.769   3.626   3.710  2.3570  2.4241 -0.1509
10148TIP3   OH251858   3.491   3.253  13.130  0.1732 -0.3255 -0.1592
10148TIP3    H151859   3.407   3.295  13.147  0.0194 -0.9887  0.7439
10148TIP3    H251860   3.512   3.207  13.211  0.2186 -2.2041 -1.1923
10149TIP3   OH251861   0.306   2.229   2.397 -0.8437  0.0535 -0.2678
10149TIP3    H151862   0.399   2.249   2.412 -0.8982  0.1435 -0.0440
10149TIP3    H251863   0.306   2.160   2.331 -0.6010 -0.3300  0.1357
10150TIP3   OH251864   3.673   6.125  13.053 -0.2654 -0.3036  0.3259
10150TIP3    H151865   3.729   6.098  12.979  1.0236 -0.5801  1.3769
10150TIP3    H251866   3.644   6.214  13.030  1.4747  0.2612  0.2285
10151TIP3   OH251867   6.618   4.271   2.067 -0.1445 -0.1585 -0.2918
10151TIP3    H151868   6.650   4.361   2.074  0.7152 -0.4831  0.0433
10151TIP3    H251869   6.566   4.269   1.986  0.0994  0.5523 -0.4643
10152TIP3   OH251870   3.417   6.184   1.837 -0.6345 -0.1380  0.1635
10152TIP3    H151871   3.418   6.113   1.772 -0.0685  0.6581 -0.7275
10152TIP3    H251872   3.351   6.245   1.805 -1.5147 -0.5238  1.2262
10153TIP3   OH251873   2.344   2.321   3.020  0.1509  0.1095 -0.7537
10153TIP3    H151874   2.278   2.362   3.075 -1.1972 -0.6679 -1.7609
10153TIP3    H251875   2.334   2.363   2.934  0.4955 -0.4882 -1.0919
10154TIP3   OH251876   1.115   0.515  10.662  0.0879  0.1802  0.0753
10154TIP3    H151877   1.074   0.571  10.728 -2.1975 -0.9280 -0.3424
10154TIP3    H251878   1.158   0.575  10.603 -1.0813  1.4202  0.4633
10155TIP3   OH251879   0.784   1.487  12.732 -0.2465  0.0285 -0.3935
10155TIP3    H151880   0.739   1.423  12.787 -0.1697  1.2973  1.1979
10155TIP3    H251881   0.762   1.571  12.772  0.8278  0.8889 -1.6010
10156TIP3   OH251882   5.454   6.596  17.205 -0.1597 -0.1747 -0.2777
10156TIP3    H151883   5.473   6.683  17.169 -0.2704 -0.9014 -2.1598
10156TIP3    H251884   5.539   6.564  17.237 -0.1064  0.5787  0.3571
10157TIP3   OH251885   5.100   5.456  14.565  0.2756 -0.1265 -0.8931
10157TIP3    H151886   5.036   5.526  14.580 -0.9903 -1.3309 -0.5997
10157TIP3    H251887   5.141   5.442  14.650 -0.7425 -0.9781 -0.5424
10158TIP3   OH251888   6.224   6.449   1.333  1.1547 -0.6984  0.3824
10158TIP3    H151889   6.192   6.537   1.353 -1.3702 -0.8035 -2.8191
10158TIP3    H251890   6.310   6.462   1.295  0.4398  0.5120 -0.8603
10159TIP3   OH251891   3.295   6.626   1.210 -0.1983 -0.4977 -0.0924
10159TIP3    H151892   3.230   6.565   1.244 -0.7969 -0.0609 -0.4519
10159TIP3    H251893   3.260   6.713   1.231  0.0896 -0.2510 -0.6162
10160TIP3   OH251894   0.940   4.872  13.494  0.2153  0.0514  0.0634
10160TIP3    H151895   0.924   4.953  13.542 -0.4323  0.5535 -0.9920
10160TIP3    H251896   0.863   4.862  13.437  0.8093 -0.7250 -0.6115
10161TIP3   OH251897   4.021   3.708  15.061 -0.3165 -0.7274  0.2163
10161TIP3    H151898   3.994   3.762  14.987  1.3272 -1.3440 -0.8687
10161TIP3    H251899   3.948   3.647  15.074 -0.6275 -0.5934 -0.8794
10162TIP3   OH251900   0.690   5.744  14.147  0.2057 -0.6865 -0.4788
10162TIP3    H151901   0.768   5.696  14.118 -0.1340  0.5847 -3.7592
10162TIP3    H251902   0.723   5.832  14.167 -0.1922 -0.4699 -0.7694
10163TIP3   OH251903   2.563   4.354   5.314  0.1419  0.2555 -0.2525
10163TIP3    H151904   2.491   4.416   5.300  0.6975  1.0771  0.4089
10163TIP3    H251905   2.532   4.298   5.386  0.3256  0.8844  0.3262
10164TIP3   OH251906   4.735   0.523  12.668  0.2642  0.3172 -0.6302
10164TIP3    H151907   4.710   0.596  12.611 -1.2402 -0.1703 -0.5973
10164TIP3    H251908   4.736   0.561  12.756 -0.7656  0.2499 -0.5832
10165TIP3   OH251909   4.346   4.381  13.199  0.2060 -0.7289  0.0742
10165TIP3    H151910   4.340   4.383  13.103 -0.1479  1.9729  0.1190
10165TIP3    H251911   4.426   4.428  13.218 -0.2103 -0.4613  1.1598
10166TIP3   OH251912   2.610   2.630  12.180 -0.4817 -0.0657 -0.3336
10166TIP3    H151913   2.683   2.644  12.239  0.3874 -3.9736 -0.3003
10166TIP3    H251914   2.611   2.705  12.121  0.4990  2.3676  2.6810
10167TIP3   OH251915   3.111   1.738  16.353  0.2318 -0.3478 -0.1533
10167TIP3    H151916   3.054   1.710  16.281  0.2567 -1.0433  0.0863
10167TIP3    H251917   3.063   1.710  16.432 -0.0618  0.9067  0.1228
10168TIP3   OH251918   3.664   2.661  16.095 -0.3211 -0.1056 -0.0622
10168TIP3    H151919   3.693   2.615  16.174  1.7236  1.6288  0.2414
10168TIP3    H251920   3.734   2.646  16.031 -0.0600  1.7907 -0.2521
10169TIP3   OH251921   5.776   5.501   1.020  0.0225 -0.2029 -0.1640
10169TIP3    H151922   5.804   5.437   0.955  0.3345 -1.0174  0.7638
10169TIP3    H251923   5.699   5.462   1.062  0.1442  0.0739  0.3242
10170TIP3   OH251924   3.932   3.335  12.985 -0.1417 -0.1971  0.0359
10170TIP3    H151925   4.016   3.367  12.953 -1.0158  1.4523 -0.7120
10170TIP3    H251926   3.918   3.383  13.067 -1.1407  0.8477 -0.7304
10171TIP3   OH251927   0.681   3.184  16.845  0.7000 -0.0156 -0.1826
10171TIP3    H151928   0.650   3.149  16.928  2.9334  0.2560  0.8171
10171TIP3    H251929   0.662   3.115  16.781  2.1850 -1.7886  1.2127
10172TIP3   OH251930   5.402   0.233  15.782  0.1166 -0.0753  0.4733
10172TIP3    H151931   5.411   0.145  15.746 -0.4738  0.4236 -0.8956
10172TIP3    H251932   5.310   0.238  15.810  0.5593 -0.4496  2.0365
10173TIP3   OH251933   2.576   0.596  12.190 -0.7237 -0.1201  0.1235
10173TIP3    H151934   2.488   0.585  12.226 -0.3340 -0.8976  0.8467
10173TIP3    H251935   2.632   0.610  12.266 -0.3152  1.1156 -0.3809
10174TIP3   OH251936   5.568   4.064   2.384  0.4521  0.8409 -0.0048
10174TIP3    H151937   5.569   4.137   2.322 -0.0128 -0.6721 -1.8405
10174TIP3    H251938   5.660   4.051   2.408  1.0339 -0.4164 -2.6757
10175TIP3   OH251939   0.866   6.471   0.118 -0.5773 -0.0792  0.0684
10175TIP3    H151940   0.799   6.534   0.092  0.3978  1.4576  1.2398
10175TIP3    H251941   0.831   6.432   0.199  0.2966  1.3227  1.1411
10176TIP3   OH251942   6.519   1.457   0.458  0.0709 -0.1807 -0.1732
10176TIP3    H151943   6.597   1.505   0.430 -0.5094  0.4869 -0.6859
10176TIP3    H251944   6.535   1.367   0.430  1.5143 -0.4712  1.4857
10177TIP3   OH251945   5.263   4.186  12.925 -0.0257 -0.3333 -0.3353
10177TIP3    H151946   5.190   4.196  12.863  0.0944 -0.3726 -0.4845
10177TIP3    H251947   5.234   4.115  12.983 -2.0545  2.6012  2.4166
10178TIP3   OH251948   6.111   3.156  12.739  0.0882 -0.0154 -0.3661
10178TIP3    H151949   6.097   3.070  12.699  1.0748 -0.0904 -0.5726
10178TIP3    H251950   6.195   3.146  12.785 -0.8584  0.1581  1.4491
10179TIP3   OH251951   4.992   1.037  16.423 -0.2107  0.9512 -0.1314
10179TIP3    H151952   5.039   1.062  16.343  0.7487  0.9878  0.4358
10179TIP3    H251953   5.047   0.968  16.462 -0.7384  0.8503  0.4327
10180TIP3   OH251954   6.087   1.630   4.521 -0.0076 -0.8231  0.9462
10180TIP3    H151955   6.059   1.580   4.444 -1.8822  1.1450  0.3065
10180TIP3    H251956   6.183   1.631   4.515 -0.1197 -0.8933 -1.2365
10181TIP3   OH251957   3.996   6.006   3.180 -0.2461  0.2040  1.3560
10181TIP3    H151958   3.970   6.002   3.088  0.5883  0.9813  1.0733
10181TIP3    H251959   3.956   6.087   3.213  1.5919  1.3160  0.9619
10182TIP3   OH251960   3.539   0.971   2.645  0.2442 -0.0421 -0.0606
10182TIP3    H151961   3.575   1.031   2.580 -2.3754  1.1929 -0.4378
10182TIP3    H251962   3.557   1.012   2.729  2.3118 -0.9147 -0.0337
10183TIP3   OH251963   1.330   2.282  14.889 -0.0230 -0.2445  0.7544
10183TIP3    H151964   1.269   2.315  14.823 -0.6730 -2.1450  0.3429
10183TIP3    H251965   1.288   2.202  14.921  1.9502 -1.2337  0.9179
10184TIP3   OH251966   6.527   0.342  11.621  0.1275  0.1705 -0.0304
10184TIP3    H151967   6.469   0.419  11.618 -0.9235 -0.6491 -1.1914
10184TIP3    H251968   6.552   0.334  11.713 -0.5601  1.3101  0.2680
10185TIP3   OH251969   1.705   6.421   4.011 -0.8112  0.5925 -0.0658
10185TIP3    H151970   1.628   6.367   4.027 -1.1330  0.8086 -0.8596
10185TIP3    H251971   1.710   6.429   3.916  0.3997  0.2791 -0.0376
10186TIP3   OH251972   0.371   3.830  16.380 -0.2928 -0.2675  0.0722
10186TIP3    H151973   0.436   3.795  16.440  0.3331 -0.2652 -0.5909
10186TIP3    H251974   0.376   3.924  16.391  0.4173 -0.2234 -0.5829
10187TIP3   OH251975   6.770   5.391   5.241 -0.3793 -0.1222  0.1641
10187TIP3    H151976   6.865   5.405   5.242 -0.4984  0.7312 -0.6635
10187TIP3    H251977   6.761   5.295   5.244  0.5119 -0.2234 -0.0517
10188TIP3   OH251978   0.577   4.825   0.097 -0.1386 -0.0072 -0.3173
10188TIP3    H151979   0.638   4.864   0.160  0.8164  0.1790 -1.3483
10188TIP3    H251980   0.517   4.895   0.074  1.6235  0.9084 -2.2294
10189TIP3   OH251981   2.810   1.680  14.401  0.0134 -0.3130 -0.1417
10189TIP3    H151982   2.865   1.604  14.383 -0.5213 -0.4732 -1.1567
10189TIP3    H251983   2.869   1.743  14.441  0.9129 -0.5403 -1.0880
10190TIP3   OH251984   0.495   1.731  13.498 -0.1489 -0.6204 -0.4606
10190TIP3    H151985   0.558   1.673  13.455  0.2641 -0.8828  0.4715
10190TIP3    H251986   0.516   1.818  13.465 -1.2206 -1.0755 -2.3970
10191TIP3   OH251987   5.107   0.328  15.208  0.0546 -1.0051  0.0888
10191TIP3    H151988   5.157   0.350  15.287 -0.5284 -0.9402  0.4423
10191TIP3    H251989   5.040   0.267  15.239 -2.8517  2.2514  0.4560
10192TIP3   OH251990   6.589   5.908  16.931  0.6159  0.2091  0.7250
10192TIP3    H151991   6.663   5.903  16.990  0.0772 -2.9153  1.2145
10192TIP3    H251992   6.587   5.823  16.887 -1.6068  0.8828 -0.5861
10193TIP3   OH251993   5.735   2.367   1.777  0.1444 -0.6176 -0.7717
10193TIP3    H151994   5.806   2.376   1.840 -1.2160 -3.2308  1.2586
10193TIP3    H251995   5.772   2.316   1.706  0.9650  0.1133 -0.8789
10194TIP3   OH251996   0.716   1.478   3.989 -0.0335  0.4014 -0.0602
10194TIP3    H151997   0.649   1.467   3.922  0.1385 -0.0270 -0.1619
10194TIP3    H251998   0.680   1.433   4.066  0.5428 -0.6542 -0.3908
10195TIP3   OH251999   0.081   2.083  11.877  0.7012  0.3217 -0.4187
10195TIP3    H152000   0.026   2.029  11.934  0.3849 -0.8836 -1.8381
10195TIP3    H252001   0.062   2.173  11.904  0.0468 -0.1968  0.9079
10196TIP3   OH252002   0.655   4.179   2.250 -0.2354  0.2502  0.2506
10196TIP3    H152003   0.667   4.132   2.333  0.6941 -0.9089 -0.5194
10196TIP3    H252004   0.562   4.198   2.247 -0.1951  0.7420  1.7999
10197TIP3   OH252005   2.161   0.387  16.274  0.1213 -0.9341 -0.1113
10197TIP3    H152006   2.186   0.342  16.354 -1.7046 -0.4029  0.7809
10197TIP3    H252007   2.099   0.328  16.232 -0.4728 -0.3141 -0.1142
10198TIP3   OH252008   4.526   2.925  16.690 -0.5513  0.3197 -0.1088
10198TIP3    H152009   4.570   2.904  16.773 -0.4397 -0.4889 -0.3619
10198TIP3    H252010   4.468   2.850  16.674  1.1560 -0.6564 -1.9420
10199TIP3   OH252011   5.787   6.568   0.807 -0.3786  0.2779 -0.0719
10199TIP3    H152012   5.858   6.503   0.806 -0.4363  0.2083  0.1724
10199TIP3    H252013   5.809   6.626   0.880 -0.4144  0.4331 -0.1867
10200TIP3   OH252014   4.243   0.666  10.614 -0.3210  0.1613  0.2053
10200TIP3    H152015   4.325   0.620  10.595  0.0922  0.4547  1.1957
10200TIP3    H252016   4.270   0.758  10.625 -0.9937  0.4823 -0.8461
10201TIP3   OH252017   0.949   3.699   0.104 -0.3009  0.6971  0.0046
10201TIP3    H152018   0.887   3.629   0.123  0.0073  0.2227 -0.7120
10201TIP3    H252019   0.972   3.735   0.190 -2.3511  1.5730  0.2213
10202TIP3   OH252020   4.911   2.680  14.494  0.4735 -0.0015 -0.1432
10202TIP3    H152021   4.913   2.625  14.572  0.9020  0.7403  0.3637
10202TIP3    H252022   4.867   2.760  14.522 -1.0332 -0.4558 -1.1301
10203TIP3   OH252023   4.979   6.332  10.829 -0.1979  0.4758 -0.8033
10203TIP3    H152024   4.919   6.406  10.817  1.6619  2.2489  0.4554
10203TIP3    H252025   5.034   6.333  10.751 -0.0069  0.5968 -0.6683
10204TIP3   OH252026   3.337   3.326  15.539 -0.0093  0.1311 -0.2414
10204TIP3    H152027   3.428   3.300  15.522  0.0466 -0.3599  0.7578
10204TIP3    H252028   3.287   3.245  15.532 -0.5109  0.5510 -1.6789
10205TIP3   OH252029   0.401   3.182   2.507 -0.0772  0.2170 -0.0116
10205TIP3    H152030   0.313   3.164   2.539 -0.8584 -1.3540 -2.8815
10205TIP3    H252031   0.448   3.099   2.520  0.3979  0.4441 -0.2923
10206TIP3   OH252032   6.667   4.139  13.812  0.3535 -0.0893  0.3123
10206TIP3    H152033   6.667   4.084  13.734  0.5216 -1.1473  1.0446
10206TIP3    H252034   6.733   4.100  13.869 -1.0437 -0.4279  1.7427
10207TIP3   OH252035   6.770   3.960   0.732  0.0776  0.2863 -0.2370
10207TIP3    H152036   6.708   4.014   0.682  0.9061  1.0694 -0.4399
10207TIP3    H252037   6.826   3.920   0.665 -0.2397 -0.4630 -0.0584
10208TIP3   OH252038   2.150   0.389   2.127  0.1911  0.6575 -0.1946
10208TIP3    H152039   2.225   0.346   2.087 -0.8583 -1.1248 -0.2820
10208TIP3    H252040   2.137   0.341   2.210 -0.3744  1.4572  0.1816
10209TIP3   OH252041   2.300   1.963  16.019 -0.2361 -0.0470  0.2564
10209TIP3    H152042   2.323   1.873  15.998 -0.6351 -0.0646 -0.1152
10209TIP3    H252043   2.250   1.993  15.943  1.0700  0.9241 -0.2288
10210TIP3   OH252044   3.240   3.696   4.909  0.1959  0.6064 -0.3132
10210TIP3    H152045   3.290   3.615   4.915 -0.2163  0.2366 -1.5909
10210TIP3    H252046   3.299   3.763   4.943 -0.3226 -0.5552  2.9918
10211TIP3   OH252047   1.305   3.976   4.763  0.4288  0.3498 -0.5109
10211TIP3    H152048   1.326   3.936   4.679  0.0462 -0.8606 -0.0410
10211TIP3    H252049   1.213   4.002   4.755  0.8718  1.8168 -1.0674
10212TIP3   OH252050   0.898   5.399  16.537  0.4259  0.7387  0.0524
10212TIP3    H152051   0.817   5.364  16.574 -1.0027  4.0687  0.3128
10212TIP3    H252052   0.952   5.420  16.613 -0.2179  2.3470  0.1056
10213TIP3   OH252053   5.339   3.709  12.958 -0.1108 -0.0437 -0.3891
10213TIP3    H152054   5.247   3.732  12.944 -0.4139 -1.0399 -0.0232
10213TIP3    H252055   5.352   3.631  12.904  0.5240  0.0895 -0.4302
10214TIP3   OH252056   4.090   5.036   2.122 -0.2080 -0.4588  0.6307
10214TIP3    H152057   4.181   5.062   2.103 -0.0369 -0.7068  1.1115
10214TIP3    H252058   4.064   4.984   2.046 -0.0394 -0.1492  0.3617
10215TIP3   OH252059   2.882   4.380   6.289  0.2622  0.1844  0.5608
10215TIP3    H152060   2.945   4.444   6.256  1.3116 -1.2869 -0.3801
10215TIP3    H252061   2.924   4.341   6.365 -0.2206  0.3692  0.9226
10216TIP3   OH252062   2.899   2.006  13.346 -0.9931 -0.1078 -0.2696
10216TIP3    H152063   2.992   2.026  13.360 -0.9419  0.1955 -0.9835
10216TIP3    H252064   2.900   1.922  13.299 -1.1747 -1.3438  1.8837
10217TIP3   OH252065   3.081   4.028  15.508  0.2987 -0.0014  0.2572
10217TIP3    H152066   3.082   3.986  15.594  1.6028  0.9413  0.7294
10217TIP3    H252067   3.013   4.095  15.515 -2.6429 -2.7722 -0.9001
10218TIP3   OH252068   0.514   2.968   2.990 -0.1921  0.3416 -0.2684
10218TIP3    H152069   0.424   2.942   2.970 -0.6900  2.7506 -1.2977
10218TIP3    H252070   0.505   3.046   3.044  1.2782 -0.5777  1.3376
10219TIP3   OH252071   5.048   3.537  15.570  0.1478 -0.2346  0.0432
10219TIP3    H152072   4.981   3.552  15.503  1.5253  2.5117 -0.8141
10219TIP3    H252073   5.000   3.536  15.653 -0.9079  2.4788 -0.4902
10220TIP3   OH252074   0.563   4.236   3.931  0.4886  0.2514  0.1442
10220TIP3    H152075   0.644   4.260   3.976  0.9306 -0.3487 -0.3256
10220TIP3    H252076   0.591   4.205   3.845 -0.1392 -1.0909  0.4080
10221TIP3   OH252077   0.391   4.428   2.964 -0.3789 -0.2910 -0.5365
10221TIP3    H152078   0.353   4.511   2.935  0.1602  0.0320 -0.3229
10221TIP3    H252079   0.334   4.398   3.034 -1.0645 -0.5268 -1.1916
10222TIP3   OH252080   2.047   2.974   2.617  0.5321 -0.4854 -0.1118
10222TIP3    H152081   2.115   2.925   2.571 -0.3922 -0.5825 -1.4096
10222TIP3    H252082   2.065   3.066   2.597  0.7192 -0.4698  0.1390
10223TIP3   OH252083   0.132   1.062  17.058  0.3218  0.4179  0.1801
10223TIP3    H152084   0.158   1.006  16.985  2.3989  1.0441  0.4217
10223TIP3    H252085   0.092   1.138  17.017 -0.6600 -0.2862 -0.2065
10224TIP3   OH252086   6.191   0.859   4.775  1.0769  0.2409  0.1169
10224TIP3    H152087   6.243   0.791   4.733 -0.0665 -0.0527 -0.8531
10224TIP3    H252088   6.168   0.920   4.705  0.5472  0.6374  0.6190
10225TIP3   OH252089   4.308   0.202  14.227 -0.2041  0.2918  0.3136
10225TIP3    H152090   4.386   0.161  14.263 -0.9623 -0.1266  1.4809
10225TIP3    H252091   4.236   0.145  14.252 -0.8732  0.5288 -0.9953
10226TIP3   OH252092   1.056   0.981   3.968 -0.5768  0.2351 -0.0824
10226TIP3    H152093   0.989   0.932   3.920 -0.4311  0.0014 -0.0476
10226TIP3    H252094   1.139   0.946   3.935 -0.4837 -0.5490  0.9976
10227TIP3   OH252095   3.945   4.790  15.125 -0.0742  0.1752 -0.1663
10227TIP3    H152096   4.034   4.759  15.110 -0.2292 -0.8843  1.0468
10227TIP3    H252097   3.944   4.879  15.090  2.1575  1.0965  1.9888
10228TIP3   OH252098   2.763   2.431   2.011 -0.7272 -0.7094 -0.3496
10228TIP3    H152099   2.702   2.403   2.079 -0.3207  2.2006  1.2996
10228TIP3    H252100   2.715   2.497   1.960  0.2438 -0.0595 -0.4516
10229TIP3   OH252101   4.546   0.823  11.843 -0.2920 -0.7490 -0.1781
10229TIP3    H152102   4.492   0.768  11.786 -1.5079 -0.5395  0.7545
10229TIP3    H252103   4.525   0.912  11.817  0.5012 -0.6809 -0.6102
10230TIP3   OH252104   0.640   3.969   0.961  0.0012  0.1353 -1.0506
10230TIP3    H152105   0.628   4.055   1.002 -0.8349 -0.4766  0.0012
10230TIP3    H252106   0.581   3.970   0.886 -0.0668  0.4625 -0.9943
10231TIP3   OH252107   1.367   4.013  12.463 -0.1332  0.3059  0.4054
10231TIP3    H152108   1.373   3.996  12.369 -2.1109  0.7598  0.1666
10231TIP3    H252109   1.429   3.952  12.503  2.5119  1.7546 -1.3477
10232TIP3   OH252110   2.153   4.386  12.965  0.0168 -0.3066 -0.0930
10232TIP3    H152111   2.226   4.330  12.993  0.6923  0.2079 -0.7983
10232TIP3    H252112   2.189   4.475  12.970 -1.0389  0.0692  1.0040
10233TIP3   OH252113   1.794   1.996  14.987 -0.5161  0.4160  0.3005
10233TIP3    H152114   1.730   1.931  15.013  1.3424 -0.8210  1.9737
10233TIP3    H252115   1.838   1.958  14.911  0.1073  0.0078  0.8601
10234TIP3   OH252116   4.400   2.856  14.396  0.0042  0.1957  0.5364
10234TIP3    H152117   4.421   2.856  14.302  0.8286 -2.7634  0.6485
10234TIP3    H252118   4.315   2.812  14.401  0.7329 -1.1586  1.2786
10235TIP3   OH252119   2.035   0.324  15.127  0.2224  0.3012  0.5252
10235TIP3    H152120   2.016   0.231  15.119 -1.5873  0.7270 -0.6171
10235TIP3    H252121   2.060   0.336  15.218  1.5175 -1.4667  0.4170
10236TIP3   OH252122   5.919   5.821   5.910 -0.1660  0.4146  0.5474
10236TIP3    H152123   5.850   5.857   5.966 -0.5650  0.7318 -0.1425
10236TIP3    H252124   6.000   5.838   5.957 -0.6879 -1.6009  2.2552
10237TIP3   OH252125   3.937   6.519   5.498 -0.7273 -0.5011 -0.3391
10237TIP3    H152126   3.959   6.606   5.464  0.3284  0.3586  2.3835
10237TIP3    H252127   3.905   6.535   5.586  1.0926 -2.9897  0.8381
10238TIP3   OH252128   2.460   3.546  11.799 -0.0165 -0.4506  0.4683
10238TIP3    H152129   2.534   3.573  11.744 -0.0293 -2.1936 -0.4409
10238TIP3    H252130   2.387   3.536  11.739 -0.7844  0.3932  1.2375
10239TIP3   OH252131   0.506   6.317   2.013  0.1776  0.3367 -0.0543
10239TIP3    H152132   0.593   6.295   1.981 -0.2689 -1.1052 -0.3118
10239TIP3    H252133   0.450   6.310   1.935 -0.2850  0.5225  0.2623
10240TIP3   OH252134   4.296   1.763   1.591 -0.1324 -0.4179 -0.1983
10240TIP3    H152135   4.361   1.694   1.605 -1.3557 -1.5977 -0.3140
10240TIP3    H252136   4.273   1.792   1.680 -0.0600 -0.5542 -0.1352
10241TIP3   OH252137   6.557   0.972   3.262 -0.3803  0.6856 -0.1901
10241TIP3    H152138   6.508   0.973   3.344 -0.2241  0.8393 -0.0946
10241TIP3    H252139   6.530   1.052   3.217  0.4001  1.2108  0.2449
10242TIP3   OH252140   5.278   6.320   0.480 -0.0479 -0.2123 -0.1857
10242TIP3    H152141   5.310   6.257   0.543 -0.4342  0.1311  0.3590
10242TIP3    H252142   5.286   6.405   0.524 -0.1193  0.0487 -0.6722
10243TIP3   OH252143   1.289   2.510  10.865 -0.1209 -0.4750  0.0664
10243TIP3    H152144   1.240   2.443  10.818  0.5704 -0.9146 -0.0371
10243TIP3    H252145   1.336   2.558  10.797 -1.1719  0.5936  0.0683
10244TIP3   OH252146   0.870   6.365   2.291 -0.0483 -0.2752 -0.2911
10244TIP3    H152147   0.859   6.299   2.222 -0.4033 -1.4600  0.8697
10244TIP3    H252148   0.960   6.393   2.283  0.3858 -1.5987 -0.2236
10245TIP3   OH252149   6.360   0.308  16.063 -0.2737 -0.2879  0.1977
10245TIP3    H152150   6.364   0.400  16.035 -1.9707 -0.1793  0.2820
10245TIP3    H252151   6.377   0.258  15.983 -0.9207  0.0813 -0.1743
10246TIP3   OH252152   1.141   2.686  16.709 -0.4153 -0.3774 -0.1194
10246TIP3    H152153   1.092   2.768  16.707 -1.4499 -0.9854 -0.2635
10246TIP3    H252154   1.081   2.621  16.672 -0.2318 -1.5190  1.5337
10247TIP3   OH252155   1.465   5.771   1.964 -0.6889  0.8092  0.7062
10247TIP3    H152156   1.402   5.806   1.901  0.4659  0.6438 -0.5600
10247TIP3    H252157   1.477   5.680   1.938  0.6976  1.0613  0.4055
10248TIP3   OH252158   6.196   1.403  14.267  0.1005 -0.4627  0.1317
10248TIP3    H152159   6.185   1.351  14.187  1.0778 -0.0527 -0.2703
10248TIP3    H252160   6.213   1.339  14.336 -0.0192 -0.7667 -0.1239
10249TIP3   OH252161   4.513   2.790   3.776  0.0413 -0.2196 -0.2937
10249TIP3    H152162   4.480   2.825   3.693 -0.3894 -0.5901 -0.2779
10249TIP3    H252163   4.499   2.862   3.839 -0.2433 -0.1813 -0.4001
10250TIP3   OH252164   6.523   4.163  11.650  0.3525 -0.2276  0.4475
10250TIP3    H152165   6.463   4.234  11.672  0.9590  0.8462 -1.2553
10250TIP3    H252166   6.593   4.170  11.714 -1.1066 -1.2628  2.2270
10251TIP3   OH252167   3.240   4.455   3.332 -0.0377  0.3545  0.3045
10251TIP3    H152168   3.146   4.471   3.321 -0.2344 -0.7547  0.3155
10251TIP3    H252169   3.282   4.515   3.271 -0.8122 -0.2951 -0.8764
10252TIP3   OH252170   4.032   6.337   0.884 -0.3211  0.4958  0.4342
10252TIP3    H152171   3.986   6.272   0.938 -0.5131 -0.3507 -0.7241
10252TIP3    H252172   4.063   6.287   0.809  0.2106  1.6086 -0.0918
10253TIP3   OH252173   6.109   6.078   6.290 -0.3453  0.7909 -0.8407
10253TIP3    H152174   6.143   6.001   6.244 -0.7747 -0.7062  1.2183
10253TIP3    H252175   6.082   6.043   6.376 -1.1733  3.1294 -0.1267
10254TIP3   OH252176   4.504   0.932   5.466  0.1890  0.3025  0.0572
10254TIP3    H152177   4.451   1.007   5.492 -0.5232 -0.5946  1.2931
10254TIP3    H252178   4.590   0.950   5.504  0.2015  0.8156 -0.2189
10255TIP3   OH252179   5.811   2.204  13.300  0.4479  0.1202  0.0382
10255TIP3    H152180   5.731   2.165  13.264  0.6908 -0.6662  0.3577
10255TIP3    H252181   5.856   2.132  13.344  1.0113  0.7035  0.4309
10256TIP3   OH252182   2.242   2.500   5.432 -0.2182  0.1187  0.0496
10256TIP3    H152183   2.260   2.456   5.349 -0.8898 -0.3072  0.1192
10256TIP3    H252184   2.268   2.437   5.499 -1.2774 -0.2180  0.1498
10257TIP3   OH252185   1.557   1.679   5.910  0.1711  0.7282  0.1077
10257TIP3    H152186   1.623   1.648   5.972  1.0632 -0.4075 -1.3786
10257TIP3    H252187   1.571   1.773   5.905  0.6840  0.7005  0.9598
10258TIP3   OH252188   3.766   2.816  10.982  0.2014 -0.5553  0.2350
10258TIP3    H152189   3.834   2.823  10.916  0.7619 -0.8281  0.7695
10258TIP3    H252190   3.692   2.775  10.937  0.1390  0.3875 -0.5277
10259TIP3   OH252191   1.471   6.383   6.012  0.3326  0.4166 -0.1725
10259TIP3    H152192   1.395   6.325   6.017  2.3377 -2.7509 -3.9241
10259TIP3    H252193   1.450   6.444   5.941  0.1607  1.3173  0.6495
10260TIP3   OH252194   1.328   0.497  15.382 -0.0864 -0.3451 -0.1016
10260TIP3    H152195   1.278   0.443  15.322 -0.5045 -2.4548  2.0449
10260TIP3    H252196   1.297   0.586  15.366 -2.3147 -1.2319 -0.9257
10261TIP3   OH252197   0.309   0.755  11.640 -0.2010  0.2954  0.4125
10261TIP3    H152198   0.363   0.808  11.581  0.8890 -1.4735 -0.2144
10261TIP3    H252199   0.219   0.781  11.620  0.1986  0.1948 -1.5610
10262TIP3   OH252200   2.576   6.338  14.312  0.6042  0.3237  0.2061
10262TIP3    H152201   2.526   6.418  14.328  0.0860 -0.2593  1.5853
10262TIP3    H252202   2.663   6.356  14.348  0.3381  0.0970  0.9740
10263TIP3   OH252203   6.706   4.050  12.537 -0.5180  0.1245 -0.7436
10263TIP3    H152204   6.714   4.114  12.467  1.0103  0.1808 -0.5201
10263TIP3    H252205   6.790   4.005  12.539  0.0127  1.1410  2.0516
10264TIP3   OH252206   4.120   0.820   2.415 -0.0360 -0.2424 -0.5767
10264TIP3    H152207   4.067   0.748   2.381  2.0051 -1.7631 -0.6152
10264TIP3    H252208   4.139   0.874   2.338 -0.4649 -0.3632 -0.7726
10265TIP3   OH252209   2.033   4.121   3.595  0.3203  0.4351  0.2809
10265TIP3    H152210   1.996   4.042   3.556 -0.3913  0.9104 -0.0302
10265TIP3    H252211   2.101   4.090   3.655  0.9046 -0.3308 -0.7778
10266TIP3   OH252212   1.425   2.349   2.593  0.2630  0.3284 -0.2650
10266TIP3    H152213   1.375   2.269   2.612  1.5164 -0.5031 -0.4473
10266TIP3    H252214   1.516   2.325   2.606  0.6363  1.8629  0.1054
10267TIP3   OH252215   4.909   5.322   5.402 -0.0359 -0.1926 -0.5014
10267TIP3    H152216   4.940   5.277   5.481 -0.3385 -1.5521 -1.1373
10267TIP3    H252217   4.849   5.389   5.435  1.5420  0.7278  0.5526
10268TIP3   OH252218   0.745   1.833   3.960  0.2872  0.1432 -0.2094
10268TIP3    H152219   0.763   1.910   4.014  1.0079 -1.7674  2.3783
10268TIP3    H252220   0.810   1.836   3.890  1.0218  1.2696  0.5193
10269TIP3   OH252221   1.909   1.442   2.126 -0.3617 -0.2039 -0.1175
10269TIP3    H152222   1.868   1.434   2.040 -2.6005 -1.8471  1.0486
10269TIP3    H252223   1.836   1.462   2.185  1.4116  2.8488  1.1395
10270TIP3   OH252224   5.682   5.658  14.537  0.0848 -0.4692  0.0393
10270TIP3    H152225   5.613   5.657  14.604  2.1919  1.9898  2.3964
10270TIP3    H252226   5.685   5.749  14.507  0.8211 -1.0219 -1.6346
10271TIP3   OH252227   5.522   1.822   3.749  0.7712  0.1152 -0.5696
10271TIP3    H152228   5.611   1.801   3.778  0.6824  1.4751  0.7117
10271TIP3    H252229   5.470   1.824   3.830 -0.0992  0.9029 -1.1426
10272TIP3   OH252230   3.832   0.773  12.861 -1.0173 -0.0671 -0.3982
10272TIP3    H152231   3.875   0.855  12.837 -1.8646  0.4782 -0.0790
10272TIP3    H252232   3.889   0.734  12.927 -0.3765  0.0420 -0.8881
10273TIP3   OH252233   3.489   6.443  16.935  0.2868 -0.2940  0.0087
10273TIP3    H152234   3.441   6.420  16.856  0.6226 -0.8027 -0.0441
10273TIP3    H252235   3.421   6.469  16.998  0.0931  1.2578 -0.8164
10274TIP3   OH252236   1.118   4.853  11.843  0.3934 -0.1580 -0.3419
10274TIP3    H152237   1.071   4.935  11.856  0.2923 -0.2778  0.0424
10274TIP3    H252238   1.148   4.857  11.752 -2.3805 -1.1094 -1.3381
10275TIP3   OH252239   5.598   5.950  11.321 -0.5969  0.3623 -0.2074
10275TIP3    H152240   5.644   5.985  11.245  0.4147 -0.4688  0.0134
10275TIP3    H252241   5.613   6.014  11.390  1.3048 -0.5136  0.2176
10276TIP3   OH252242   6.316   6.094   5.036 -0.5944  0.2925 -0.9706
10276TIP3    H152243   6.314   6.000   5.015  0.7638 -0.4513  2.0182
10276TIP3    H252244   6.247   6.132   4.981 -0.3112 -2.2339 -3.1638
10277TIP3   OH252245   5.501   5.930  15.610  0.3363 -0.1001 -0.5967
10277TIP3    H152246   5.470   5.877  15.683  2.0810 -1.1865 -0.6342
10277TIP3    H252247   5.541   6.007  15.652  2.4188 -1.2937 -0.3284
10278TIP3   OH252248   0.997   2.533  11.525 -0.3448  0.1342 -0.1335
10278TIP3    H152249   0.945   2.611  11.544 -1.8557 -0.9224  0.1415
10278TIP3    H252250   1.055   2.524  11.601 -0.2671  0.9022 -0.0958
10279TIP3   OH252251   6.169   5.242   2.602 -0.5027  0.3883 -0.4148
10279TIP3    H152252   6.263   5.226   2.613 -0.4714  0.8907  0.0702
10279TIP3    H252253   6.159   5.336   2.620 -1.0485  0.4014 -0.7918
10280TIP3   OH252254   4.620   3.582   3.483  0.3638 -0.0553 -0.0438
10280TIP3    H152255   4.617   3.664   3.532 -2.0776  0.2432 -0.6024
10280TIP3    H252256   4.563   3.523   3.532 -0.7554 -0.2686 -1.5507
10281TIP3   OH252257   0.782   5.733   4.915  1.0485 -0.0269  0.1393
10281TIP3    H152258   0.875   5.721   4.936  1.0246 -0.6646 -0.1210
10281TIP3    H252259   0.750   5.790   4.984  1.4298 -0.5311  0.7448
10282TIP3   OH252260   1.670   1.676   3.288  0.0740 -0.0059  0.1395
10282TIP3    H152261   1.625   1.755   3.257 -1.6630 -1.2245 -0.4768
10282TIP3    H252262   1.687   1.692   3.380 -2.6367  0.0231  0.6671
10283TIP3   OH252263   5.446   5.799   0.389  0.1018  0.3061  0.4834
10283TIP3    H152264   5.486   5.885   0.401 -0.4027  0.6063  0.0263
10283TIP3    H252265   5.355   5.810   0.418 -0.5326  0.4719 -1.4978
10284TIP3   OH252266   0.766   4.545   4.030  0.5364 -0.3813 -0.2179
10284TIP3    H152267   0.750   4.596   4.110  1.6743 -0.1069 -0.1561
10284TIP3    H252268   0.797   4.460   4.062 -2.6509 -1.6657 -0.2699
10285TIP3   OH252269   2.213   0.063  12.595  0.3444  0.2731 -0.2226
10285TIP3    H152270   2.144   0.061  12.661  0.0769 -0.7089 -0.5189
10285TIP3    H252271   2.235   0.155  12.584  1.8519  0.3164  2.7697
10286TIP3   OH252272   2.766   0.709  11.589  0.8361 -0.1795  0.0410
10286TIP3    H152273   2.675   0.734  11.603  1.2541  2.2460 -1.2962
10286TIP3    H252274   2.761   0.637  11.525 -0.0460  1.7967 -2.1912
10287TIP3   OH252275   3.414   1.057   5.201 -0.7268 -0.2278  0.0299
10287TIP3    H152276   3.475   1.129   5.186  1.1168 -2.1297 -1.8344
10287TIP3    H252277   3.457   1.002   5.266  0.9879 -3.0805 -3.3449
10288TIP3   OH252278   4.298   5.952   2.851 -0.0490  0.2717  0.1626
10288TIP3    H152279   4.290   5.891   2.778 -1.6399 -1.5465  1.8183
10288TIP3    H252280   4.257   6.033   2.819 -0.4183 -0.3959 -1.0871
10289TIP3   OH252281   3.636   0.676   4.581  0.2020 -0.0865 -0.6716
10289TIP3    H152282   3.614   0.769   4.584 -0.1293 -0.1846  0.4153
10289TIP3    H252283   3.698   0.664   4.654  0.3879 -0.6764 -0.9219
10290TIP3   OH252284   6.000   0.836  16.546 -0.0058 -0.4847 -0.0168
10290TIP3    H152285   6.029   0.826  16.636 -0.8273  1.2374  0.4748
10290TIP3    H252286   5.904   0.837  16.552 -0.0521  0.4705 -0.7925
10291TIP3   OH252287   0.231   5.892   5.485  0.0025 -0.5073 -0.2169
10291TIP3    H152288   0.324   5.867   5.484 -0.1397 -1.0333 -0.4456
10291TIP3    H252289   0.220   5.949   5.409  0.4213  0.5855  0.5394
10292TIP3   OH252290   2.820   0.152   4.512 -0.2496 -0.5046  0.1549
10292TIP3    H152291   2.799   0.059   4.511 -1.4436 -0.2630 -2.7626
10292TIP3    H252292   2.742   0.195   4.476  1.5767  1.2769 -1.8371
10293TIP3   OH252293   3.540   1.428  16.359  0.0470 -0.1326  0.2287
10293TIP3    H152294   3.596   1.350  16.363 -0.6647 -0.6065  0.9992
10293TIP3    H252295   3.452   1.396  16.378 -0.4877  0.6316 -0.8446
10294TIP3   OH252296   1.036   0.707  12.338 -0.3618 -0.0717  0.1617
10294TIP3    H152297   1.101   0.640  12.317 -0.7109 -0.5695  0.6229
10294TIP3    H252298   0.952   0.661  12.330 -0.6543  0.5780 -0.4803
10295TIP3   OH252299   2.865   0.350   1.976  0.8125 -0.0310 -0.5092
10295TIP3    H152300   2.824   0.317   1.897  0.4932 -0.8828  0.0131
10295TIP3    H252301   2.959   0.353   1.955  1.0311 -2.8030 -0.0145
10296TIP3   OH252302   3.140   1.181   3.953 -0.1273 -0.1300 -0.0571
10296TIP3    H152303   3.230   1.159   3.976  0.2422 -1.1961 -2.3723
10296TIP3    H252304   3.121   1.129   3.875 -3.2219 -0.9290  1.1346
10297TIP3   OH252305   1.907   0.814  14.703 -0.0822 -0.2733 -0.6837
10297TIP3    H152306   1.852   0.740  14.728 -2.3259  1.9718  1.2365
10297TIP3    H252307   1.913   0.809  14.608 -0.5558 -2.6391 -0.6140
10298TIP3   OH252308   5.643   2.948  13.403 -0.5219 -1.1412  0.2839
10298TIP3    H152309   5.664   2.855  13.397 -0.0437 -1.1166  1.4153
10298TIP3    H252310   5.706   2.983  13.466 -0.9696 -0.1391  0.1894
10299TIP3   OH252311   2.816   3.340   5.791 -0.4580  0.4372 -0.2878
10299TIP3    H152312   2.725   3.344   5.759 -0.8015  0.6730  0.6964
10299TIP3    H252313   2.813   3.276   5.862  0.3189 -0.1392 -0.7706
10300TIP3   OH252314   1.533   4.421   0.940 -0.0400 -0.0664 -0.2946
10300TIP3    H152315   1.523   4.355   1.009 -0.7774 -0.6750 -0.9839
10300TIP3    H252316   1.619   4.404   0.903  0.7607  0.8538  1.0835
10301TIP3   OH252317   4.406   0.403  16.280  0.0433 -0.2315  0.1029
10301TIP3    H152318   4.453   0.486  16.286  1.7777 -1.2138  0.4656
10301TIP3    H252319   4.458   0.342  16.333 -2.3483 -1.0548  1.6199
10302TIP3   OH252320   0.649   2.997   4.195 -0.0960  0.3525  0.2248
10302TIP3    H152321   0.722   3.026   4.141  0.4924 -0.0717  0.7911
10302TIP3    H252322   0.677   2.913   4.230 -1.3693 -0.4244 -0.5808
10303TIP3   OH252323   1.556   3.674   4.760  0.0709 -0.4416 -0.8349
10303TIP3    H152324   1.625   3.620   4.721  0.1623 -1.0268  0.1128
10303TIP3    H252325   1.494   3.610   4.795 -0.3038  0.0814 -0.5541
10304TIP3   OH252326   3.354   6.741   2.585  0.1106  0.3160  0.1591
10304TIP3    H152327   3.437   6.711   2.548  0.0208  0.8677 -0.5137
10304TIP3    H252328   3.343   6.690   2.665  2.2217  1.7876  1.4635
10305TIP3   OH252329   0.534   2.754   0.835 -1.0020 -0.1549  0.4177
10305TIP3    H152330   0.609   2.719   0.787 -0.4430  1.7106 -0.0889
10305TIP3    H252331   0.514   2.687   0.900  0.3103 -1.2221 -0.2645
10306TIP3   OH252332   2.306   0.783   5.785 -0.4898 -0.3707 -0.2459
10306TIP3    H152333   2.301   0.778   5.880  0.5761  1.0011 -0.0979
10306TIP3    H252334   2.371   0.852   5.768 -1.8138  0.4877 -1.9548
10307TIP3   OH252335   5.657   4.333  16.063 -0.3248  0.3020  0.4518
10307TIP3    H152336   5.607   4.404  16.022  1.0078  0.4595 -0.9027
10307TIP3    H252337   5.721   4.307  15.998  0.6207 -0.6969  1.7511
10308TIP3   OH252338   3.605   6.477  14.749  0.2811 -0.2803  0.4895
10308TIP3    H152339   3.527   6.442  14.791 -1.4520  0.9815 -1.5699
10308TIP3    H252340   3.622   6.416  14.677  0.4892  0.1148  0.2025
10309TIP3   OH252341   1.611   0.849   5.210 -0.1862 -0.6100 -0.0438
10309TIP3    H152342   1.629   0.805   5.127 -2.5869 -0.1077 -0.8740
10309TIP3    H252343   1.540   0.798   5.249  0.2749 -0.2757  1.2746
10310TIP3   OH252344   4.007   4.345  16.513  0.1212  0.2819 -0.2847
10310TIP3    H152345   3.960   4.428  16.512 -0.1130  0.1575  0.8131
10310TIP3    H252346   4.059   4.347  16.432  2.0276  2.6072  0.9163
10311TIP3   OH252347   1.371   0.905  13.634 -0.0276  0.0527 -0.7156
10311TIP3    H152348   1.329   0.837  13.685  0.6514  1.6472  2.0435
10311TIP3    H252349   1.299   0.957  13.598 -0.4857 -0.7809 -1.0271
10312TIP3   OH252350   5.853   1.434  12.971  0.2525 -0.0494 -0.3340
10312TIP3    H152351   5.813   1.477  12.896 -0.1647 -0.1884 -0.1942
10312TIP3    H252352   5.803   1.353  12.982  1.5776 -0.9815 -1.1148
10313TIP3   OH252353   3.402   1.680  16.240 -0.1687  0.2940 -0.2197
10313TIP3    H152354   3.470   1.731  16.284  0.0672  0.4646 -0.7839
10313TIP3    H252355   3.328   1.680  16.302 -0.0466  1.0248 -0.0718
10314TIP3   OH252356   2.369   6.483   1.493 -0.3191  0.3715 -0.3510
10314TIP3    H152357   2.377   6.470   1.587  0.6923 -1.6256 -0.6962
10314TIP3    H252358   2.284   6.526   1.482  0.4032  2.3808  1.6001
10315TIP3   OH252359   0.447   2.255  16.305  0.1179 -0.0521  0.1071
10315TIP3    H152360   0.457   2.193  16.232 -1.8516 -0.8086  0.4502
10315TIP3    H252361   0.353   2.254  16.324  0.2812  1.9520  1.0850
10316TIP3   OH252362   4.895   0.766  12.517  0.4091  0.5623  0.3978
10316TIP3    H152363   4.940   0.844  12.483 -0.0728  0.1590 -1.2025
10316TIP3    H252364   4.942   0.693  12.478  0.0214  0.0764  0.8368
10317TIP3   OH252365   2.305   3.273   1.553 -0.0658  1.4503 -0.0874
10317TIP3    H152366   2.291   3.365   1.575  0.2982  1.5074 -0.0944
10317TIP3    H252367   2.374   3.274   1.487  0.5804  1.1149  0.5674
10318TIP3   OH252368   3.654   5.145  15.889 -0.0297  0.0783 -0.2520
10318TIP3    H152369   3.650   5.237  15.865 -0.1613  0.6476  1.8416
10318TIP3    H252370   3.733   5.112  15.846 -0.5545  0.8704 -1.8864
10319TIP3   OH252371   0.827   0.447   3.879  0.3208  0.4841  0.0314
10319TIP3    H152372   0.790   0.416   3.961 -0.7404 -0.7638 -0.8850
10319TIP3    H252373   0.922   0.437   3.889  0.1531 -0.2447  0.8681
10320TIP3   OH252374   1.397   5.340  16.806  0.8040 -0.1785  0.2836
10320TIP3    H152375   1.481   5.375  16.777  0.0565  2.6052  1.3398
10320TIP3    H252376   1.357   5.411  16.856 -2.5177 -1.1657 -0.8133
10321TIP3   OH252377   4.961   4.460   3.854  0.6034 -0.1238  0.5980
10321TIP3    H152378   5.023   4.467   3.781  1.2119  0.6235  1.1916
10321TIP3    H252379   4.972   4.541   3.903 -0.0399 -0.4868  1.3423
10322TIP3   OH252380   4.783   1.432   0.999 -0.8241 -0.0796  0.1424
10322TIP3    H152381   4.775   1.344   0.961 -2.0847  0.3217 -0.5524
10322TIP3    H252382   4.836   1.419   1.077 -1.2182 -1.5051  0.1960
10323TIP3   OH252383   1.981   1.339   3.444 -0.3427  0.7070  0.1441
10323TIP3    H152384   2.059   1.375   3.486 -0.5345  0.6215  0.5793
10323TIP3    H252385   1.949   1.411   3.389 -1.7147  1.8718  2.3476
10324TIP3   OH252386   2.195   5.872   6.462  0.1511 -0.7659 -0.4973
10324TIP3    H152387   2.109   5.848   6.498 -0.1261  0.8715 -0.0097
10324TIP3    H252388   2.257   5.843   6.528  0.0763 -3.0605 -1.4098
10325TIP3   OH252389   1.377   2.069  13.421  0.6269 -0.1566  0.0684
10325TIP3    H152390   1.390   1.988  13.470  1.8793  0.1375  0.2470
10325TIP3    H252391   1.464   2.108  13.417  0.3495  0.3250 -1.5194
10326TIP3   OH252392   4.246   1.163  15.487 -0.2231  0.0575  0.0522
10326TIP3    H152393   4.280   1.079  15.519 -3.0523 -0.4662  1.8297
10326TIP3    H252394   4.194   1.139  15.410  0.4833  0.4187 -0.5405
10327TIP3   OH252395   4.389   3.404   5.676 -0.0276  0.1245  0.6007
10327TIP3    H152396   4.397   3.486   5.724  1.5578  0.6018 -0.4460
10327TIP3    H252397   4.407   3.336   5.742  1.3409  0.7380  0.8806
10328TIP3   OH252398   4.212   4.974  16.889 -0.5784 -0.3674 -0.5817
10328TIP3    H152399   4.241   5.035  16.957  0.1905 -1.9813  0.5613
10328TIP3    H252400   4.275   4.902  16.892  0.4692  0.2870 -4.1642
10329TIP3   OH252401   0.992   4.781  13.894 -0.3037  0.5967  0.6027
10329TIP3    H152402   0.961   4.763  13.983 -1.8116  0.6855  0.1165
10329TIP3    H252403   0.984   4.875  13.884 -1.9881  0.3827 -0.2673
10330TIP3   OH252404   5.232   4.670   5.525  0.2653 -0.1778 -0.2162
10330TIP3    H152405   5.268   4.638   5.608 -1.6600 -0.3208  0.5776
10330TIP3    H252406   5.288   4.745   5.502  0.9597 -0.2829  1.0955
10331TIP3   OH252407   2.476   4.704   2.274  0.7979 -0.8053 -0.3716
10331TIP3    H152408   2.383   4.711   2.254  0.5940 -2.5198 -0.1246
10331TIP3    H252409   2.488   4.756   2.354  0.0463 -0.6151 -0.3795
10332TIP3   OH252410   3.452   0.305  11.350  0.1867 -0.4738 -0.3612
10332TIP3    H152411   3.436   0.321  11.443 -0.4123 -1.2204 -0.3304
10332TIP3    H252412   3.434   0.212  11.338 -3.7606  0.3753 -2.0014
10333TIP3   OH252413   2.697   1.263  11.492  0.0956 -0.2905 -0.3915
10333TIP3    H152414   2.731   1.201  11.556  1.1019 -0.0830 -0.7115
10333TIP3    H252415   2.720   1.349  11.527 -1.2106 -0.0955  0.0071
10334TIP3   OH252416   6.759   1.501   0.201 -0.4796 -0.2885 -0.0439
10334TIP3    H152417   6.702   1.527   0.128  0.1654 -0.3618 -0.5792
10334TIP3    H252418   6.739   1.408   0.215  0.0862 -0.5232 -0.7650
10335TIP3   OH252419   3.035   0.617   2.130 -0.3145  0.2534 -0.1465
10335TIP3    H152420   3.113   0.673   2.131  0.5482 -0.9078  2.0187
10335TIP3    H252421   3.065   0.535   2.169 -2.9576  0.2293  1.9015
10336TIP3   OH252422   3.126   5.343   0.632 -0.2428 -0.1203  0.5353
10336TIP3    H152423   3.125   5.438   0.643  1.4199 -0.0877  0.5377
10336TIP3    H252424   3.070   5.327   0.556 -0.6453  0.8444  0.6209
10337TIP3   OH252425   2.204   2.215   1.163  0.2740 -0.3721  0.4342
10337TIP3    H152426   2.137   2.262   1.212 -0.4040  0.0431 -0.8779
10337TIP3    H252427   2.164   2.196   1.079  2.2437  1.0126 -0.8573
10338TIP3   OH252428   3.698   5.393  13.049  0.4929 -0.0149 -1.0665
10338TIP3    H152429   3.690   5.342  13.129 -0.1445 -1.7589 -2.2128
10338TIP3    H252430   3.791   5.387  13.026  0.3993 -0.8056 -1.2669
10339TIP3   OH252431   2.092   0.675  16.264 -0.1233  0.1602 -0.1156
10339TIP3    H152432   2.107   0.635  16.178 -2.7239 -0.2388 -0.4113
10339TIP3    H252433   2.101   0.602  16.326  2.3309  0.5546  0.0614
10340TIP3   OH252434   5.411   6.694  13.045  0.4310  0.4162 -0.8797
10340TIP3    H152435   5.451   6.607  13.055  1.9300  1.0666 -1.1415
10340TIP3    H252436   5.348   6.683  12.974  0.9776 -0.3422 -1.2516
10341TIP3   OH252437   6.048   3.232   6.778 -0.2482  0.0628  0.0542
10341TIP3    H152438   5.961   3.234   6.739 -0.6131 -2.8074  0.5641
10341TIP3    H252439   6.098   3.172   6.722  0.5179 -0.6190  1.4329
10342TIP3   OH252440   6.406   2.464   2.181 -0.1084  0.0776  0.9628
10342TIP3    H152441   6.357   2.477   2.100 -0.1855  0.3561  1.0544
10342TIP3    H252442   6.497   2.459   2.154 -0.0390  1.1987  0.9679
10343TIP3   OH252443   0.973   3.057   0.465 -0.5498  0.1880  0.1128
10343TIP3    H152444   0.911   2.999   0.508 -0.9441  0.9995  0.6630
10343TIP3    H252445   1.050   3.057   0.523 -0.8360  0.7886  0.4936
10344TIP3   OH252446   4.734   3.109   1.118  0.3326 -0.0940  0.3814
10344TIP3    H152447   4.699   3.104   1.029 -1.6625  0.5525  1.0868
10344TIP3    H252448   4.820   3.068   1.113 -0.1070 -0.8202 -1.6660
10345TIP3   OH252449   2.704   4.676   0.866  0.0428  0.1788  0.2576
10345TIP3    H152450   2.616   4.648   0.894  0.5051 -1.9174 -0.3357
10345TIP3    H252451   2.687   4.743   0.799 -1.1424 -0.8678 -0.5250
10346TIP3   OH252452   1.540   1.637   2.919 -0.3257  0.3424 -0.3177
10346TIP3    H152453   1.466   1.615   2.861  0.1637 -1.8405 -0.1817
10346TIP3    H252454   1.605   1.570   2.900  1.2068  1.6258  0.3458
10347TIP3   OH252455   5.092   0.129  15.607  0.6143 -0.0380  0.2552
10347TIP3    H152456   5.103   0.151  15.699 -0.6027  0.8584  0.1966
10347TIP3    H252457   5.007   0.166  15.583 -0.0033 -1.9797 -0.7138
10348TIP3   OH252458   3.080   4.416   2.960  0.1532 -0.0903 -0.2484
10348TIP3    H152459   3.082   4.323   2.937 -1.6705 -0.3856  0.6905
10348TIP3    H252460   3.077   4.462   2.877 -0.0324 -0.9120 -0.6998
10349TIP3   OH252461   2.974   0.596  10.631  0.4099  0.2784 -0.1430
10349TIP3    H152462   2.898   0.606  10.688  0.3354  0.0611 -0.2028
10349TIP3    H252463   3.002   0.505  10.644  0.6112  0.3333 -0.1808
10350TIP3   OH252464   3.355   3.260  16.179  0.5448  0.1368  0.5636
10350TIP3    H152465   3.403   3.307  16.248  2.2093 -0.3382 -0.2575
10350TIP3    H252466   3.392   3.292  16.097  1.0400 -1.8682 -0.0342
10351TIP3   OH252467   4.061   1.326  10.956 -0.1158  0.0228  0.4085
10351TIP3    H152468   4.128   1.300  11.018  0.3952 -0.6747 -0.4297
10351TIP3    H252469   4.082   1.417  10.935 -0.8732  0.5698  2.0069
10352TIP3   OH252470   0.216   1.688   2.486 -0.0073  0.0675 -0.6153
10352TIP3    H152471   0.199   1.758   2.549 -1.8031  0.0462 -1.0362
10352TIP3    H252472   0.248   1.615   2.540  1.1837  0.9697 -0.0881
10353TIP3   OH252473   5.639   1.763   4.977 -0.3411 -0.2749  0.4005
10353TIP3    H152474   5.638   1.782   5.071 -0.0971 -0.9544  0.5419
10353TIP3    H252475   5.699   1.828   4.940 -1.9702  1.2971  0.4230
10354TIP3   OH252476   4.932   0.794   5.664  0.1086  0.2001 -0.4097
10354TIP3    H152477   4.885   0.864   5.619  2.3976  1.1539 -1.3512
10354TIP3    H252478   4.994   0.761   5.600 -0.0014 -1.7762  0.4756
10355TIP3   OH252479   3.063   6.477   1.571 -0.0861 -0.1923 -0.0702
10355TIP3    H152480   2.975   6.471   1.609  0.3872  0.0958  1.0883
10355TIP3    H252481   3.116   6.415   1.622  1.0885  1.9050  1.3335
10356TIP3   OH252482   4.275   5.291   2.318  0.0686 -0.0239 -0.6860
10356TIP3    H152483   4.342   5.243   2.367  0.6238 -0.4529 -1.8502
10356TIP3    H252484   4.199   5.233   2.317  0.3049 -0.3305 -0.9679
10357TIP3   OH252485   2.377   4.654  17.070 -0.2563  0.5763  0.1009
10357TIP3    H152486   2.423   4.708  17.133  0.6746  1.0038 -0.9365
10357TIP3    H252487   2.288   4.647  17.104 -0.0431  1.7144  0.8806
10358TIP3   OH252488   4.228   1.797  15.225 -0.0263  0.3305  1.0359
10358TIP3    H152489   4.248   1.738  15.153 -0.6106 -0.3655  1.4386
10358TIP3    H252490   4.163   1.857  15.189  1.1258  1.2115  0.3984
10359TIP3   OH252491   2.907   0.537  12.701  0.1100  0.1942  0.5612
10359TIP3    H152492   2.839   0.592  12.739  0.0774  1.0205 -0.6873
10359TIP3    H252493   2.937   0.584  12.624 -1.5733 -2.5975 -1.8985
10360TIP3   OH252494   0.705   0.641   1.689 -0.0797  0.2505 -0.2181
10360TIP3    H152495   0.716   0.696   1.767  2.0845 -0.7679  0.2323
10360TIP3    H252496   0.641   0.575   1.715  1.2575 -0.5940  1.0126
10361TIP3   OH252497   0.927   1.969  12.583  0.1177 -0.0965  0.3689
10361TIP3    H152498   0.931   1.882  12.543 -1.2117  0.0838 -0.1859
10361TIP3    H252499   1.018   1.998  12.588  0.6017 -1.7017  0.9531
10362TIP3   OH252500   2.564   2.141  12.654  0.8473  0.0572  0.3254
10362TIP3    H152501   2.619   2.214  12.627  2.3309 -1.3225 -0.5375
10362TIP3    H252502   2.578   2.075  12.586 -1.8689 -0.3566  0.1057
10363TIP3   OH252503   3.986   0.478   4.844  0.1793  0.2427 -0.0157
10363TIP3    H152504   3.938   0.409   4.799  0.2420 -0.6002  1.2063
10363TIP3    H252505   3.918   0.540   4.872 -0.0525 -0.2191  0.4447
10364TIP3   OH252506   6.284   3.176   5.147 -0.9792  0.3616 -0.1193
10364TIP3    H152507   6.327   3.198   5.064  0.6435  0.1620  0.6623
10364TIP3    H252508   6.201   3.135   5.120 -0.9520  1.2451 -1.6270
10365TIP3   OH252509   2.875   4.284  15.470 -0.2817 -0.0572 -0.2454
10365TIP3    H152510   2.964   4.310  15.491  0.8034 -2.4279 -1.7275
10365TIP3    H252511   2.865   4.303  15.377 -1.0753 -0.4293 -0.2462
10366TIP3   OH252512   4.056   2.261  17.208  0.0042  0.2088  0.2612
10366TIP3    H152513   4.114   2.320  17.256  1.5464 -0.3515 -0.8896
10366TIP3    H252514   4.062   2.289  17.117 -1.0122 -0.2942  0.0230
10367TIP3   OH252515   0.870   5.829  17.010 -0.0406  0.3216 -0.4530
10367TIP3    H152516   0.932   5.870  16.950 -0.0532  1.8010  0.5321
10367TIP3    H252517   0.787   5.828  16.961  0.2545  0.2807 -0.9598
10368TIP3   OH252518   3.683   4.752   0.220 -0.3088  0.1406  0.1360
10368TIP3    H152519   3.706   4.661   0.240  1.0685  0.1148 -1.4577
10368TIP3    H252520   3.738   4.774   0.144 -1.3919  1.9661 -0.1287
10369TIP3   OH252521   2.189   6.624  16.486  0.2664  0.2425  0.1135
10369TIP3    H152522   2.214   6.680  16.412 -1.8237 -0.7292 -1.3906
10369TIP3    H252523   2.266   6.570  16.502  1.4368  1.8325 -0.0470
10370TIP3   OH252524   1.605   6.353   0.561 -0.1424  0.0587 -0.7701
10370TIP3    H152525   1.529   6.352   0.502 -0.7989  0.9037  0.0474
10370TIP3    H252526   1.569   6.380   0.645  0.9132 -0.4765 -0.1457
10371TIP3   OH252527   1.186   2.722  14.404 -0.0282  0.0783 -0.5162
10371TIP3    H152528   1.206   2.726  14.498 -0.9466  0.8536 -0.3467
10371TIP3    H252529   1.136   2.802  14.387 -0.5117 -0.4341 -1.5210
10372TIP3   OH252530   4.924   5.099   3.185  0.3117  0.0054 -0.2130
10372TIP3    H152531   4.959   5.024   3.137 -0.8205  0.2124 -1.3802
10372TIP3    H252532   4.943   5.079   3.277  0.7710 -1.3022 -0.5770
10373TIP3   OH252533   6.632   6.045  16.257 -0.2143  0.0076 -0.3855
10373TIP3    H152534   6.700   6.009  16.314 -1.7180 -2.1168  0.1427
10373TIP3    H252535   6.673   6.120  16.215  2.5917 -1.4623 -0.4044
10374TIP3   OH252536   0.167   1.840  11.172  0.5860 -0.0972  0.3012
10374TIP3    H152537   0.077   1.868  11.188  0.1842 -0.4865 -1.2236
10374TIP3    H252538   0.214   1.922  11.155 -0.3128 -0.1310 -2.7963
10375TIP3   OH252539   1.772   1.977   6.035 -0.1852  0.5958 -0.8631
10375TIP3    H152540   1.687   1.938   6.013 -0.6249  1.4649 -0.7188
10375TIP3    H252541   1.765   2.068   6.006  0.8244  0.5828 -1.1624
10376TIP3   OH252542   0.703   6.334  17.002  0.0542  0.1883  0.1606
10376TIP3    H152543   0.792   6.314  17.033 -0.6474 -0.4662  1.8329
10376TIP3    H252544   0.707   6.320  16.908  1.6895  0.0026  0.2380
10377TIP3   OH252545   5.925   1.235  14.357  0.8104 -0.1194 -0.1413
10377TIP3    H152546   5.874   1.303  14.313 -1.4465  0.2562  2.9086
10377TIP3    H252547   5.962   1.183  14.285 -1.4536  1.3961 -2.4949
10378TIP3   OH252548   3.907   3.153  12.782 -0.5165 -0.2947 -0.0851
10378TIP3    H152549   3.984   3.131  12.834 -1.5895  0.4413  1.8786
10378TIP3    H252550   3.930   3.235  12.738  0.6999 -1.3461 -1.4714
10379TIP3   OH252551   5.814   6.637   5.807 -0.2537 -0.1316 -0.1029
10379TIP3    H152552   5.909   6.644   5.813 -0.4386  1.6530  1.2363
10379TIP3    H252553   5.781   6.705   5.866 -2.3581  0.4758 -1.9126
10380TIP3   OH252554   6.403   4.499   5.516  0.3283 -0.0328  0.3982
10380TIP3    H152555   6.398   4.554   5.594 -1.1993 -0.2604  0.4866
10380TIP3    H252556   6.383   4.559   5.444 -0.4032 -0.2627  0.4034
10381TIP3   OH252557   1.308   4.568  16.580  0.2372 -0.1646 -0.1958
10381TIP3    H152558   1.240   4.512  16.619 -2.4607  0.8915 -3.1272
10381TIP3    H252559   1.286   4.656  16.612  0.6554  0.0829 -0.5980
10382TIP3   OH252560   3.814   1.193  16.824 -0.2146  0.4753  0.7282
10382TIP3    H152561   3.751   1.176  16.755  0.0401 -1.3009  0.9099
10382TIP3    H252562   3.888   1.136  16.803  0.3070  0.7260  1.8682
10383TIP3   OH252563   5.995   0.907  13.094  0.1387  0.0282 -0.5103
10383TIP3    H152564   6.071   0.915  13.152 -0.8939  2.1056  0.5826
10383TIP3    H252565   5.925   0.953  13.139 -1.4605 -0.7894 -2.1033
10384TIP3   OH252566   3.897   0.596   4.244  0.2255 -0.6493 -0.1940
10384TIP3    H152567   3.840   0.662   4.284 -0.2791 -0.8682 -0.5473
10384TIP3    H252568   3.953   0.566   4.316  1.3344  1.0827 -0.3145
10385TIP3   OH252569   1.788   1.616  15.472  0.4796 -0.2632 -0.4567
10385TIP3    H152570   1.858   1.634  15.535  0.1177 -0.7618  0.0838
10385TIP3    H252571   1.757   1.703  15.446  1.0069 -0.0470 -0.3745
10386TIP3   OH252572   2.545   0.791   3.308 -0.1766  0.0273 -0.0001
10386TIP3    H152573   2.537   0.841   3.389  0.1422  0.3643 -0.1756
10386TIP3    H252574   2.639   0.774   3.299  0.0624  1.9241 -1.4438
10387TIP3   OH252575   6.613   3.050  11.558  0.1226  0.5301 -0.2653
10387TIP3    H152576   6.632   2.998  11.480  3.6739  2.8749 -1.0806
10387TIP3    H252577   6.634   3.140  11.533 -0.6821  1.6284  2.7519
10388TIP3   OH252578   3.044   6.180  12.426  0.2663  0.2197  0.3253
10388TIP3    H152579   3.078   6.202  12.340 -0.0807  5.1006  1.2957
10388TIP3    H252580   3.120   6.146  12.474  1.3708  1.1935 -0.7198
10389TIP3   OH252581   3.810   0.555  13.614  0.1914  0.1571  0.3464
10389TIP3    H152582   3.802   0.472  13.660  0.3480  0.0839  0.2406
10389TIP3    H252583   3.745   0.612  13.656 -2.3779 -1.0502 -1.7985
10390TIP3   OH252584   2.251   5.253   3.099 -0.2145 -0.2859  0.7216
10390TIP3    H152585   2.301   5.174   3.079  0.0292 -0.1474  0.7843
10390TIP3    H252586   2.222   5.241   3.190 -0.1201 -0.2744  0.7537
10391TIP3   OH252587   3.842   3.965  14.101 -0.7346 -0.3045 -0.8246
10391TIP3    H152588   3.777   3.977  14.170  0.0514 -1.4038  0.1290
10391TIP3    H252589   3.830   3.875  14.071  1.2092 -0.9886  0.3064
10392TIP3   OH252590   5.513   5.272  10.798  0.4452  0.5859  0.4240
10392TIP3    H152591   5.434   5.234  10.836  1.4343 -0.2959  1.6605
10392TIP3    H252592   5.489   5.294  10.708 -1.2620  0.5315  0.8560
10393TIP3   OH252593   0.585   2.751  14.940 -0.6303 -0.1608 -0.7966
10393TIP3    H152594   0.508   2.725  14.889 -1.6663  0.0452  0.5938
10393TIP3    H252595   0.547   2.794  15.018  0.9176  0.7250 -0.5169
10394TIP3   OH252596   1.330   5.930   0.924 -0.4537  0.0879  0.7198
10394TIP3    H152597   1.239   5.903   0.934 -0.3562 -0.4706  0.1654
10394TIP3    H252598   1.376   5.851   0.897 -0.2774  0.9297 -1.5905
10395TIP3   OH252599   2.906   2.639   5.021  0.1601  0.0625  0.1656
10395TIP3    H152600   2.958   2.719   5.011  0.5257 -0.0948  0.7620
10395TIP3    H252601   2.919   2.614   5.112  1.9069 -1.9537 -0.5938
10396TIP3   OH252602   3.030   3.666   2.469  0.0609  0.0044  0.2315
10396TIP3    H152603   3.021   3.761   2.475  1.0228  0.1105  0.0466
10396TIP3    H252604   3.052   3.638   2.559  0.4304  0.0373  0.1545
10397TIP3   OH252605   0.208   1.098  15.249 -0.4872  0.1194  0.9123
10397TIP3    H152606   0.133   1.077  15.193 -2.4061 -0.1674  3.5058
10397TIP3    H252607   0.266   1.022  15.240 -0.8561 -0.0201 -0.4973
10398TIP3   OH252608   0.942   1.825   2.791 -0.2007  0.2333  0.6487
10398TIP3    H152609   0.872   1.768   2.823 -0.7366  0.1347 -0.6778
10398TIP3    H252610   0.969   1.786   2.708  0.1059  1.3551  0.2118
10399TIP3   OH252611   1.482   4.569  17.188 -0.3127 -0.1991 -0.0838
10399TIP3    H152612   1.392   4.572  17.220  0.2727  0.9158  1.5314
10399TIP3    H252613   1.526   4.508  17.246  0.1426 -0.2236 -0.4490
10400TIP3   OH252614   3.001   2.164   2.610 -0.6280  0.2538  0.1558
10400TIP3    H152615   2.995   2.234   2.545 -1.8636  0.7001  0.7314
10400TIP3    H252616   2.993   2.083   2.559 -0.4768  0.5662 -0.3695
10401TIP3   OH252617   2.760   6.355  10.885 -0.0906 -0.5703 -0.4721
10401TIP3    H152618   2.717   6.440  10.889  0.9606 -0.0264 -0.7745
10401TIP3    H252619   2.689   6.292  10.896 -0.7351  0.3635  0.8036
10402TIP3   OH252620   2.154   5.431   5.431  0.4401 -0.3350  0.3427
10402TIP3    H152621   2.114   5.510   5.467  1.1806  0.9667 -1.5675
10402TIP3    H252622   2.082   5.369   5.424 -0.3853  0.5468  0.8839
10403TIP3   OH252623   4.438   3.052   0.682  1.1212 -0.3902  0.0348
10403TIP3    H152624   4.427   3.120   0.616  0.3778  0.7687  1.3137
10403TIP3    H252625   4.367   3.068   0.745  1.8729 -1.3858  1.1661
10404TIP3   OH252626   3.176   1.433   4.974 -0.3672 -0.0776 -0.0307
10404TIP3    H152627   3.138   1.429   5.062 -0.8431  0.0594 -0.2271
10404TIP3    H252628   3.191   1.526   4.959 -1.2510 -0.0132 -0.5040
10405TIP3   OH252629   2.592   3.720  12.311  0.2816 -0.4117  0.1621
10405TIP3    H152630   2.540   3.712  12.231 -0.8460 -2.0883  1.0386
10405TIP3    H252631   2.547   3.787  12.362 -0.4826 -1.1602  0.4888
10406TIP3   OH252632   2.661   5.800   4.201  0.4489  0.5570 -0.0170
10406TIP3    H152633   2.714   5.771   4.275  0.1985 -0.3052 -0.1701
10406TIP3    H252634   2.720   5.798   4.126  0.1189 -0.7447 -0.2533
10407TIP3   OH252635   1.185   1.237  17.046  0.0804  0.2466  0.1244
10407TIP3    H152636   1.217   1.305  17.105 -0.3970 -1.2691  2.2043
10407TIP3    H252637   1.093   1.259  17.030 -0.1668 -0.0591  1.0666
10408TIP3   OH252638   3.935   5.234   4.190 -0.1481 -0.4605 -0.7423
10408TIP3    H152639   3.981   5.283   4.259  0.6289  0.3242 -1.7978
10408TIP3    H252640   3.854   5.204   4.232 -0.1847  0.9132  0.2110
10409TIP3   OH252641   1.876   6.035   4.633  0.2580 -0.0999  0.3541
10409TIP3    H152642   1.914   6.017   4.719  0.8426 -0.3813  0.0436
10409TIP3    H252643   1.948   6.072   4.582 -0.2434  0.6349  0.1678
10410TIP3   OH252644   4.509   2.916   4.382 -0.1670  0.4468  0.2375
10410TIP3    H152645   4.416   2.937   4.375 -0.0966  0.2733 -1.1928
10410TIP3    H252646   4.511   2.822   4.397 -0.2438  0.5540  0.9372
10411TIP3   OH252647   5.829   0.340   0.885  0.2665 -0.2107  0.0397
10411TIP3    H152648   5.850   0.250   0.861  0.7566  0.3235 -1.6349
10411TIP3    H252649   5.755   0.363   0.828  0.2887  0.5090  0.3014
10412TIP3   OH252650   4.893   4.980  13.584 -0.1312 -0.0690 -0.4536
10412TIP3    H152651   4.906   4.944  13.496  0.2855 -0.5154 -0.2148
10412TIP3    H252652   4.812   5.030  13.578 -0.1212 -0.1252 -1.0853
10413TIP3   OH252653   3.850   1.304   3.484  0.1787  0.1101 -0.0096
10413TIP3    H152654   3.892   1.384   3.513 -0.9340  1.1360 -1.1735
10413TIP3    H252655   3.920   1.253   3.442  1.0197  0.1628  1.3005
10414TIP3   OH252656   0.388   2.267   3.723 -0.0850  0.3827 -0.6880
10414TIP3    H152657   0.410   2.354   3.690  0.1882  0.9150  0.8280
10414TIP3    H252658   0.432   2.262   3.808 -1.3723 -0.6309 -0.0659
10415TIP3   OH252659   2.761   2.426  12.787 -0.2590  0.1564 -0.4598
10415TIP3    H152660   2.720   2.347  12.822 -0.0199 -0.0247 -0.5853
10415TIP3    H252661   2.733   2.496  12.846 -0.2669 -0.0623 -0.2035
10416TIP3   OH252662   4.891   5.163  15.498  0.2034 -0.4659 -0.1918
10416TIP3    H152663   4.863   5.081  15.457  1.0766 -0.7082 -0.2962
10416TIP3    H252664   4.922   5.137  15.585 -2.7922  0.1872  1.1511
10417TIP3   OH252665   4.543   4.782  11.846  0.4804  0.1518  0.4170
10417TIP3    H152666   4.507   4.866  11.872  0.4089 -0.2366  1.5952
10417TIP3    H252667   4.493   4.757  11.768 -1.2279  0.0250  1.5260
10418TIP3   OH252668   3.996   2.260   4.492  0.0455  0.2370  0.4881
10418TIP3    H152669   4.003   2.354   4.509  1.2403 -0.0841  1.9228
10418TIP3    H252670   4.072   2.240   4.438  0.5402 -0.1385  1.3175
10419TIP3   OH252671   5.643   5.324   4.525 -0.2546 -0.0027 -0.0339
10419TIP3    H152672   5.657   5.305   4.617  0.6419  0.4040 -0.0770
10419TIP3    H252673   5.637   5.420   4.521 -1.0202 -0.0588 -0.2981
10420TIP3   OH252674   4.406   3.943   0.355  0.1125  0.0813  0.4185
10420TIP3    H152675   4.339   3.901   0.408 -0.0869  0.6592  0.6309
10420TIP3    H252676   4.445   3.872   0.304 -0.8964 -0.2076  0.0338
10421TIP3   OH252677   1.766   0.153   0.118 -0.2658  0.2570  0.0375
10421TIP3    H152678   1.855   0.171   0.088  0.4128 -2.7244  0.1206
10421TIP3    H252679   1.775   0.076   0.173 -3.0921 -0.7719 -0.8755
10422TIP3   OH252680   4.457   4.718   5.871  0.2090  0.0224  0.1421
10422TIP3    H152681   4.518   4.769   5.924 -0.1778  0.4978  0.1249
10422TIP3    H252682   4.380   4.706   5.928  0.4061 -0.7828  0.2544
10423TIP3   OH252683   5.595   6.354   1.618 -0.1383 -0.1981 -0.5083
10423TIP3    H152684   5.682   6.366   1.656  0.2013  2.5192 -2.0196
10423TIP3    H252685   5.535   6.392   1.682  0.1494  1.3323 -1.1144
10424TIP3   OH252686   5.416   5.825  15.877  0.3766  0.0697 -0.1867
10424TIP3    H152687   5.485   5.814  15.943  3.3969  2.4557 -2.7673
10424TIP3    H252688   5.345   5.868  15.924  1.3755 -0.6965  2.1140
10425TIP3   OH252689   4.155   5.277   2.869  0.6805 -0.6127 -0.0597
10425TIP3    H152690   4.107   5.268   2.951 -0.1318  0.7765 -0.3756
10425TIP3    H252691   4.088   5.293   2.803  1.3540 -1.3929 -0.9473
10426TIP3   OH252692   1.872   4.506   1.763  0.7521  0.6414  0.2322
10426TIP3    H152693   1.800   4.565   1.784  1.0084  1.4088 -1.0168
10426TIP3    H252694   1.935   4.560   1.715 -0.4405 -1.3443 -3.7745
10427TIP3   OH252695   1.258   1.153   4.856  0.0722  0.5109 -0.4837
10427TIP3    H152696   1.162   1.155   4.856  0.0596  0.3293  0.8592
10427TIP3    H252697   1.281   1.092   4.925  1.1717  1.3153 -0.1187
10428TIP3   OH252698   6.083   5.386  12.309 -1.0231  0.1435 -0.3719
10428TIP3    H152699   6.029   5.322  12.354  0.6254 -0.3827  0.9007
10428TIP3    H252700   6.167   5.342  12.297  0.0463  1.9607  0.2909
10429TIP3   OH252701   4.301   4.564  14.428 -0.6344 -0.3586 -0.2396
10429TIP3    H152702   4.370   4.541  14.366  2.1535  2.5217  1.6608
10429TIP3    H252703   4.246   4.626  14.380  0.8564  0.9788 -0.2737
10430TIP3   OH252704   4.828   0.146  16.897  0.2849  0.1601 -0.1993
10430TIP3    H152705   4.737   0.165  16.873 -0.0469 -2.3979 -1.1187
10430TIP3    H252706   4.820   0.095  16.978  0.9914  1.2593  0.5702
10431TIP3   OH252707   2.713   6.542   4.948 -0.1210 -1.0148 -0.0723
10431TIP3    H152708   2.709   6.494   5.031 -0.5444  1.1885  1.2173
10431TIP3    H252709   2.664   6.623   4.964  2.5868  0.9746 -1.4550
10432TIP3   OH252710   5.284   0.156   3.427 -0.3300 -0.3329  0.4256
10432TIP3    H152711   5.262   0.148   3.334 -1.4611  2.9335  0.3762
10432TIP3    H252712   5.376   0.184   3.427 -1.2953  3.0987  0.1110
10433TIP3   OH252713   6.162   4.838  16.802  0.1057  0.0938  0.3459
10433TIP3    H152714   6.201   4.774  16.862  0.1484  0.8773  1.1761
10433TIP3    H252715   6.163   4.795  16.717  1.2017 -0.5678  0.6730
10434TIP3   OH252716   4.263   6.057   5.048  0.4538 -0.1184  0.2971
10434TIP3    H152717   4.179   6.033   5.088  0.0848  0.2933 -0.2209
10434TIP3    H252718   4.313   6.099   5.118 -1.3973  3.5046 -0.4145
10435TIP3   OH252719   1.262   3.984  11.946 -0.0959  0.0811 -0.3674
10435TIP3    H152720   1.249   4.070  11.986  1.1472 -0.5761  1.4997
10435TIP3    H252721   1.357   3.974  11.942 -0.2489 -1.5344  0.1300
10436TIP3   OH252722   3.813   2.865  13.996  0.1108  0.3308  0.0876
10436TIP3    H152723   3.825   2.775  13.965 -0.2816  0.4280 -0.3490
10436TIP3    H252724   3.846   2.919  13.925  2.1344  0.5230  1.1109
10437TIP3   OH252725   1.022   3.556  16.073 -0.2510 -0.1775 -0.0335
10437TIP3    H152726   0.963   3.487  16.101 -0.5831  0.7442  1.6007
10437TIP3    H252727   1.091   3.557  16.139 -1.3593  2.4294  1.1641
10438TIP3   OH252728   1.658   2.105  15.266  0.0923  0.3022 -0.0080
10438TIP3    H152729   1.593   2.167  15.231 -0.8982 -0.4391  0.4728
10438TIP3    H252730   1.731   2.109  15.204  1.4358  4.3168  1.7078
10439TIP3   OH252731   5.067   3.126   5.218 -0.0107  0.0450  0.1432
10439TIP3    H152732   5.160   3.117   5.197  0.2370 -0.3157  1.3514
10439TIP3    H252733   5.022   3.085   5.143  0.7098  2.2376 -1.5427
10440TIP3   OH252734   2.159   5.713  13.607  0.4870 -0.0160  0.5301
10440TIP3    H152735   2.242   5.720  13.653  1.1068 -0.0763 -0.5696
10440TIP3    H252736   2.093   5.719  13.676  1.4399 -2.6489  1.7223
10441TIP3   OH252737   3.801   3.717   6.004 -0.2656 -0.4506  0.1631
10441TIP3    H152738   3.786   3.625   6.026  0.9280 -0.3055  1.6684
10441TIP3    H252739   3.803   3.718   5.908 -0.5289 -1.9533  0.1180
10442TIP3   OH252740   3.507   5.011   5.032  0.2769  0.0314  0.4288
10442TIP3    H152741   3.548   4.940   5.083 -2.3290 -0.1578  2.3693
10442TIP3    H252742   3.529   5.091   5.080 -0.3101  0.0765  0.6342
10443TIP3   OH252743   1.439   4.039  17.093 -0.1923 -0.0901 -0.5007
10443TIP3    H152744   1.346   4.058  17.106 -0.3113  0.6695 -2.4461
10443TIP3    H252745   1.441   3.975  17.022  0.8470  1.0054 -1.4862
10444TIP3   OH252746   6.663   4.745   0.356  0.4350 -0.3299 -0.4621
10444TIP3    H152747   6.597   4.725   0.290  0.0276 -0.5177 -0.0039
10444TIP3    H252748   6.722   4.669   0.355  0.3410 -0.4020 -0.4989
10445TIP3   OH252749   1.611   4.901  13.586 -0.6534 -0.2643 -0.5599
10445TIP3    H152750   1.695   4.865  13.557 -0.5019 -0.0445 -0.3914
10445TIP3    H252751   1.623   4.996  13.584 -0.8707 -0.2340 -0.4541
10446TIP3   OH252752   2.906   2.539  16.804 -0.2184 -0.1260 -0.1104
10446TIP3    H152753   2.886   2.446  16.808  0.3821 -0.2606 -0.1676
10446TIP3    H252754   2.975   2.546  16.738 -0.5115  0.4034 -0.3687
10447TIP3   OH252755   1.361   1.991  14.683  0.1242 -0.5280  0.3708
10447TIP3    H152756   1.363   2.033  14.769  1.0692  0.5329 -0.1542
10447TIP3    H252757   1.270   1.966  14.670 -0.6956  2.4962  0.1638
10448TIP3   OH252758   3.387   3.178   2.879  0.0472  0.3387 -0.1877
10448TIP3    H152759   3.416   3.257   2.925 -1.1393  0.5449  0.2188
10448TIP3    H252760   3.325   3.210   2.814 -1.9251 -0.4305  1.2584
10449TIP3   OH252761   4.264   4.001   0.098  0.0582 -0.1949  0.2971
10449TIP3    H152762   4.291   4.001   0.006  1.0763 -0.7439  0.5894
10449TIP3    H252763   4.297   4.083   0.133 -1.2644  0.5108 -0.0893
10450TIP3   OH252764   6.306   1.953   2.597  0.0920 -0.0152  0.2037
10450TIP3    H152765   6.229   1.931   2.543 -0.5181  1.5469  0.4187
10450TIP3    H252766   6.376   1.899   2.561 -0.4814  0.4800 -1.7206
10451TIP3   OH252767   5.448   5.951   5.707  0.0996  0.1203 -0.0742
10451TIP3    H152768   5.356   5.964   5.728 -0.1707 -2.0152  0.1454
10451TIP3    H252769   5.486   5.912   5.785  1.3418  1.5786  0.0628
10452TIP3   OH252770   0.170   1.367  14.653 -0.5556  0.2759 -1.0690
10452TIP3    H152771   0.257   1.348  14.688 -1.1675  0.1197  0.4050
10452TIP3    H252772   0.162   1.462  14.658 -1.6925  0.0845  1.8817
10453TIP3   OH252773   2.978   0.042  14.715  0.1062  0.1985  0.5003
10453TIP3    H152774   3.023   0.063  14.797 -0.3465 -0.9432  1.0490
10453TIP3    H252775   3.046   0.006  14.659  0.0292 -0.8450  1.0710
10454TIP3   OH252776   5.889   1.284  14.606  0.7234  0.1342 -0.0505
10454TIP3    H152777   5.915   1.194  14.626 -1.8572 -0.6604 -0.0639
10454TIP3    H252778   5.893   1.289  14.511  3.5225  0.9130  0.0682
10455TIP3   OH252779   3.549   4.515   2.706  0.2237 -0.2708  0.7470
10455TIP3    H152780   3.616   4.541   2.769 -1.6146 -1.2105  3.1664
10455TIP3    H252781   3.480   4.581   2.715 -0.0649 -0.4065 -0.3179
10456TIP3   OH252782   3.356   3.292  16.914 -0.0369  0.1168  0.3691
10456TIP3    H152783   3.436   3.249  16.883 -0.3473 -1.4240  1.6038
10456TIP3    H252784   3.350   3.267  17.006 -1.9453  0.1722  0.2910
10457TIP3   OH252785   5.034   3.482  13.829  0.1762 -0.5248  0.3610
10457TIP3    H152786   4.954   3.514  13.787  0.7340 -0.0547 -0.3599
10457TIP3    H252787   5.103   3.499  13.764  0.7999 -1.2545  0.8326
10458TIP3   OH252788   6.098   4.441  16.734  0.0382 -0.1224 -0.0453
10458TIP3    H152789   6.106   4.524  16.782  0.1598  0.4811 -1.0935
10458TIP3    H252790   6.187   4.419  16.710 -0.0553 -0.2678 -0.2565
10459TIP3   OH252791   5.202   6.410   1.111  0.2720  0.6031  0.2389
10459TIP3    H152792   5.264   6.350   1.152 -0.5249 -1.5444 -1.6144
10459TIP3    H252793   5.117   6.385   1.147 -0.2584 -0.3914 -1.6617
10460TIP3   OH252794   0.690   5.141  12.312 -0.1037  0.0833 -0.0776
10460TIP3    H152795   0.695   5.194  12.392  0.4458  0.9112 -0.6455
10460TIP3    H252796   0.726   5.198  12.243 -1.3542 -0.3082 -1.0696
10461TIP3   OH252797   5.140   1.296   0.126  0.2422 -0.7076  0.7378
10461TIP3    H152798   5.152   1.338   0.041 -0.8747 -1.0750  0.3794
10461TIP3    H252799   5.057   1.330   0.158 -0.1108 -1.7525  0.9665
10462TIP3   OH252800   2.537   3.578  13.016 -0.4618 -0.0940 -0.3113
10462TIP3    H152801   2.469   3.524  12.977 -0.3440  0.4941 -1.3454
10462TIP3    H252802   2.602   3.515  13.048 -1.3048 -0.6377  0.3462
10463TIP3   OH252803   6.325   2.692  13.823 -0.0105  0.8219 -0.1454
10463TIP3    H152804   6.237   2.732  13.819 -0.0204  0.6973 -1.8368
10463TIP3    H252805   6.382   2.763  13.851 -0.3663  1.4524 -0.9832
10464TIP3   OH252806   3.510   1.892  16.065  0.2196  0.0106 -0.4334
10464TIP3    H152807   3.469   1.973  16.036  1.9148  0.2093 -2.3705
10464TIP3    H252808   3.577   1.919  16.128  1.5086  0.2465 -1.8724
10465TIP3   OH252809   3.397   4.310  12.156 -0.5230  0.7264 -0.5598
10465TIP3    H152810   3.448   4.253  12.098  0.9564  0.3708  1.0801
10465TIP3    H252811   3.427   4.399  12.135 -1.7203  0.8269 -2.0064
10466TIP3   OH252812   2.986   6.103  14.806 -0.0551 -0.0469  0.2961
10466TIP3    H152813   3.038   6.166  14.755  0.8396 -1.4221 -0.5101
10466TIP3    H252814   3.028   6.103  14.892 -0.7085  1.2328  0.6348
10467TIP3   OH252815   3.177   3.825  13.831  0.0228 -0.0794 -0.0636
10467TIP3    H152816   3.152   3.905  13.784 -0.1699 -0.5295 -0.7267
10467TIP3    H252817   3.094   3.788  13.860  0.0937 -0.1988 -0.0153
10468TIP3   OH252818   2.106   5.603   0.406  0.7273  0.4646 -0.0463
10468TIP3    H152819   2.175   5.658   0.369  0.6617  0.0330 -0.7978
10468TIP3    H252820   2.102   5.630   0.498  1.4371  0.9592 -0.1553
10469TIP3   OH252821   1.142   1.205   2.137 -0.2591  0.4185 -0.3214
10469TIP3    H152822   1.185   1.255   2.068 -0.1909 -1.2426 -1.5162
10469TIP3    H252823   1.062   1.172   2.096  0.0258 -0.9825  0.2400
10470TIP3   OH252824   1.051   4.800  13.201  0.5145 -0.2019  0.1339
10470TIP3    H152825   0.975   4.851  13.228 -1.3069 -1.2468 -2.7654
10470TIP3    H252826   1.126   4.857  13.220 -1.1201  1.7227  1.0396
10471TIP3   OH252827   3.293   5.828  11.898 -0.1524 -0.3905 -0.1068
10471TIP3    H152828   3.322   5.862  11.982  1.9002 -0.2005 -0.8577
10471TIP3    H252829   3.322   5.893  11.834 -0.0933 -1.3870 -1.1181
10472TIP3   OH252830   4.761   3.874  16.989 -0.0476 -0.3730 -0.1055
10472TIP3    H152831   4.849   3.852  17.019 -1.3218 -2.7659  2.1498
10472TIP3    H252832   4.723   3.924  17.061 -1.3322 -1.4802  0.0043
10473TIP3   OH252833   3.482   5.758   5.840  0.4043 -0.2070 -0.2196
10473TIP3    H152834   3.522   5.699   5.776  2.5858  1.6845 -0.6681
10473TIP3    H252835   3.550   5.772   5.905 -0.8226  0.1599  1.0029
10474TIP3   OH252836   3.343   5.194  13.742 -0.2164 -0.8362  0.0165
10474TIP3    H152837   3.403   5.147  13.800 -0.4930 -2.5391 -1.0250
10474TIP3    H252838   3.391   5.202  13.660 -0.9147 -1.0527 -0.4188
10475TIP3   OH252839   4.066   4.662   5.720  0.0194  0.1286 -0.4408
10475TIP3    H152840   4.091   4.611   5.643  0.4070  1.5314 -1.2615
10475TIP3    H252841   4.115   4.622   5.792  0.7726 -0.2697 -1.1701
10476TIP3   OH252842   1.840   1.123   3.637  0.3185  0.0201  0.8538
10476TIP3    H152843   1.878   1.211   3.637 -0.4053  0.3457 -0.2819
10476TIP3    H252844   1.835   1.099   3.544  0.3795 -1.1742  1.1389
10477TIP3   OH252845   0.858   2.902   4.754 -0.0012 -0.3430 -0.3323
10477TIP3    H152846   0.790   2.838   4.772 -0.2721  0.2442  0.8120
10477TIP3    H252847   0.940   2.852   4.759 -0.0899 -0.3332  2.1918
10478TIP3   OH252848   3.592   0.777  13.591  0.2271  0.2103 -1.0939
10478TIP3    H152849   3.525   0.710  13.603 -0.1046  0.5674 -0.9543
10478TIP3    H252850   3.563   0.828  13.516  0.5068  0.1692 -1.2317
10479TIP3   OH252851   4.307   1.833   4.936 -0.4893  0.5503  0.2633
10479TIP3    H152852   4.254   1.757   4.963  1.1752 -1.1776 -1.2661
10479TIP3    H252853   4.284   1.847   4.845 -0.6989  1.8343  0.5080
10480TIP3   OH252854   5.553   3.382  16.883  0.2672  0.4492  0.5887
10480TIP3    H152855   5.620   3.352  16.945 -0.6009 -0.3859  1.1335
10480TIP3    H252856   5.473   3.385  16.935  0.0718  2.4989  0.2187
10481TIP3   OH252857   4.823   0.592  12.915  0.7836 -0.5928  0.0714
10481TIP3    H152858   4.859   0.664  12.967 -0.6336  0.8138 -0.8198
10481TIP3    H252859   4.757   0.553  12.972  0.4554 -0.1656 -0.0081
10482TIP3   OH252860   6.317   6.541  10.824  0.2221 -0.9560  0.0682
10482TIP3    H152861   6.353   6.627  10.804  1.1680 -2.0664 -3.3158
10482TIP3    H252862   6.222   6.553  10.818  0.3128  0.0235  0.4933
10483TIP3   OH252863   6.420   3.986  14.640 -0.2017 -0.2368  0.4769
10483TIP3    H152864   6.380   3.902  14.621  0.5925 -0.3198 -0.9467
10483TIP3    H252865   6.427   3.989  14.735  0.7600 -2.2555  0.4980
10484TIP3   OH252866   6.453   3.203  13.811  0.1266 -0.0232  0.3199
10484TIP3    H152867   6.463   3.153  13.891  0.7103  0.3851  0.5055
10484TIP3    H252868   6.524   3.267  13.814  0.0733  0.0769 -0.4547
10485TIP3   OH252869   1.137   6.526   1.172  0.6827 -0.2390  0.2871
10485TIP3    H152870   1.095   6.603   1.135 -1.9313 -1.2482  1.0469
10485TIP3    H252871   1.208   6.505   1.111 -0.2527  1.1770 -1.3272
10486TIP3   OH252872   0.245   2.628  15.305  0.4459  0.3802 -0.1595
10486TIP3    H152873   0.327   2.671  15.331  0.4731  0.2633 -0.0501
10486TIP3    H252874   0.273   2.557  15.247  0.5494 -0.6377  1.1077
10487TIP3   OH252875   1.874   1.448   1.613 -0.4361  0.2482  0.3161
10487TIP3    H152876   1.949   1.467   1.669  0.3108 -0.4177 -0.4505
10487TIP3    H252877   1.897   1.485   1.528 -0.5006 -0.9111 -0.2187
10488TIP3   OH252878   6.291   6.231  13.700 -0.3055 -0.4683 -0.2220
10488TIP3    H152879   6.220   6.248  13.763 -0.2572  1.5224 -0.6778
10488TIP3    H252880   6.371   6.251  13.749 -0.1631 -0.7403 -0.3439
10489TIP3   OH252881   3.855   0.577   1.790  0.5688 -0.0475 -0.3235
10489TIP3    H152882   3.824   0.659   1.751 -2.8380 -1.8161 -1.6065
10489TIP3    H252883   3.935   0.556   1.742  0.9395  2.0190 -0.6404
10490TIP3   OH252884   4.350   0.338   0.249 -0.4123 -0.2843 -0.6329
10490TIP3    H152885   4.368   0.430   0.229  0.0053  0.0622  1.2725
10490TIP3    H252886   4.354   0.294   0.164 -2.1278  1.6997 -1.7709
10491TIP3   OH252887   5.988   4.974   5.192  0.2886  0.2489  0.3589
10491TIP3    H152888   5.986   4.926   5.275 -0.8993  0.0784  0.2459
10491TIP3    H252889   5.972   5.065   5.217 -0.6319  0.1204  0.2833
10492TIP3   OH252890   4.085   4.582  12.971 -0.2236 -0.0408 -0.6169
10492TIP3    H152891   4.102   4.495  13.007  0.2291 -0.8697 -2.7837
10492TIP3    H252892   4.131   4.642  13.030  0.8347 -1.3914 -0.0558
10493TIP3   OH252893   0.217   2.736  11.703 -0.2715  0.0865 -0.3056
10493TIP3    H152894   0.213   2.721  11.798 -0.9432  2.4044  0.0511
10493TIP3    H252895   0.229   2.831  11.694  0.3528 -0.1815 -2.5364
10494TIP3   OH252896   1.282   4.913  15.760  0.0540  0.0705  0.2027
10494TIP3    H152897   1.337   4.836  15.776  1.6010  1.0182 -0.4193
10494TIP3    H252898   1.250   4.902  15.670 -0.9290 -0.5690  0.6253
10495TIP3   OH252899   2.836   6.541  14.037  0.5661  0.3348 -0.3984
10495TIP3    H152900   2.756   6.589  14.059  0.8331  0.8061 -0.4629
10495TIP3    H252901   2.809   6.449  14.037 -0.5537  0.6297 -2.8639
10496TIP3   OH252902   4.770   2.198  11.232  0.6548  0.1635 -0.2412
10496TIP3    H152903   4.818   2.202  11.150  0.3003 -1.0068 -0.5218
10496TIP3    H252904   4.763   2.289  11.261 -0.5720  0.7445 -2.2873
10497TIP3   OH252905   4.487   4.664   3.417  0.1281  0.8241 -0.2058
10497TIP3    H152906   4.422   4.701   3.357  0.1917  1.4090  0.0802
10497TIP3    H252907   4.546   4.737   3.436  1.0642  0.2077 -0.7196
10498TIP3   OH252908   0.022   5.921   0.467 -0.4521 -0.3525 -0.6238
10498TIP3    H152909  -0.065   5.889   0.490 -1.0012  0.1874 -1.8659
10498TIP3    H252910   0.012   6.016   0.462  0.3533 -0.2446 -0.1895
10499TIP3   OH252911   3.093   1.900  11.148  0.0834  0.3762  0.6086
10499TIP3    H152912   3.078   1.880  11.056 -0.7523  0.4911  0.7151
10499TIP3    H252913   3.168   1.961  11.148 -1.2139  2.0007 -0.1469
10500TIP3   OH252914   1.893   4.750  12.788 -0.5285  0.0648 -0.0335
10500TIP3    H152915   1.817   4.767  12.732 -0.0433 -0.2328 -0.7892
10500TIP3    H252916   1.952   4.698  12.733 -0.7022 -1.5302  1.2332
10501TIP3   OH252917   1.384   6.361  15.991  0.5406 -0.0888 -0.6307
10501TIP3    H152918   1.297   6.324  16.005 -0.1199  2.1864  1.7316
10501TIP3    H252919   1.444   6.295  16.024 -0.5251  0.0811  1.7513
10502TIP3   OH252920   1.105   2.776   0.006 -0.1382 -0.2603 -0.1129
10502TIP3    H152921   1.192   2.757  -0.029 -0.2684 -1.8841  0.3896
10502TIP3    H252922   1.047   2.770  -0.070  0.2109  1.0195 -0.4879
10503TIP3   OH252923   6.332   0.960   2.372 -0.3736  0.5463 -0.4210
10503TIP3    H152924   6.300   1.046   2.344  0.0580  0.8899  0.1235
10503TIP3    H252925   6.253   0.911   2.395 -0.5617  1.1422  0.2314
10504TIP3   OH252926   4.053   1.660  14.236 -0.1645 -0.6087 -0.1023
10504TIP3    H152927   4.019   1.741  14.274  2.1544  1.1774 -1.6640
10504TIP3    H252928   4.082   1.609  14.311 -0.9805  0.3442  0.8732
10505TIP3   OH252929   0.495   6.047  13.591 -0.9940  0.5378  0.1370
10505TIP3    H152930   0.561   6.048  13.661  0.2551  1.2640 -1.0199
10505TIP3    H252931   0.412   6.032  13.637 -0.0523 -0.3024  1.6354
10506TIP3   OH252932   2.715   0.877   4.389 -0.5336  0.0467  0.0192
10506TIP3    H152933   2.730   0.929   4.310  0.3821  0.0056  0.1560
10506TIP3    H252934   2.803   0.862   4.425 -1.0310  1.4000  1.9171
10507TIP3   OH252935   1.256   2.424  16.824 -0.0464  0.1372 -0.2420
10507TIP3    H152936   1.293   2.395  16.740 -1.3813  1.0236 -1.1430
10507TIP3    H252937   1.218   2.509  16.805 -1.1811 -0.0781  1.0470
10508TIP3   OH252938   4.078   1.887  13.279 -0.4363  0.0430 -0.4533
10508TIP3    H152939   4.126   1.960  13.240  1.8297 -1.6028 -0.8199
10508TIP3    H252940   4.003   1.875  13.222  0.8668  0.0509 -2.2145
10509TIP3   OH252941   3.274   0.588  13.893 -0.0224  0.5982 -0.0616
10509TIP3    H152942   3.217   0.622  13.824 -0.5070  1.2797  0.6745
10509TIP3    H252943   3.351   0.646  13.891  0.6984 -0.3547 -1.0909
10510TIP3   OH252944   3.595   4.189   3.298  0.0093  0.0187  0.2030
10510TIP3    H152945   3.672   4.204   3.242  0.7702 -0.1411  1.1934
10510TIP3    H252946   3.611   4.243   3.375 -0.8749 -0.0215  0.4144
10511TIP3   OH252947   4.633   2.036   1.842 -0.0005 -0.2389  0.0524
10511TIP3    H152948   4.687   2.113   1.820 -2.3694  1.4065 -0.1994
10511TIP3    H252949   4.654   1.972   1.775  0.6461  0.8833 -0.8376
10512TIP3   OH252950   2.360   5.342   5.251  0.3441  0.1543  0.7617
10512TIP3    H152951   2.312   5.385   5.322  0.0396 -1.5504  1.6086
10512TIP3    H252952   2.420   5.409   5.219 -0.0528  1.1825  2.1143
10513TIP3   OH252953   2.763   1.719   1.348 -0.0779  0.1957 -0.4616
10513TIP3    H152954   2.766   1.688   1.438  0.0142 -1.3972 -0.9998
10513TIP3    H252955   2.700   1.792   1.350  0.1291  0.3448  0.9251
10514TIP3   OH252956   6.237   4.914   3.982  0.1186  0.2656  0.0412
10514TIP3    H152957   6.305   4.891   3.919  1.4010 -1.5592  2.0063
10514TIP3    H252958   6.199   4.830   4.008 -2.9722  1.2582 -1.0715
10515TIP3   OH252959   0.395   4.082  14.176  0.3428  1.0245 -0.7539
10515TIP3    H152960   0.315   4.050  14.217  1.3003 -1.0250 -0.4403
10515TIP3    H252961   0.400   4.035  14.093  2.7365 -1.1134  0.5439
10516TIP3   OH252962   1.676   2.982   3.707  0.2467  0.1662 -0.0477
10516TIP3    H152963   1.603   3.043   3.718  0.1888 -0.0012  0.5411
10516TIP3    H252964   1.748   3.023   3.754  0.9183  0.9624 -1.7190
10517TIP3   OH252965   3.332   0.499  10.907 -0.3189 -0.0563 -0.1246
10517TIP3    H152966   3.304   0.433  10.844 -0.9607 -0.6225  0.7445
10517TIP3    H252967   3.378   0.450  10.975  1.0368  0.6379 -0.5209
10518TIP3   OH252968   2.309   0.061  16.812  0.3749 -0.5734 -0.0680
10518TIP3    H152969   2.396   0.067  16.772 -0.0486  0.1187 -0.8886
10518TIP3    H252970   2.312   0.125  16.883  0.4623 -0.4029 -0.2254
10519TIP3   OH252971   5.001   0.022   3.358  0.6962 -0.7145  0.5675
10519TIP3    H152972   5.086   0.061   3.377  2.0020 -2.9423 -0.3996
10519TIP3    H252973   5.022  -0.068   3.331 -2.0776 -1.7515  1.6952
10520TIP3   OH252974   0.720   1.318   1.990  0.9204 -0.8262  0.0490
10520TIP3    H152975   0.662   1.385   1.953  1.1161 -0.6359  0.0908
10520TIP3    H252976   0.737   1.347   2.079  0.5218 -1.2416  0.2622
10521TIP3   OH252977   4.088   4.430   6.574 -0.0488 -0.0411  0.2688
10521TIP3    H152978   4.065   4.426   6.481  0.9089 -0.4341  0.0455
10521TIP3    H252979   4.008   4.461   6.617 -0.2577  0.9376 -0.7837
10522TIP3   OH252980   0.307   5.477   5.849  0.5365 -0.3231  0.1939
10522TIP3    H152981   0.371   5.414   5.817  0.8659 -0.4520  1.0895
10522TIP3    H252982   0.321   5.555   5.797  0.4037 -0.8484 -0.6436
10523TIP3   OH252983   2.434   2.458  17.181 -0.2445  0.3094  0.0838
10523TIP3    H152984   2.444   2.508  17.100  0.5718  2.7207  1.6075
10523TIP3    H252985   2.343   2.471  17.207 -0.4887 -0.4107 -0.4022
10524TIP3   OH252986   0.356   5.104  14.362  0.5369  0.2982 -0.9790
10524TIP3    H152987   0.323   5.185  14.399 -1.1604 -0.5423 -0.5890
10524TIP3    H252988   0.414   5.131  14.290 -0.0720  1.8301 -0.8968
10525TIP3   OH252989   0.325   0.787   1.299 -0.1789 -0.2717  1.0011
10525TIP3    H152990   0.365   0.874   1.288 -0.3094 -0.5561 -1.9957
10525TIP3    H252991   0.364   0.754   1.380 -0.0331  2.5123  2.1388
10526TIP3   OH252992   5.459   5.306   4.121  0.1373  0.1730 -0.6990
10526TIP3    H152993   5.407   5.256   4.058 -0.1561 -1.5952  0.8813
10526TIP3    H252994   5.403   5.379   4.145 -0.1893  0.2464 -1.6664
10527TIP3   OH252995   5.928   0.515  12.395  0.2318 -0.0820 -0.5180
10527TIP3    H152996   5.930   0.489  12.487  1.5399  1.9878  0.0679
10527TIP3    H252997   5.836   0.535  12.377 -0.3191 -2.2305 -0.1868
10528TIP3   OH252998   2.085   1.739   1.429 -0.3581  0.2413  0.2613
10528TIP3    H152999   2.176   1.764   1.445 -0.5599  0.1514  1.6038
10528TIP3    H253000   2.089   1.683   1.352  0.8356 -0.4336  0.8015
10529TIP3   OH253001   1.936   4.170   5.074  0.0496 -0.2791  0.0582
10529TIP3    H153002   1.901   4.092   5.030 -0.1292 -0.9386  1.3285
10529TIP3    H253003   1.882   4.179   5.153 -1.6065  2.6463 -1.3154
10530TIP3   OH253004   1.703   0.831   1.954 -0.3597  0.4007 -1.1557
10530TIP3    H153005   1.698   0.926   1.960  0.0920  0.3506  0.4573
10530TIP3    H253006   1.625   0.800   2.000 -0.0498 -0.0157 -0.9049
10531TIP3   OH253007   5.406   3.507   4.370 -0.1380 -0.0913  0.0124
10531TIP3    H153008   5.358   3.442   4.422 -0.8136  0.2744 -0.1432
10531TIP3    H253009   5.337   3.564   4.335  0.6495  3.0341  3.2401
10532TIP3   OH253010   2.693   0.150   4.187  0.8081  0.7006  0.5534
10532TIP3    H153011   2.735   0.187   4.110  0.4056  0.9953  0.4756
10532TIP3    H253012   2.730   0.062   4.195  0.5568  0.5326 -0.1906
10533TIP3   OH253013   0.533   0.855  15.614 -0.1508  0.2779 -0.0315
10533TIP3    H153014   0.575   0.782  15.660 -0.0887 -0.3426 -1.0750
10533TIP3    H253015   0.543   0.929  15.674  3.2476  0.3904 -0.6611
10534TIP3   OH253016   3.030   0.110   2.939 -0.4078  0.2198 -0.4832
10534TIP3    H153017   3.049   0.103   3.033 -1.1466 -1.4410 -0.4482
10534TIP3    H253018   3.048   0.202   2.918 -0.0319  0.5560  1.2384
10535TIP3   OH253019   1.612   3.630  15.728  0.3299 -0.6211 -0.1309
10535TIP3    H153020   1.518   3.647  15.714  0.4121  0.5543  0.6222
10535TIP3    H253021   1.656   3.705  15.688  0.8594 -0.4116  0.8292
10536TIP3   OH253022   5.120   4.787  15.398 -0.0888 -0.1546  0.5434
10536TIP3    H153023   5.097   4.831  15.480  0.0268  1.2833 -0.1642
10536TIP3    H253024   5.083   4.700  15.406 -0.8404  0.2604  1.7684
10537TIP3   OH253025   5.607   3.630   2.895  0.2224 -0.4981  0.1038
10537TIP3    H153026   5.633   3.630   2.988 -0.9782 -1.7157  0.4666
10537TIP3    H253027   5.517   3.664   2.896  1.2059  2.2164 -0.9554
10538TIP3   OH253028   4.668   3.309  12.741 -0.3324 -0.0289 -0.1653
10538TIP3    H153029   4.604   3.371  12.705 -0.2747 -0.0782 -0.3534
10538TIP3    H253030   4.715   3.275  12.664 -0.0279  0.0656 -0.0248
10539TIP3   OH253031   4.976   0.931   1.606 -0.3229  0.4159 -0.4393
10539TIP3    H153032   5.031   0.884   1.544 -1.8098 -0.8290 -0.8388
10539TIP3    H253033   5.034   0.949   1.681  0.7056 -0.5470 -0.9944
10540TIP3   OH253034   1.059   1.844   4.842 -0.1891  0.5045  0.8443
10540TIP3    H153035   1.072   1.904   4.768 -1.2789  2.1386  1.9562
10540TIP3    H253036   1.130   1.866   4.903 -0.1431  0.1239  0.9295
10541TIP3   OH253037   5.608   0.146  17.003 -0.1454 -0.0564 -0.5091
10541TIP3    H153038   5.524   0.139  17.049 -0.1912  0.5691 -0.5034
10541TIP3    H253039   5.591   0.206  16.931  0.3989  0.3751 -0.2784
10542TIP3   OH253040   1.322   3.226  12.075  0.2578  0.0887 -0.6264
10542TIP3    H153041   1.246   3.176  12.044 -1.8834  3.3381 -0.9464
10542TIP3    H253042   1.316   3.221  12.171 -0.3490  0.2825 -0.6520
10543TIP3   OH253043   5.266   6.580   0.155  0.5634 -0.4869  0.1823
10543TIP3    H153044   5.346   6.582   0.103 -0.2368 -0.1244 -1.0585
10543TIP3    H253045   5.290   6.623   0.237  1.3087  0.7869 -0.6737
10544TIP3   OH253046   4.864   2.544   5.827 -0.0346  0.2851  0.1370
10544TIP3    H153047   4.772   2.572   5.822 -0.3073 -0.3500  1.4026
10544TIP3    H253048   4.906   2.609   5.883  0.0842  0.0392  0.3307
10545TIP3   OH253049   2.645   0.669  11.099  0.6906 -0.1393  0.0960
10545TIP3    H153050   2.558   0.664  11.060 -0.4962 -1.2986  2.7559
10545TIP3    H253051   2.703   0.632  11.033 -1.0508 -0.8294 -1.0902
10546TIP3   OH253052   4.891   4.906   0.391 -0.5432 -0.1682 -0.4452
10546TIP3    H153053   4.869   4.827   0.340 -0.8058 -0.1174 -0.4110
10546TIP3    H253054   4.905   4.973   0.324 -0.2993 -0.2497 -0.4753
10547TIP3   OH253055   0.785   3.773  15.939  0.0743 -0.4363  0.0320
10547TIP3    H153056   0.716   3.708  15.927  0.2657 -0.7080  0.3916
10547TIP3    H253057   0.859   3.723  15.974  0.1120  0.0298  0.6352
10548TIP3   OH253058   2.499   5.577  11.730  0.2054  0.0801  0.4712
10548TIP3    H153059   2.436   5.585  11.659  0.0163 -1.2649  0.4678
10548TIP3    H253060   2.576   5.539  11.690  1.3038  2.4110  0.3301
10549TIP3   OH253061   6.342   3.665  11.564  0.6633 -0.8321  0.1044
10549TIP3    H153062   6.404   3.737  11.561  0.7551 -0.9254 -0.3508
10549TIP3    H253063   6.273   3.691  11.503  0.5442 -0.9897  0.1722
10550TIP3   OH253064   0.046   0.829   3.924 -0.9364 -0.3306 -0.0405
10550TIP3    H153065   0.099   0.762   3.968  0.4687  1.3078  0.7993
10550TIP3    H253066  -0.029   0.841   3.982 -0.8297 -0.6498  0.1691
10551TIP3   OH253067   1.773   0.932  13.449 -0.5486  0.2328 -0.1521
10551TIP3    H153068   1.787   1.000  13.383  2.3348  1.4419  1.5856
10551TIP3    H253069   1.832   0.861  13.423 -1.6356 -0.5545 -0.5135
10552TIP3   OH253070   4.485   1.768  14.617  0.6239 -0.1219 -0.2892
10552TIP3    H153071   4.576   1.782  14.592  1.4519  2.7359  3.8005
10552TIP3    H253072   4.437   1.838  14.572  1.3912  2.0570  2.1949
10553TIP3   OH253073   4.882   0.987   3.554  0.2133 -0.0880 -0.1052
10553TIP3    H153074   4.861   0.970   3.646 -0.9484  0.0808 -0.3408
10553TIP3    H253075   4.876   0.902   3.511 -3.8363  0.5400 -0.9288
10554TIP3   OH253076   4.658   4.779   1.429  0.4640  0.0101 -0.1387
10554TIP3    H153077   4.688   4.854   1.481 -0.9368 -0.0040  0.7187
10554TIP3    H253078   4.601   4.730   1.488  2.1397 -2.2934 -0.3647
10555TIP3   OH253079   0.470   3.276  13.520  0.2433  0.0244 -0.2570
10555TIP3    H153080   0.427   3.191  13.513 -0.3144  0.2901 -0.0795
10555TIP3    H253081   0.549   3.267  13.466  0.7911 -0.9843  0.6925
10556TIP3   OH253082   6.269   1.670  13.648  0.6558 -0.3349  0.2580
10556TIP3    H153083   6.259   1.738  13.582 -0.3448 -0.4638  0.2716
10556TIP3    H253084   6.255   1.714  13.732 -2.3077 -0.9811  0.1488
10557TIP3   OH253085   3.893   1.683   2.339  0.5771 -0.1769  0.1474
10557TIP3    H153086   3.821   1.627   2.306 -0.0632  1.1471 -0.7598
10557TIP3    H253087   3.929   1.635   2.413 -1.5039 -0.7052  0.8498
10558TIP3   OH253088   1.277   5.354  15.737 -0.4312  0.0524 -0.0982
10558TIP3    H153089   1.312   5.305  15.811  1.9261 -1.3599 -2.0951
10558TIP3    H253090   1.186   5.324  15.729  0.1367 -1.8551  0.4917
10559TIP3   OH253091   3.731   2.809   6.094 -0.1622  0.4070 -0.0373
10559TIP3    H153092   3.790   2.864   6.043 -0.0568  0.7021  0.3997
10559TIP3    H253093   3.788   2.745   6.136 -0.1407  0.7540  0.4635
10560TIP3   OH253094   6.626   6.610  11.834 -0.4040 -0.1901  0.1402
10560TIP3    H153095   6.614   6.516  11.822  3.1944 -0.5038 -1.7228
10560TIP3    H253096   6.699   6.616  11.896 -0.7441  1.4136  0.3962
10561TIP3   OH253097   5.078   2.043   0.801 -0.1018 -0.1166  0.2957
10561TIP3    H153098   4.987   2.055   0.828 -0.4248  0.4112 -0.9807
10561TIP3    H253099   5.130   2.085   0.869 -0.8830  0.9402  0.2476
10562TIP3   OH253100   6.342   2.168   2.768 -0.3343 -0.4554 -0.2134
10562TIP3    H153101   6.357   2.249   2.718 -1.7905 -0.0342 -0.0044
10562TIP3    H253102   6.314   2.104   2.702  0.7105 -0.7516 -0.3639
10563TIP3   OH253103   1.735   3.840  14.080  0.0040  0.3202  0.4403
10563TIP3    H153104   1.718   3.746  14.069 -1.4360  0.3266  2.4609
10563TIP3    H253105   1.652   3.882  14.056 -0.1499  0.9099  1.9923
10564TIP3   OH253106   1.549   3.368   3.675 -0.4388  0.1516 -0.0320
10564TIP3    H153107   1.567   3.396   3.765 -1.1551  1.5942 -0.3133
10564TIP3    H253108   1.513   3.280   3.684 -1.7695  0.7907  1.2301
10565TIP3   OH253109   3.344   1.979  12.231 -0.5506  0.3831 -0.0213
10565TIP3    H153110   3.345   1.891  12.270 -1.3872 -0.2783 -1.4620
10565TIP3    H253111   3.436   1.997  12.211 -0.4003 -0.2518  0.0778
10566TIP3   OH253112   0.570   1.148  16.342 -0.3281  0.4311 -0.0204
10566TIP3    H153113   0.611   1.124  16.425  2.1282  1.2412 -0.9726
10566TIP3    H253114   0.629   1.212  16.303 -0.5653 -1.1658 -3.1709
10567TIP3   OH253115   3.236   1.275  14.499 -0.4480 -0.1194 -0.3924
10567TIP3    H153116   3.223   1.226  14.580 -0.3492  1.1207  0.3813
10567TIP3    H253117   3.305   1.227  14.453  1.3454  0.6102  1.4366
10568TIP3   OH253118   3.866   0.719  12.226  0.7143 -0.2487 -0.3919
10568TIP3    H153119   3.961   0.721  12.239  0.4761 -0.4218  1.5018
10568TIP3    H253120   3.836   0.645  12.279 -0.6192  0.5151 -0.0694
10569TIP3   OH253121   3.353   0.928   4.332  0.1893 -0.0340 -0.0118
10569TIP3    H153122   3.423   0.946   4.269  0.8501  0.5316  0.8705
10569TIP3    H253123   3.312   0.848   4.300  0.6226  0.1623 -1.0709
10570TIP3   OH253124   2.292   5.266   4.183 -0.2733 -0.3000  0.0218
10570TIP3    H153125   2.335   5.290   4.101 -0.8540 -2.6222 -0.9868
10570TIP3    H253126   2.214   5.218   4.156 -1.8171  1.0766  1.9033
10571TIP3   OH253127   4.457   1.179  16.424 -0.2125  0.4770  0.0985
10571TIP3    H153128   4.529   1.176  16.361 -0.8628 -0.0729 -0.6329
10571TIP3    H253129   4.487   1.240  16.491  1.2888 -0.3898  0.2426
10572TIP3   OH253130   5.155   2.152  13.670  1.0694 -0.1061 -0.1985
10572TIP3    H153131   5.246   2.122  13.669  2.5899  4.0616  1.5145
10572TIP3    H253132   5.121   2.122  13.754  1.8611  0.9003  0.4986
10573TIP3   OH253133   2.094   1.504  15.250 -0.1407  0.1307 -0.1127
10573TIP3    H153134   2.031   1.437  15.274  2.3189 -1.2927  2.6270
10573TIP3    H253135   2.132   1.473  15.168 -0.9400 -0.4113 -0.2860
10574TIP3   OH253136   5.709   1.086   3.747 -0.4374 -0.1463  0.6160
10574TIP3    H153137   5.723   1.163   3.691 -1.3299  0.8406  1.7259
10574TIP3    H253138   5.627   1.104   3.792 -1.0514 -2.1143  0.3264
10575TIP3   OH253139   6.339   4.072   1.923  0.1767 -0.1111 -0.2843
10575TIP3    H153140   6.353   4.029   1.839 -1.6981  1.1450 -1.2653
10575TIP3    H253141   6.387   4.155   1.915  0.9295 -0.4887  0.3092
10576TIP3   OH253142   5.445   2.541   1.558  0.6266 -0.0267 -0.6681
10576TIP3    H153143   5.377   2.592   1.515 -0.5014 -0.2381  0.8385
10576TIP3    H253144   5.506   2.518   1.488  0.0402  1.5967 -1.7255
10577TIP3   OH253145   4.142   5.116  13.925 -0.0147  0.1535  0.7664
10577TIP3    H153146   4.158   5.048  13.860  1.2389 -1.6204  2.8505
10577TIP3    H253147   4.182   5.195  13.889  0.0858 -0.6433 -0.8864
10578TIP3   OH253148   6.390   3.986   3.302 -0.0971 -0.3693 -0.0989
10578TIP3    H153149   6.441   3.923   3.352  0.8100  1.7876  1.8095
10578TIP3    H253150   6.455   4.045   3.265 -1.0626  1.4175  0.9567
10579TIP3   OH253151   6.733   4.954   4.746 -0.5773  0.0902 -1.0107
10579TIP3    H153152   6.686   4.887   4.697 -0.5814 -0.8649  0.2550
10579TIP3    H253153   6.806   4.907   4.787 -1.5921  0.4743  1.3434
10580TIP3   OH253154   3.253   6.116  15.357 -0.5100  0.4652 -0.0523
10580TIP3    H153155   3.216   6.165  15.431  0.4280  1.5036 -0.2655
10580TIP3    H253156   3.253   6.025  15.387 -1.5367  0.6763  0.6480
10581TIP3   OH253157   1.945   2.767  12.098 -0.1378 -0.7246 -0.1371
10581TIP3    H153158   1.933   2.681  12.139 -0.6023 -0.4201  0.3825
10581TIP3    H253159   1.872   2.774  12.036  0.2304 -0.9431 -0.5969
10582TIP3   OH253160   0.633   3.392  12.985  0.2541 -0.3441 -0.5437
10582TIP3    H153161   0.721   3.361  13.008  0.9183  1.9194  0.0525
10582TIP3    H253162   0.637   3.404  12.890  0.8568  0.4726 -0.4285
10583TIP3   OH253163   0.229   5.015   5.598  0.5818 -0.2252  0.1168
10583TIP3    H153164   0.198   4.936   5.644 -0.1020  0.3144  0.6032
10583TIP3    H253165   0.184   5.087   5.642 -0.0112  0.3162 -1.3564
10584TIP3   OH253166   3.904   0.160  13.107 -0.0451  0.4062 -0.5077
10584TIP3    H153167   3.945   0.086  13.062 -0.4445 -0.6060  0.7463
10584TIP3    H253168   3.831   0.185  13.051 -0.6610 -0.9709 -0.3423
10585TIP3   OH253169   5.058   2.171   1.064 -0.0810 -0.1004  0.2463
10585TIP3    H153170   5.142   2.201   1.098 -0.2952 -0.0809  0.7697
10585TIP3    H253171   4.993   2.225   1.111 -0.4535 -1.1970  1.0109
10586TIP3   OH253172   1.639   1.156   5.547 -0.0153  0.1119  0.5034
10586TIP3    H153173   1.694   1.224   5.585 -0.6277 -0.2341  2.0824
10586TIP3    H253174   1.701   1.095   5.505  0.6964  0.4459  1.0602
10587TIP3   OH253175   0.179   2.991   0.879 -0.3254  0.4492 -0.1456
10587TIP3    H153176   0.231   3.065   0.910 -0.3348 -0.2534  1.6038
10587TIP3    H253177   0.228   2.956   0.804  0.3082  1.4537 -0.2023
10588TIP3   OH253178   1.194   2.848  16.221 -0.2291 -0.1685  0.7183
10588TIP3    H153179   1.181   2.762  16.181  0.7401 -0.9152  1.9777
10588TIP3    H253180   1.159   2.910  16.157 -1.3903 -1.5317  0.0148
10589TIP3   OH253181   2.986   4.898  12.504  0.2564 -0.0726  0.1928
10589TIP3    H153182   3.036   4.975  12.478  0.6259 -0.2761  0.3051
10589TIP3    H253183   2.940   4.871  12.425 -0.6098  0.8204  0.3797
10590TIP3   OH253184   4.634   6.469   2.879  0.2306 -0.3304 -0.0227
10590TIP3    H153185   4.674   6.438   2.960 -0.7934 -0.0441  0.6045
10590TIP3    H253186   4.703   6.516   2.833  0.7267 -0.2489  0.8162
10591TIP3   OH253187   2.485   5.970   4.350 -0.1195  0.3103  0.7168
10591TIP3    H153188   2.510   5.923   4.271 -0.4330  1.2759  0.0295
10591TIP3    H253189   2.548   5.941   4.416 -0.3708 -1.1159  0.3290
10592TIP3   OH253190   1.702   2.141  12.016 -0.1924 -0.5230  0.2280
10592TIP3    H153191   1.736   2.052  12.026  1.8962  0.3046  0.9771
10592TIP3    H253192   1.744   2.190  12.088 -3.4587  0.4702  1.5571
10593TIP3   OH253193   3.338   6.664   0.828 -0.5546 -0.4792  0.1407
10593TIP3    H153194   3.373   6.590   0.878 -2.5671 -1.4238  0.1907
10593TIP3    H253195   3.376   6.653   0.741  1.1661 -0.1156  0.8233
10594TIP3   OH253196   3.428   2.573   1.958  0.8821  0.0704 -0.3996
10594TIP3    H153197   3.495   2.619   2.009  0.6592  1.6430 -1.4831
10594TIP3    H253198   3.399   2.502   2.016  2.5901  0.1182  0.5647
10595TIP3   OH253199   4.086   1.330  16.313  0.5120  0.5032  0.0412
10595TIP3    H153200   4.161   1.342  16.371 -0.3096  1.9671  0.8325
10595TIP3    H253201   4.011   1.354  16.366 -0.7928 -3.2725  0.0311
10596TIP3   OH253202   3.128   3.364  13.877 -0.4750  0.4410 -0.2813
10596TIP3    H153203   3.112   3.329  13.790 -0.9716  2.8637 -1.2213
10596TIP3    H253204   3.156   3.455  13.862 -1.6721  1.2705  2.1092
10597TIP3   OH253205   2.065   1.390  14.976  0.5408  0.4586 -0.7839
10597TIP3    H153206   1.982   1.375  15.021  2.2001 -0.3945  2.1943
10597TIP3    H253207   2.111   1.306  14.984  2.0952  1.2270 -1.4465
10598TIP3   OH253208   0.430   4.409   1.457 -0.1749 -0.2888 -0.1340
10598TIP3    H153209   0.486   4.333   1.442 -0.5661 -1.0542  2.0933
10598TIP3    H253210   0.344   4.382   1.423 -0.1098 -0.5056 -0.1285
10599TIP3   OH253211   5.111   4.845  17.101  0.2584  0.1459 -0.2148
10599TIP3    H153212   5.188   4.885  17.061 -1.0247  1.6104 -1.2920
10599TIP3    H253213   5.041   4.909  17.089 -0.2147  0.6072  4.4031
10600TIP3   OH253214   1.536   1.252   1.492  0.1918  0.4370  0.0007
10600TIP3    H153215   1.480   1.324   1.522 -0.1792 -0.7503  2.2477
10600TIP3    H253216   1.582   1.223   1.571  0.5362 -1.6198 -0.9289
10601TIP3   OH253217   0.083   6.016   3.868  0.0398  0.4496 -0.0092
10601TIP3    H153218   0.148   5.962   3.913 -2.1994 -2.5240 -0.1970
10601TIP3    H253219   0.018   6.037   3.935 -1.7435 -1.4564 -1.0867
10602TIP3   OH253220   2.575   5.417   3.990  0.8030 -0.2315  0.0030
10602TIP3    H153221   2.529   5.498   3.968  1.6599  0.0218 -0.8944
10602TIP3    H253222   2.656   5.445   4.033  0.2283 -0.6715  1.4200
10603TIP3   OH253223   2.339   0.039  13.246  0.0472 -0.4405  0.0951
10603TIP3    H153224   2.353   0.132  13.264  1.2720 -0.5196 -0.3956
10603TIP3    H253225   2.298   0.037  13.160 -2.1334 -0.2507  1.1177
10604TIP3   OH253226   2.552   0.590  13.094  0.5340 -0.2905  0.4104
10604TIP3    H153227   2.643   0.621  13.090  0.5366 -0.3368  0.1520
10604TIP3    H253228   2.546   0.523  13.027  0.1355  0.1613 -0.0112
10605TIP3   OH253229   3.655   6.184  11.121  0.3334  0.7657  0.6487
10605TIP3    H153230   3.745   6.209  11.142  0.7949  0.0744 -0.4644
10605TIP3    H253231   3.617   6.263  11.083  1.5305  0.0731 -2.0775
10606TIP3   OH253232   4.433   6.117   3.612  0.1968 -0.2109 -0.0174
10606TIP3    H153233   4.442   6.091   3.704 -0.1152  0.0949  0.1004
10606TIP3    H253234   4.374   6.051   3.575  1.4910 -1.1829 -0.3577
10607TIP3   OH253235   6.325   1.139  14.795 -0.1872  0.1597  0.1024
10607TIP3    H153236   6.354   1.185  14.874  0.6689  2.1463 -1.3186
10607TIP3    H253237   6.405   1.124  14.745 -0.7934 -0.5300 -0.6815
10608TIP3   OH253238   0.668   0.699   5.739  0.0870  0.0171 -0.5280
10608TIP3    H153239   0.588   0.696   5.686  0.0732  1.1548 -0.5894
10608TIP3    H253240   0.642   0.664   5.824 -0.4461  0.2582 -0.5905
10609TIP3   OH253241   3.216   3.119  11.065  0.1306  0.5412 -0.3663
10609TIP3    H153242   3.217   3.141  10.972  1.8547  1.3288 -0.1887
10609TIP3    H253243   3.134   3.072  11.078 -0.6792  1.4454 -2.0483
10610TIP3   OH253244   4.305   1.574   1.159 -0.2539  0.2743 -0.0581
10610TIP3    H153245   4.238   1.630   1.120 -1.2414 -1.6132 -1.1527
10610TIP3    H253246   4.334   1.621   1.237 -3.3859  0.8195  0.8405
10611TIP3   OH253247   1.764   3.047   1.216 -0.0820 -0.1608  0.4119
10611TIP3    H153248   1.755   3.120   1.155  1.7090 -0.6523 -0.5054
10611TIP3    H253249   1.734   2.971   1.166 -0.8525 -0.2196  0.9640
10612TIP3   OH253250   2.632   5.743   2.522 -0.5378 -0.2032 -0.3510
10612TIP3    H153251   2.669   5.830   2.540 -2.4626  0.2198  1.7297
10612TIP3    H253252   2.561   5.759   2.460  0.1068 -0.4943 -1.1672
10613TIP3   OH253253   2.942   0.418   4.654 -0.0092 -0.3245  0.0161
10613TIP3    H153254   2.960   0.400   4.562  0.2680  0.0482 -0.0032
10613TIP3    H253255   2.973   0.507   4.667  0.0857 -0.4290  0.5086
10614TIP3   OH253256   3.196   4.568  14.618  0.3796 -0.3545  0.4205
10614TIP3    H153257   3.106   4.548  14.646 -0.4379  0.5960 -1.4412
10614TIP3    H253258   3.185   4.623  14.540  2.5885  0.0026  0.3413
10615TIP3   OH253259   5.387   3.418  13.972 -0.3200 -0.2519 -0.5606
10615TIP3    H153260   5.429   3.348  14.023 -1.6315 -0.1218  0.7023
10615TIP3    H253261   5.432   3.415  13.887  3.0360  0.5967  1.0921
10616TIP3   OH253262   1.208   4.347   2.878  0.0172  0.2024 -0.6027
10616TIP3    H153263   1.252   4.431   2.888 -0.5964  0.3605  0.7823
10616TIP3    H253264   1.115   4.369   2.870 -0.0699 -0.2978 -1.0018
10617TIP3   OH253265   4.901   3.815  14.858  0.0011  0.5405  0.3813
10617TIP3    H153266   4.888   3.748  14.790  1.0919 -0.0632  0.7659
10617TIP3    H253267   4.936   3.767  14.933  3.1768  1.9178 -0.1576
10618TIP3   OH253268   5.159   4.039  16.800  0.4249 -0.0530  0.4421
10618TIP3    H153269   5.083   4.047  16.858 -0.8994  0.5003 -1.3379
10618TIP3    H253270   5.146   4.107  16.734  2.2203 -0.2856 -0.1647
10619TIP3   OH253271   3.458   3.188   0.473 -0.5636 -0.0332 -0.2557
10619TIP3    H153272   3.388   3.171   0.537 -0.2003  0.4211  0.2661
10619TIP3    H253273   3.414   3.232   0.401 -0.6523  1.1657  0.5081
10620TIP3   OH253274   1.773   0.142   1.890 -0.1116 -0.0034  0.5592
10620TIP3    H153275   1.780   0.104   1.802  0.5526  1.1213  0.1225
10620TIP3    H253276   1.833   0.091   1.943  0.1407 -0.1154  0.1664
10621TIP3   OH253277   3.662   0.867  14.583  0.4196  0.0139 -0.2227
10621TIP3    H153278   3.710   0.832  14.508  2.6774 -0.4999  1.4157
10621TIP3    H253279   3.719   0.937  14.617  0.2557 -0.9441  2.0563
10622TIP3   OH253280   3.303   1.484   2.429  0.3430  0.6038 -0.2911
10622TIP3    H153281   3.371   1.442   2.482 -2.0978 -0.1775  2.3904
10622TIP3    H253282   3.223   1.434   2.449 -1.2445  2.1020 -2.5665
10623TIP3   OH253283   2.811   2.838   3.503  0.4337 -0.0935 -0.4244
10623TIP3    H153284   2.880   2.802   3.559  1.1917  1.5506 -0.2745
10623TIP3    H253285   2.796   2.926   3.537  0.8050  0.8877 -2.7391
10624TIP3   OH253286   3.442   5.352   2.261  0.0958  0.2786  0.1806
10624TIP3    H153287   3.427   5.260   2.241  1.2166  0.0593  0.3150
10624TIP3    H253288   3.395   5.400   2.193  2.9164 -0.4246 -2.3625
10625TIP3   OH253289   2.574   3.045  12.326 -0.0984  0.1327  0.7740
10625TIP3    H153290   2.519   3.092  12.263 -1.0044 -1.6943  0.1564
10625TIP3    H253291   2.513   2.988  12.373  0.6642  1.0165  2.8836
10626TIP3   OH253292   3.874   1.505  13.719  0.1016 -0.5060 -0.6525
10626TIP3    H153293   3.813   1.431  13.726 -2.6089  1.7809  0.5789
10626TIP3    H253294   3.938   1.490  13.789 -1.3439 -0.8747  0.6023
10627TIP3   OH253295   3.990   2.001   0.427  0.0595  0.1781  0.0845
10627TIP3    H153296   4.022   2.041   0.508  1.8916  4.3626 -2.5727
10627TIP3    H253297   4.056   1.934   0.406  0.3795  0.1192  1.2328
10628TIP3   OH253298   1.881   3.619  13.210  0.0226  0.5735 -0.2771
10628TIP3    H153299   1.848   3.540  13.167 -0.1603  0.1675  0.5770
10628TIP3    H253300   1.875   3.598  13.304  4.4311 -0.2587 -0.0751
10629TIP3   OH253301   2.518   0.492   0.059 -0.0373 -0.2558  0.3036
10629TIP3    H153302   2.533   0.515  -0.033  2.3268  0.4341  0.8157
10629TIP3    H253303   2.449   0.426   0.057 -1.7309  1.5049 -1.7844
10630TIP3   OH253304   6.639   6.054  10.881  0.1154  0.0512 -0.1574
10630TIP3    H153305   6.721   6.078  10.838  0.3077 -0.3335 -0.0132
10630TIP3    H253306   6.655   5.965  10.914 -0.4932 -0.1772 -0.4683
10631TIP3   OH253307   3.842   3.646  13.967  0.0763 -0.2246  0.1677
10631TIP3    H153308   3.845   3.566  14.020 -2.5848 -0.3562  0.1604
10631TIP3    H253309   3.894   3.625  13.889  3.3257 -0.3074  2.2724
10632TIP3   OH253310   0.020   6.373  10.721  0.2188  0.3923 -0.1058
10632TIP3    H153311   0.056   6.285  10.734  1.3054  1.0000  1.1123
10632TIP3    H253312  -0.030   6.390  10.801  1.5515  1.6110  0.4796
10633TIP3   OH253313   3.706   0.654   3.456  0.1696 -0.1999 -0.2167
10633TIP3    H153314   3.798   0.657   3.482 -0.3024 -3.3818  2.1775
10633TIP3    H253315   3.665   0.726   3.505  1.4821  1.7618 -1.9407
10634TIP3   OH253316   1.906   1.969  13.418  1.0691  0.3276  0.6668
10634TIP3    H153317   1.930   1.963  13.325 -0.1931  2.5859  0.1436
10634TIP3    H253318   1.958   1.902  13.461  0.8763 -1.5208 -1.8448
10635TIP3   OH253319   6.736   2.159  16.618 -0.5797  1.2047 -0.0010
10635TIP3    H153320   6.772   2.239  16.581  0.7555 -0.5091 -2.5439
10635TIP3    H253321   6.648   2.152  16.581  0.0975  0.4208 -1.5163
10636TIP3   OH253322   0.440   4.635  17.065  0.0931 -0.7072 -0.1523
10636TIP3    H153323   0.426   4.633  16.970  0.2203 -0.3525 -0.1791
10636TIP3    H253324   0.534   4.653  17.074 -0.5344  2.8461  0.0485
10637TIP3   OH253325   2.236   3.260  15.939 -0.2215  0.4583  0.6616
10637TIP3    H153326   2.229   3.165  15.949  1.0417  0.3932  0.9058
10637TIP3    H253327   2.247   3.292  16.029 -3.3544  1.0862  0.8972
10638TIP3   OH253328   4.657   3.403  11.790 -0.6428  0.4073 -0.1478
10638TIP3    H153329   4.741   3.417  11.746 -0.9480  1.8097 -0.3050
10638TIP3    H253330   4.678   3.350  11.866  0.5150  1.4119  0.2406
10639TIP3   OH253331   0.425   5.891  12.704 -0.2256  0.2848 -0.5664
10639TIP3    H153332   0.419   5.894  12.800 -1.9682  0.5113 -0.6612
10639TIP3    H253333   0.418   5.798  12.682  1.4779  0.1081 -0.4185
10640TIP3   OH253334   3.223   3.919  16.962  0.0376  0.2062 -0.2167
10640TIP3    H153335   3.315   3.903  16.979 -0.0013  0.9024  0.7174
10640TIP3    H253336   3.221   3.964  16.877  0.5229 -0.1721 -0.4222
10641TIP3   OH253337   1.228   1.334   1.861 -0.4956  0.1821  0.4451
10641TIP3    H153338   1.304   1.393   1.871 -2.3300  2.8482 -0.7525
10641TIP3    H253339   1.256   1.270   1.796  1.0171  0.6671  0.5933
10642TIP3   OH253340   3.841   6.482  10.356  0.6729  0.1145  0.0130
10642TIP3    H153341   3.873   6.469  10.445  2.1264 -1.5806 -0.7268
10642TIP3    H253342   3.894   6.553  10.321 -0.8510  1.7464  0.9307
10643TIP3   OH253343   1.838   5.540  14.593  0.2084  0.1500  0.6295
10643TIP3    H153344   1.855   5.620  14.544  0.1974 -1.3684 -1.9252
10643TIP3    H253345   1.916   5.528  14.648 -0.2963  2.5020  1.8874
10644TIP3   OH253346   2.550   5.603  14.843 -0.2077  0.1092  0.2468
10644TIP3    H153347   2.634   5.633  14.806 -0.5720  0.6512 -0.1530
10644TIP3    H253348   2.568   5.593  14.937  0.2773  0.3218  0.1827
10645TIP3   OH253349   0.949   2.853   2.243 -0.3055  0.3312 -0.4567
10645TIP3    H153350   0.928   2.801   2.321 -2.5935  0.4091 -1.0055
10645TIP3    H253351   1.045   2.850   2.239 -0.2208 -1.0557  1.4121
10646TIP3   OH253352   2.022   0.125  14.140 -0.2635  0.1797 -0.5923
10646TIP3    H153353   2.092   0.070  14.177 -2.1943 -3.2343 -1.8719
10646TIP3    H253354   2.041   0.129  14.047 -0.5952  1.0372 -0.6275
10647TIP3   OH253355   4.327   3.906   6.213 -0.4878  0.0820 -0.2619
10647TIP3    H153356   4.293   3.989   6.180 -2.0745 -0.4887 -0.1001
10647TIP3    H253357   4.268   3.882   6.284  0.4530 -0.7705  0.2471
10648TIP3   OH253358   1.759   5.488   1.589  0.1004  0.0197 -0.3458
10648TIP3    H153359   1.840   5.476   1.639  0.6011 -0.7633 -1.3224
10648TIP3    H253360   1.705   5.412   1.611 -0.1104  0.2130 -0.1901
10649TIP3   OH253361   3.916   3.434   2.954 -0.1284 -0.0629  0.1071
10649TIP3    H153362   3.952   3.509   2.906 -1.1503  0.2951 -0.1122
10649TIP3    H253363   3.991   3.395   2.997  0.2539  1.7353  1.1087
10650TIP3   OH253364   4.711   1.796  11.832  0.3023  0.1520  0.1710
10650TIP3    H153365   4.766   1.810  11.910  1.4013  1.0465 -0.7438
10650TIP3    H253366   4.745   1.858  11.768 -0.7545 -0.4158 -0.9490
10651TIP3   OH253367   3.789   3.774   3.707 -0.5052 -0.5080  0.5976
10651TIP3    H153368   3.774   3.820   3.624 -1.9399 -0.8364  0.6579
10651TIP3    H253369   3.878   3.798   3.732 -0.9754  1.6443  0.2735
10652TIP3   OH253370   5.970   0.379   5.597 -0.0917  0.0572 -0.4825
10652TIP3    H153371   5.998   0.432   5.671  0.7574  1.2070 -1.6024
10652TIP3    H253372   5.875   0.395   5.591 -0.5735 -1.7566  1.6689
10653TIP3   OH253373   2.461   6.506  13.628  0.5864 -0.5958  0.5219
10653TIP3    H153374   2.412   6.466  13.557 -0.8200  0.9763  0.5622
10653TIP3    H253375   2.464   6.440  13.697 -0.6967 -1.0408  0.1533
10654TIP3   OH253376   6.228   3.983  16.697  0.1829 -0.7265 -0.1782
10654TIP3    H153377   6.261   4.031  16.621 -1.6297 -0.3689 -0.7624
10654TIP3    H253378   6.205   3.896  16.663 -1.5375 -0.2555 -0.2703
10655TIP3   OH253379   6.670   0.885  14.786 -0.1447  0.1260  0.0796
10655TIP3    H153380   6.654   0.820  14.718  1.2785 -0.1211 -0.0341
10655TIP3    H253381   6.682   0.967  14.738  0.0830  0.0972  0.0874
10656TIP3   OH253382   1.087   2.514   3.635  0.4126  0.0548  0.2882
10656TIP3    H153383   1.100   2.452   3.706 -3.0862 -2.0297 -0.7791
10656TIP3    H253384   1.000   2.551   3.650  1.2000  2.4872 -0.7890
10657TIP3   OH253385   3.422   2.289  10.356  0.5026 -0.1876 -0.0139
10657TIP3    H153386   3.515   2.270  10.362  1.0618  2.3263  0.0014
10657TIP3    H253387   3.381   2.232  10.420  2.1446 -0.5771  0.7044
10658TIP3   OH253388   0.739   6.604   1.825  0.4069 -0.0988  0.0921
10658TIP3    H153389   0.815   6.661   1.819  0.0444  0.7090  2.7608
10658TIP3    H253390   0.698   6.626   1.909 -1.1045 -2.5765  0.0627
10659TIP3   OH253391   4.564   1.590   0.978  0.6034  0.4957 -0.3292
10659TIP3    H153392   4.499   1.591   1.049 -0.5328 -0.4753 -1.3457
10659TIP3    H253393   4.640   1.545   1.016 -0.5490 -1.3823 -0.1939
10660TIP3   OH253394   5.567   3.618  14.928  0.0155 -0.1753 -0.2677
10660TIP3    H153395   5.495   3.631  14.990  0.9193 -0.7529  0.9345
10660TIP3    H253396   5.640   3.668  14.965 -0.0111  1.1391 -1.9487
10661TIP3   OH253397   1.989   2.906  10.691 -0.2905 -0.1551 -0.1777
10661TIP3    H153398   1.980   2.813  10.712 -2.3102 -0.0174 -0.2755
10661TIP3    H253399   1.906   2.928  10.648  0.3827  1.5722 -0.6114
10662TIP3   OH253400   1.369   3.101   0.310  0.1941  0.0613  0.5825
10662TIP3    H153401   1.318   3.021   0.293 -1.0125  1.5645 -3.3164
10662TIP3    H253402   1.424   3.112   0.233  0.3286  2.9885  1.0357
10663TIP3   OH253403   2.312   6.598  16.025 -0.0556 -0.1978 -0.0288
10663TIP3    H153404   2.237   6.567  15.973 -0.5576 -0.1251  0.6403
10663TIP3    H253405   2.359   6.657  15.967 -1.0223  0.4457 -0.1660
10664TIP3   OH253406   4.850   3.726   0.123  0.3209  0.1474 -0.2533
10664TIP3    H153407   4.787   3.798   0.130  1.2805  0.8280  1.6379
10664TIP3    H253408   4.832   3.671   0.199  0.9681 -0.5066 -0.5680
10665TIP3   OH253409   6.468   4.238   0.154 -0.3543 -0.3804  0.0522
10665TIP3    H153410   6.503   4.303   0.216 -0.7646 -0.4620  0.3717
10665TIP3    H253411   6.482   4.154   0.199  0.1223 -0.5126 -0.3343
10666TIP3   OH253412   6.483   0.574  12.775  0.8230 -0.7337  0.1204
10666TIP3    H153413   6.429   0.559  12.698  0.1304 -2.1195  0.8566
10666TIP3    H253414   6.426   0.620  12.837  1.2247 -0.0566 -0.0099
10667TIP3   OH253415   3.885   0.598   2.058  0.2408 -0.1148 -0.3173
10667TIP3    H153416   3.845   0.601   1.971 -1.0337 -1.1564  0.2216
10667TIP3    H253417   3.956   0.534   2.049  0.4721  0.1904 -0.7243
10668TIP3   OH253418   0.902   4.241   2.544  0.1246  0.0104 -0.4970
10668TIP3    H153419   0.925   4.306   2.478 -1.5799  1.1454 -0.0121
10668TIP3    H253420   0.834   4.188   2.502  1.7409 -1.7129 -1.0143
10669TIP3   OH253421   6.417   3.858  12.568 -0.1347 -0.0367  0.5431
10669TIP3    H153422   6.458   3.774  12.544  0.9172  0.2854  1.2025
10669TIP3    H253423   6.490   3.920  12.569 -1.2787  1.4657 -2.5436
10670TIP3   OH253424   3.660   2.566  14.065 -0.1388 -0.1457 -0.0341
10670TIP3    H153425   3.583   2.535  14.018  0.1229 -0.5853 -0.1761
10670TIP3    H253426   3.731   2.557  14.002  0.0967 -0.1144  0.2294
10671TIP3   OH253427   6.734   0.299  17.158 -0.3174  0.2307  0.0054
10671TIP3    H153428   6.778   0.216  17.173  0.8625  0.7501 -0.5039
10671TIP3    H253429   6.722   0.304  17.063  2.3321  1.9337 -0.3336
10672TIP3   OH253430   6.228   6.098   5.730  0.3121  0.6077  0.2294
10672TIP3    H153431   6.280   6.138   5.659 -0.4418  0.3029 -0.5029
10672TIP3    H253432   6.247   6.153   5.806  1.5601  0.6188 -0.0657
10673TIP3   OH253433   0.007   5.345  12.771 -0.4497 -0.0388  0.3547
10673TIP3    H153434   0.097   5.377  12.766  0.1080 -1.7179 -1.0566
10673TIP3    H253435  -0.001   5.312  12.861  0.7448 -0.9707  0.1337
10674TIP3   OH253436   2.382   4.709   4.422  0.0701  0.5443 -0.1496
10674TIP3    H153437   2.394   4.624   4.380 -0.4891  1.2649 -1.8244
10674TIP3    H253438   2.287   4.724   4.418  0.2879  1.7506 -0.8913
10675TIP3   OH253439   1.272   5.685   5.602  0.3671 -0.3912  0.1509
10675TIP3    H153440   1.233   5.601   5.579  1.3478 -0.9578  0.5446
10675TIP3    H253441   1.266   5.689   5.697  2.4702 -1.0899  0.3361
10676TIP3   OH253442   1.227   1.889   5.741  0.3793  0.5026 -0.6053
10676TIP3    H153443   1.152   1.876   5.799 -1.7025  0.5833 -3.2279
10676TIP3    H253444   1.288   1.819   5.765 -0.9109 -0.1375  0.9232
10677TIP3   OH253445   3.903   5.020  16.384  0.0903  0.4812 -0.2281
10677TIP3    H153446   3.855   5.049  16.462  1.4317  1.1736  0.3594
10677TIP3    H253447   3.870   5.077  16.314 -0.4281  0.5051  0.0289
10678TIP3   OH253448   3.178   2.811  12.825 -0.4886 -0.3479  0.7441
10678TIP3    H153449   3.154   2.752  12.896 -1.2238 -1.5625 -0.4929
10678TIP3    H253450   3.133   2.893  12.846 -1.1609 -0.8721  1.3831
10679TIP3   OH253451   4.985   2.093  11.489 -0.1656 -0.0297 -0.4923
10679TIP3    H153452   4.973   2.002  11.516 -1.5780  0.2086 -0.2883
10679TIP3    H253453   5.077   2.099  11.466  0.3440 -1.0742  1.1674
10680TIP3   OH253454   6.599   4.950  12.487  0.0192  0.1358  0.0454
10680TIP3    H153455   6.560   4.969  12.401  1.4970  0.8926 -0.4781
10680TIP3    H253456   6.618   5.036  12.523  0.4238 -0.2163  0.6617
10681TIP3   OH253457   3.306   2.795  15.955 -0.2724  0.2116 -0.1312
10681TIP3    H153458   3.231   2.838  15.912 -0.4239  0.4620  0.3778
10681TIP3    H253459   3.382   2.845  15.925 -0.2716 -0.2793 -0.9486
10682TIP3   OH253460   1.155   2.396   0.081  0.7393  0.0675  0.0934
10682TIP3    H153461   1.155   2.382  -0.014  1.1528 -1.0426  0.2416
10682TIP3    H253462   1.243   2.426   0.101 -0.0032  2.4933 -0.1538
10683TIP3   OH253463   5.313   3.826   2.449  0.2555 -0.1018  0.4467
10683TIP3    H153464   5.352   3.903   2.407  1.1367 -1.3718 -1.1223
10683TIP3    H253465   5.380   3.759   2.443 -1.1876 -1.5431  0.1239
10684TIP3   OH253466   1.250   2.774   4.374 -0.5957 -0.4247 -0.4214
10684TIP3    H153467   1.345   2.773   4.381 -0.4798  1.9379 -1.3055
10684TIP3    H253468   1.224   2.683   4.390  1.7974 -1.1269 -0.3280
10685TIP3   OH253469   1.457   1.845   5.252 -0.2440  0.0930  0.2188
10685TIP3    H153470   1.472   1.808   5.339  0.5961 -3.4120 -1.3094
10685TIP3    H253471   1.438   1.937   5.267  0.6291 -0.2946  4.0405
10686TIP3   OH253472   4.873   3.289   0.884 -0.0205 -0.2352 -0.0012
10686TIP3    H153473   4.930   3.253   0.951  0.1634 -1.1434 -0.6340
10686TIP3    H253474   4.915   3.265   0.801 -0.7477  0.0364 -0.4571
10687TIP3   OH253475   5.165   4.206  15.533 -0.1878  0.2861 -0.0664
10687TIP3    H153476   5.177   4.129  15.589 -1.3770 -0.1658 -0.4155
10687TIP3    H253477   5.250   4.249  15.533 -0.5417  1.1937  3.4046
10688TIP3   OH253478   6.158   6.378  11.316  0.0691 -0.0379 -0.7729
10688TIP3    H153479   6.066   6.398  11.302  0.0353 -0.9326 -1.9030
10688TIP3    H253480   6.205   6.443  11.263  0.0555 -0.1916 -0.9751
10689TIP3   OH253481   5.539   0.587   3.781  0.0111  0.7692 -0.9285
10689TIP3    H153482   5.471   0.576   3.848 -0.1001  0.7922 -1.0395
10689TIP3    H253483   5.492   0.616   3.703  0.2299  1.4337 -0.8138
10690TIP3   OH253484   6.179   4.279  11.572  0.1483 -0.8745 -0.2135
10690TIP3    H153485   6.218   4.192  11.559 -0.3452 -1.2507  0.7839
10690TIP3    H253486   6.098   4.276  11.522  2.0008  0.3743 -3.4099
10691TIP3   OH253487   6.549   6.256  13.769 -0.2986 -0.1254 -0.2298
10691TIP3    H153488   6.576   6.343  13.800 -0.7292 -0.1516  0.2361
10691TIP3    H253489   6.611   6.235  13.700  1.5902 -0.6978  1.5795
10692TIP3   OH253490   4.980   6.340   3.194 -0.0993 -0.0842 -0.2869
10692TIP3    H153491   5.032   6.314   3.270  1.1503  1.1823 -0.6863
10692TIP3    H253492   5.040   6.395   3.142 -1.4394  0.3553 -1.3840
10693TIP3   OH253493   4.045   1.571   5.934  0.1659 -0.9101 -0.0921
10693TIP3    H153494   3.977   1.523   5.887 -0.5325  0.2344 -0.2856
10693TIP3    H253495   4.123   1.517   5.927  0.0595 -0.7844 -2.5386
10694TIP3   OH253496   5.919   1.814   6.185  0.3048 -0.5040 -0.2340
10694TIP3    H153497   5.912   1.719   6.196 -1.5749 -0.4207 -0.6209
10694TIP3    H253498   5.838   1.840   6.142  1.0523  1.2108 -0.6605
10695TIP3   OH253499   1.681   6.329   4.861 -0.5251 -0.2434  0.7274
10695TIP3    H153500   1.761   6.380   4.853 -1.2263  0.9437  1.1177
10695TIP3    H253501   1.699   6.266   4.931  0.9732 -1.7438 -0.9850
10696TIP3   OH253502   5.669   5.678  11.849  0.3662  0.1817 -0.0720
10696TIP3    H153503   5.619   5.655  11.771 -0.7943  0.7393  0.4856
10696TIP3    H253504   5.728   5.604  11.863 -0.1019 -0.3587 -0.9183
10697TIP3   OH253505   1.643   0.781   4.414  0.0929 -0.0367 -0.2457
10697TIP3    H153506   1.569   0.764   4.472  2.1789 -0.0810  2.4949
10697TIP3    H253507   1.608   0.840   4.348 -1.5871  2.8412  3.0293
10698TIP3   OH253508   5.909   3.390   3.831  0.3914  0.1393 -0.3933
10698TIP3    H153509   5.844   3.338   3.878  0.7154  0.1037  0.0136
10698TIP3    H253510   5.971   3.417   3.898 -0.2569  1.8148 -0.4444
10699TIP3   OH253511   2.873   2.482   4.225  0.1324 -0.0969 -0.4534
10699TIP3    H153512   2.871   2.438   4.310 -1.4639 -0.8328 -0.8583
10699TIP3    H253513   2.909   2.416   4.165  0.2222  0.0485 -0.5591
10700TIP3   OH253514   4.108   2.164  16.410  0.0225  0.2998 -0.3303
10700TIP3    H153515   4.158   2.160  16.492 -0.7636  0.3836  0.1572
10700TIP3    H253516   4.050   2.239  16.421 -0.2941  0.1336 -0.8527
10701TIP3   OH253517   5.365   1.518   1.300  0.0195  0.2544  0.0732
10701TIP3    H153518   5.445   1.469   1.319 -0.8916 -0.7830  1.3083
10701TIP3    H253519   5.367   1.531   1.205  0.3755 -2.0359 -0.2605
10702TIP3   OH253520   1.635   2.298  12.858 -0.1191 -0.0023  0.1242
10702TIP3    H153521   1.541   2.306  12.839  0.1363  2.1873 -0.3586
10702TIP3    H253522   1.647   2.206  12.882 -2.1034 -0.7103 -1.4338
10703TIP3   OH253523   3.746   5.537  13.627  0.4760 -0.9467  0.5361
10703TIP3    H153524   3.727   5.618  13.674 -1.0655 -0.5635 -0.7439
10703TIP3    H253525   3.682   5.474  13.661 -1.9070 -0.1808 -2.3283
10704TIP3   OH253526   1.855   6.783   5.252 -0.1628 -0.4146  0.0990
10704TIP3    H153527   1.853   6.814   5.342  0.4100  1.7792 -0.6152
10704TIP3    H253528   1.943   6.749   5.240 -0.0873 -0.2522  0.1992
10705TIP3   OH253529   6.359   1.677  15.830  0.4768  0.3797 -0.2204
10705TIP3    H153530   6.343   1.647  15.741 -0.5647 -3.0492  1.0246
10705TIP3    H253531   6.272   1.680  15.870  1.3006 -2.3463  1.8966
10706TIP3   OH253532   2.233   2.980  15.991 -0.3882  0.0608  0.2184
10706TIP3    H153533   2.208   2.996  16.082 -0.0533  2.5398 -0.0863
10706TIP3    H253534   2.300   2.911  15.996 -1.0156 -0.4589  1.7508
10707TIP3   OH253535   0.914   3.548  17.110  0.4455 -0.0103 -0.2814
10707TIP3    H153536   0.895   3.456  17.093 -0.0678  0.3616 -1.8360
10707TIP3    H253537   0.972   3.547  17.186 -1.4647 -1.4662  1.1926
10708TIP3   OH253538   1.353   0.942  12.547 -0.2639 -0.0749  0.0162
10708TIP3    H153539   1.307   0.996  12.483  1.2032  1.4331  0.1966
10708TIP3    H253540   1.434   0.917  12.503 -1.1265 -2.5588 -0.2391
10709TIP3   OH253541   4.772   2.811   0.720  0.3157 -0.6186  0.6055
10709TIP3    H153542   4.769   2.844   0.810 -1.5988  0.8827  0.0339
10709TIP3    H253543   4.737   2.883   0.667 -0.5831 -2.2603 -1.0940
10710TIP3   OH253544   1.398   1.401   1.224 -0.0122  0.1312 -1.0829
10710TIP3    H153545   1.385   1.495   1.238 -0.5185 -0.1461  0.4448
10710TIP3    H253546   1.441   1.370   1.303 -1.3831 -1.2163 -0.8200
10711TIP3   OH253547   3.668   6.662  11.146  0.5526 -0.3053  0.1793
10711TIP3    H153548   3.609   6.587  11.144 -1.7212  1.2872  3.2009
10711TIP3    H253549   3.620   6.732  11.102  0.5434  0.7474  1.8159
10712TIP3   OH253550   3.439   5.909  13.852  0.0816  0.2713 -0.4259
10712TIP3    H153551   3.395   5.971  13.793 -1.5284 -1.6661 -1.3573
10712TIP3    H253552   3.488   5.964  13.913 -0.8024  2.4299 -1.5940
10713TIP3   OH253553   0.969   4.645   5.547 -0.5058 -0.1208 -0.1824
10713TIP3    H153554   0.953   4.566   5.599  0.0201 -0.4584 -0.5198
10713TIP3    H253555   0.981   4.715   5.611  2.2628 -0.9301  0.2402
10714TIP3   OH253556   5.918   6.667  12.137  0.0252 -0.5199  0.1902
10714TIP3    H153557   5.998   6.717  12.155 -0.4191 -0.7021  2.9521
10714TIP3    H253558   5.847   6.728  12.159 -0.5350 -1.7700  1.9550
10715TIP3   OH253559   2.613   2.811   4.654 -0.0960 -0.2578 -0.2546
10715TIP3    H153560   2.698   2.846   4.630 -0.8498  0.9111 -1.2748
10715TIP3    H253561   2.631   2.753   4.728  1.5416  0.1463 -0.3177
10716TIP3   OH253562   4.658   1.867  12.950 -0.1098  0.1028  0.3520
10716TIP3    H153563   4.685   1.855  12.859 -0.5598  0.1699  0.2098
10716TIP3    H253564   4.730   1.829  13.001 -0.5090 -1.2340 -0.0593
10717TIP3   OH253565   1.606   2.730  12.983 -0.0995 -0.1673  0.0733
10717TIP3    H153566   1.510   2.735  12.978 -0.1608 -2.0739 -1.8193
10717TIP3    H253567   1.626   2.745  13.075 -2.1869  0.7711  0.4162
10718TIP3   OH253568   1.136   0.939   3.015  0.3849 -0.0765  0.5632
10718TIP3    H153569   1.149   1.002   2.944 -0.4810  1.4224  1.7029
10718TIP3    H253570   1.043   0.915   3.008 -0.3488  1.9864  2.6959
10719TIP3   OH253571   4.968   3.309   6.231 -0.2760  0.3884 -0.0536
10719TIP3    H153572   4.885   3.311   6.278  0.2389  1.5684  0.8384
10719TIP3    H253573   5.033   3.286   6.298  0.1198 -0.6629 -0.7679
10720TIP3   OH253574   4.421   5.204   3.076 -0.5254  0.0703  0.7200
10720TIP3    H153575   4.369   5.270   3.121 -0.1599  1.4554 -0.8369
10720TIP3    H253576   4.497   5.251   3.043  0.1916 -1.3092  0.3689
10721TIP3   OH253577   6.711   5.995   2.805 -0.1076  0.2016 -0.7485
10721TIP3    H153578   6.661   6.075   2.789 -1.4185 -0.1971  1.2286
10721TIP3    H253579   6.711   5.950   2.721  0.0901  1.9480 -1.7203
10722TIP3   OH253580   2.551   1.970  15.434 -0.1550 -0.2209  0.1756
10722TIP3    H153581   2.541   1.875  15.427 -0.4115 -0.0018 -3.0116
10722TIP3    H253582   2.486   1.996  15.499 -0.6921 -2.1344  0.4380
10723TIP3   OH253583   2.790   6.278   5.965 -0.9167 -0.6644 -0.7142
10723TIP3    H153584   2.802   6.198   5.913  1.0795  0.2459 -1.7042
10723TIP3    H253585   2.875   6.293   6.006 -1.2962  0.9203 -0.4637
10724TIP3   OH253586   1.588   1.621  12.970  0.7051 -0.0444 -0.5583
10724TIP3    H153587   1.584   1.526  12.964  2.3066 -0.0511 -1.7692
10724TIP3    H253588   1.568   1.641  13.061 -0.7701 -1.4650 -0.5630
10725TIP3   OH253589   4.436   3.692   4.170 -0.0757  0.5103  0.4108
10725TIP3    H153590   4.458   3.777   4.207 -0.1024 -0.1642  1.9816
10725TIP3    H253591   4.424   3.635   4.245  1.8467 -1.3718 -0.6560
10726TIP3   OH253592   3.481   4.975   0.002 -0.0457 -0.2465  0.2528
10726TIP3    H153593   3.408   4.986   0.062  0.1559  0.9656  0.2915
10726TIP3    H253594   3.559   4.989   0.055  0.1211  1.1812 -0.3627
10727TIP3   OH253595   1.093   0.625   0.485  0.3943 -0.3790  0.3904
10727TIP3    H153596   1.169   0.664   0.528 -0.2568 -0.5931  1.7796
10727TIP3    H253597   1.031   0.697   0.476  0.2368 -0.4948  0.5271
10728TIP3   OH253598   4.270   0.081  12.155 -0.0942  0.0473 -0.2639
10728TIP3    H153599   4.326   0.157  12.138  0.6039  0.1068  2.2429
10728TIP3    H253600   4.198   0.115  12.208 -1.0660 -0.5845 -1.1563
10729TIP3   OH253601   6.462   4.311  15.305  0.1960 -0.2585 -0.4672
10729TIP3    H153602   6.484   4.351  15.221  0.1707  0.4652 -0.1317
10729TIP3    H253603   6.372   4.281  15.295  0.0217  0.2778 -0.5334
10730TIP3   OH253604   5.770   6.408  11.474  0.0432  0.1928 -0.7799
10730TIP3    H153605   5.702   6.373  11.416  0.9125 -0.3564 -1.4812
10730TIP3    H253606   5.774   6.501  11.452 -0.5467  0.2501 -0.6635
10731TIP3   OH253607   4.249   2.829  15.020  0.2532 -0.6754 -0.4269
10731TIP3    H153608   4.208   2.828  15.106  0.1194  0.3260 -0.4683
10731TIP3    H253609   4.176   2.844  14.959  0.6322  0.9656 -0.5120
10732TIP3   OH253610   0.278   0.905   3.751 -0.3178 -0.0478  0.6941
10732TIP3    H153611   0.237   0.912   3.664  0.5262 -0.9171  0.2302
10732TIP3    H253612   0.204   0.890   3.810 -1.0193  1.5450  0.2808
10733TIP3   OH253613   3.194   6.071  16.421  0.0653  0.0076  0.3282
10733TIP3    H153614   3.120   6.130  16.439  1.2563  1.7998 -0.5049
10733TIP3    H253615   3.271   6.119  16.452  1.2503 -0.3941 -1.8570
10734TIP3   OH253616   4.420   3.919   4.373  0.0145 -0.1224 -0.3593
10734TIP3    H153617   4.339   3.913   4.324 -0.0065 -0.9981 -0.2216
10734TIP3    H253618   4.399   3.977   4.447 -0.3261  0.0956 -0.6264
10735TIP3   OH253619   0.724   3.227   4.369 -0.0263 -0.3464  0.2160
10735TIP3    H153620   0.718   3.308   4.317  0.7903  0.8329  1.9223
10735TIP3    H253621   0.701   3.158   4.307  0.4281  1.0712 -1.5988
10736TIP3   OH253622   4.859   0.702   1.842 -0.2105 -0.2771  0.1981
10736TIP3    H153623   4.892   0.678   1.755 -0.8210  1.8904 -0.6533
10736TIP3    H253624   4.936   0.698   1.899  1.1226  2.4716 -1.3046
10737TIP3   OH253625   5.162   2.440  11.233 -0.4565  0.6067  0.6076
10737TIP3    H153626   5.249   2.479  11.242  0.3935 -0.9592 -0.4215
10737TIP3    H253627   5.121   2.487  11.161  0.3021  0.0819 -0.1832
10738TIP3   OH253628   2.389   2.113  15.596 -0.1903  0.1041 -0.3691
10738TIP3    H153629   2.308   2.140  15.552  0.3772 -0.3726 -1.7303
10738TIP3    H253630   2.422   2.193  15.636 -0.5859  0.6027 -1.0313
10739TIP3   OH253631   6.296   1.824   1.528 -0.1924 -0.3730 -0.1026
10739TIP3    H153632   6.210   1.847   1.492 -0.7164 -0.0924  1.2898
10739TIP3    H253633   6.276   1.767   1.602  0.9628 -2.9219 -1.6701
10740TIP3   OH253634   3.997   6.014   1.197 -0.1242  0.3751 -0.0761
10740TIP3    H153635   4.030   6.028   1.285 -1.1163  0.3493  0.3013
10740TIP3    H253636   3.975   5.921   1.193  0.3560  0.2705 -0.5111
10741TIP3   OH253637   2.077   1.128  10.965 -0.1088 -0.0567 -0.0718
10741TIP3    H153638   1.995   1.102  11.006  0.5414  0.8240  1.8403
10741TIP3    H253639   2.080   1.223  10.974  0.4645  0.0710 -1.4093
10742TIP3   OH253640   6.513   0.841  13.217 -0.5575 -0.0886 -0.4352
10742TIP3    H153641   6.520   0.763  13.271  1.3491 -0.4210 -1.1022
10742TIP3    H253642   6.601   0.880  13.221 -1.4551  1.9460 -0.2001
10743TIP3   OH253643   2.744   1.074   2.308  0.0413  0.1599  0.3533
10743TIP3    H153644   2.759   1.046   2.218  0.8069  0.5867  0.3453
10743TIP3    H253645   2.653   1.104   2.309  0.5431  1.7805 -0.7033
10744TIP3   OH253646   2.217   1.962   5.733 -0.1442 -0.4762  0.1147
10744TIP3    H153647   2.297   1.950   5.785  0.0283 -0.9694 -0.2591
10744TIP3    H253648   2.241   2.026   5.666 -0.6118  0.8110  1.1533
10745TIP3   OH253649   2.094   2.428   2.521 -0.0389 -0.2886  0.5564
10745TIP3    H153650   2.176   2.449   2.477 -0.8303 -0.3539 -0.9881
10745TIP3    H253651   2.107   2.456   2.611  0.7570  2.1228 -0.2770
10746TIP3   OH253652   5.475   2.750  15.755 -0.2365 -0.5648  0.2631
10746TIP3    H153653   5.498   2.779  15.667 -1.5941 -1.1005 -0.2727
10746TIP3    H253654   5.401   2.805  15.780 -0.4052 -0.9998  0.7248
10747TIP3   OH253655   5.255   4.429  13.526  0.1210 -0.0227 -0.6541
10747TIP3    H153656   5.211   4.344  13.529  0.2759 -0.1335 -1.5485
10747TIP3    H253657   5.185   4.492  13.508  0.2146 -0.1097 -1.3105
10748TIP3   OH253658   1.209   0.761   0.016 -0.4487 -0.0891 -0.0052
10748TIP3    H153659   1.215   0.730  -0.075 -2.5482 -1.3479  0.2421
10748TIP3    H253660   1.174   0.850   0.008 -0.1612 -0.0148 -0.4627
10749TIP3   OH253661   1.795   0.880   0.343  0.4824  0.3430 -0.0042
10749TIP3    H153662   1.808   0.945   0.274 -0.7391  1.1247  0.4781
10749TIP3    H253663   1.833   0.921   0.421  0.1758  0.2677  0.1860
10750TIP3   OH253664   0.103   2.581  12.210 -0.8474  0.6655 -0.3075
10750TIP3    H153665   0.015   2.600  12.243 -1.1280 -0.0677 -0.6471
10750TIP3    H253666   0.156   2.574  12.290 -1.1978  0.5586 -0.0816
10751TIP3   OH253667   1.670   6.549   0.956 -0.2398 -0.3997  0.2057
10751TIP3    H153668   1.643   6.635   0.923  0.4409 -0.2134  0.1255
10751TIP3    H253669   1.759   6.562   0.987  1.5676 -2.0786 -3.8877
10752TIP3   OH253670   5.898   2.603  11.682  0.3031 -0.0749  0.4441
10752TIP3    H153671   5.922   2.529  11.739  0.9511 -0.1275  0.1083
10752TIP3    H253672   5.891   2.677  11.742  3.5302  0.4326  0.2997
10753TIP3   OH253673   4.630   6.568  16.649 -0.1351  0.1329  0.3816
10753TIP3    H153674   4.635   6.600  16.559  0.4378  0.9119  0.6821
10753TIP3    H253675   4.715   6.592  16.688 -0.5456  0.1968  1.2571
10754TIP3   OH253676   2.107   4.711  14.997 -0.2633 -0.3078 -0.1912
10754TIP3    H153677   2.098   4.709  14.902 -1.7369  1.6205 -0.1199
10754TIP3    H253678   2.070   4.628  15.026  1.7856 -1.6712 -1.3996
10755TIP3   OH253679   0.351   6.273   3.946  0.1815  0.1015  0.0547
10755TIP3    H153680   0.257   6.279   3.930  0.1984 -2.7957 -1.4293
10755TIP3    H253681   0.359   6.217   4.023  0.6983  0.1866  0.0638
10756TIP3   OH253682   1.693   4.245   0.359  0.1339 -0.1384 -0.1000
10756TIP3    H153683   1.705   4.320   0.416 -2.5283  0.4082 -0.2143
10756TIP3    H253684   1.613   4.264   0.310 -0.9667 -3.3189  0.3366
10757TIP3   OH253685   6.358   6.032  16.824 -0.3006  0.3964 -0.0417
10757TIP3    H153686   6.387   6.030  16.733 -0.8603  0.1646 -0.2169
10757TIP3    H253687   6.421   5.977  16.871 -0.0210  0.5044 -0.2926
10758TIP3   OH253688   0.699   0.092   0.215 -0.0951  0.3590  0.7583
10758TIP3    H153689   0.659   0.161   0.269 -1.4650  0.3750 -0.2391
10758TIP3    H253690   0.791   0.118   0.207  0.0446  0.5596  2.7387
10759TIP3   OH253691   0.052   5.942  13.988 -0.4137 -0.2905  0.1553
10759TIP3    H153692  -0.042   5.963  13.994 -0.5589 -0.9842  0.3897
10759TIP3    H253693   0.070   5.939  13.895 -0.8311 -1.0367  0.0938
10760TIP3   OH253694   5.991   1.308   3.159  0.1129  0.3646 -0.5682
10760TIP3    H153695   6.061   1.290   3.096  0.0591  0.3318 -0.6190
10760TIP3    H253696   5.938   1.375   3.116  1.5993  2.3124  0.5887
10761TIP3   OH253697   0.512   5.120   0.174 -0.5197 -0.5746 -0.2318
10761TIP3    H153698   0.594   5.108   0.126 -0.6125 -1.9527 -0.0716
10761TIP3    H253699   0.531   5.185   0.241  0.3979 -0.7802 -0.2972
10762TIP3   OH253700   2.241   4.729   5.611 -0.4133  0.3041 -0.1106
10762TIP3    H153701   2.180   4.687   5.672  0.9814  0.4547  1.4265
10762TIP3    H253702   2.318   4.671   5.610  0.9296  2.0416  0.8881
10763TIP3   OH253703   5.809   1.620   4.646 -0.5310  0.0358  0.0207
10763TIP3    H153704   5.893   1.664   4.630 -1.6120  2.2571  0.2819
10763TIP3    H253705   5.802   1.616   4.741  0.8092 -3.2220  0.0334
10764TIP3   OH253706   6.439   0.784  12.012  0.6630  0.1146  0.3382
10764TIP3    H153707   6.362   0.727  12.022  1.7090 -1.1300  1.5059
10764TIP3    H253708   6.405   0.873  12.023 -0.4698 -0.4771  1.7671
10765TIP3   OH253709   3.768   6.500  15.384  0.4688 -0.0779  0.1526
10765TIP3    H153710   3.847   6.467  15.342 -0.4748 -1.4469 -0.5977
10765TIP3    H253711   3.696   6.457  15.337 -0.6654 -0.3240  2.0627
10766TIP3   OH253712   4.583   0.238   2.227  0.2694  0.0492 -0.5048
10766TIP3    H153713   4.642   0.278   2.164  2.2667  0.3456  1.4897
10766TIP3    H253714   4.544   0.311   2.274  0.4272 -0.2296  0.0648
10767TIP3   OH253715   6.782   0.007   3.408  0.5618  0.2975 -0.0597
10767TIP3    H153716   6.807   0.075   3.346  1.2354  0.9880  0.9460
10767TIP3    H253717   6.800  -0.075   3.362  0.6194  0.8013 -0.9388
10768TIP3   OH253718   3.015   6.366  15.254  0.1453  0.1838 -0.3576
10768TIP3    H153719   3.049   6.278  15.239 -0.1199  0.1314 -0.6600
10768TIP3    H253720   3.003   6.402  15.166 -1.0306  0.0296 -0.2602
10769TIP3   OH253721   1.717   3.488   2.307 -0.0272  0.0413 -0.5307
10769TIP3    H153722   1.631   3.486   2.264 -0.5697  1.1904  0.4896
10769TIP3    H253723   1.767   3.552   2.257 -0.5704  1.1743  0.3440
10770TIP3   OH253724   5.724   1.825  11.297  0.2701 -0.5226  0.6294
10770TIP3    H153725   5.697   1.883  11.227  0.8152  1.4845  2.0476
10770TIP3    H253726   5.642   1.794  11.336 -0.0363 -1.8642 -1.0355
10771TIP3   OH253727   2.309   0.149  14.948 -0.1715  0.1073 -0.1917
10771TIP3    H153728   2.234   0.133  15.005 -0.0447 -1.4009 -0.4098
10771TIP3    H253729   2.276   0.209  14.881 -0.3413  1.8148  1.4057
10772TIP3   OH253730   1.052   1.223  11.505 -0.3671 -0.1464 -0.3243
10772TIP3    H153731   1.098   1.259  11.429 -0.5908 -0.2823 -0.5251
10772TIP3    H253732   0.965   1.263  11.501 -0.7475 -1.0219 -0.7733
10773TIP3   OH253733   3.812   2.448   0.024 -0.2372  0.0522  0.3433
10773TIP3    H153734   3.878   2.512   0.049 -0.7459 -0.0161  1.9818
10773TIP3    H253735   3.734   2.473   0.074 -0.8090 -1.1119  0.0696
10774TIP3   OH253736   1.233   1.593  12.602 -0.2222 -0.2169 -0.1736
10774TIP3    H153737   1.216   1.604  12.695 -0.4681 -0.5496 -0.1750
10774TIP3    H253738   1.157   1.544  12.570  0.1233 -0.5801 -0.4417
10775TIP3   OH253739   6.348   6.415   4.682  0.3049  0.7511  0.5165
10775TIP3    H153740   6.401   6.334   4.681 -0.4493  0.2530  0.7893
10775TIP3    H253741   6.376   6.461   4.603  0.9967  0.3888  0.5373
10776TIP3   OH253742   2.297   6.280   1.301 -0.0234  0.3992 -0.2451
10776TIP3    H153743   2.318   6.345   1.368 -0.0562  0.3841 -0.2201
10776TIP3    H253744   2.382   6.251   1.268 -0.0331  1.1102 -0.8833
10777TIP3   OH253745   0.760   0.936  11.800 -0.2791 -0.1722  0.0176
10777TIP3    H153746   0.671   0.971  11.790  0.7780  2.2239 -1.2855
10777TIP3    H253747   0.817   1.010  11.784  2.0131 -1.9324 -0.1873
10778TIP3   OH253748   3.405   2.900  14.511 -0.0917 -0.3827 -0.6770
10778TIP3    H153749   3.400   2.925  14.419 -0.3874 -0.0843 -0.5794
10778TIP3    H253750   3.491   2.931  14.539  0.0249 -0.5320 -0.8699
10779TIP3   OH253751   4.829   4.411  11.194 -0.2850  0.3804  0.0162
10779TIP3    H153752   4.779   4.428  11.114  1.3464 -1.1255 -1.3716
10779TIP3    H253753   4.766   4.370  11.254 -1.0806 -0.1707 -1.1791
10780TIP3   OH253754   1.763   5.377   3.828 -0.1951 -0.6412  0.4321
10780TIP3    H153755   1.705   5.348   3.899 -0.1168  1.9702  1.6302
10780TIP3    H253756   1.733   5.466   3.807  2.2441  0.0885 -0.1360
10781TIP3   OH253757   0.739   1.971  15.078 -0.1189 -0.2892  0.7143
10781TIP3    H153758   0.657   2.009  15.110 -0.3432  0.6424 -0.9430
10781TIP3    H253759   0.748   1.890  15.128 -0.4401  1.1229  3.1603
10782TIP3   OH253760   0.694   5.387   2.346  0.6616 -0.0445 -0.1604
10782TIP3    H153761   0.658   5.473   2.366  2.0707  0.8820 -1.4765
10782TIP3    H253762   0.783   5.389   2.382  0.2554 -1.4344  0.9609
10783TIP3   OH253763   3.549   5.719  15.765 -0.4651 -0.7271  0.4516
10783TIP3    H153764   3.573   5.679  15.849 -0.4922 -0.8930  0.3793
10783TIP3    H253765   3.626   5.770  15.739 -1.8370  2.6667  2.5706
10784TIP3   OH253766   1.334   0.544  12.549  0.9869 -0.2256 -0.3485
10784TIP3    H153767   1.424   0.510  12.554  0.5584 -1.0928  2.3952
10784TIP3    H253768   1.333   0.617  12.611 -0.6047 -1.2332  0.8546
10785TIP3   OH253769   0.158   3.761  12.857  0.2278  0.3297  0.0114
10785TIP3    H153770   0.176   3.847  12.896 -1.3932  0.2250  1.0346
10785TIP3    H253771   0.244   3.723  12.841  0.9543  0.4341  3.4224
10786TIP3   OH253772   0.136   1.641  10.986 -0.0101 -0.3635 -0.0194
10786TIP3    H153773   0.164   1.719  11.034 -0.1045 -0.2748 -0.1068
10786TIP3    H253774   0.175   1.651  10.900  1.5995 -1.3790  0.5696
10787TIP3   OH253775   2.464   6.106  14.370 -0.4612 -0.6803  0.4232
10787TIP3    H153776   2.509   6.190  14.369  1.8103 -1.8507  0.6872
10787TIP3    H253777   2.403   6.112  14.444  0.4750  0.3324  1.1352
10788TIP3   OH253778   4.794   6.633  11.037 -0.4148  0.1764  0.7420
10788TIP3    H153779   4.814   6.726  11.034 -1.9875  0.4977 -1.1442
10788TIP3    H253780   4.843   6.600  11.112 -0.7230  2.7397  2.1408
10789TIP3   OH253781   6.432   0.028  10.824  0.1307 -0.1763  0.0603
10789TIP3    H153782   6.458   0.117  10.845 -0.5680  0.2312 -0.7621
10789TIP3    H253783   6.351   0.038  10.774  0.4354 -1.2270 -0.6715
10790TIP3   OH253784   5.522   0.343  10.702  0.3808 -0.4351 -0.2479
10790TIP3    H153785   5.601   0.303  10.664  0.6130 -0.3659  0.1591
10790TIP3    H253786   5.451   0.286  10.674  0.7981 -1.5631  0.9578
10791TIP3   OH253787   4.063   0.924   1.218  0.0518 -0.1433  0.2986
10791TIP3    H153788   4.049   1.009   1.260  2.5518 -0.9724  2.9696
10791TIP3    H253789   4.058   0.943   1.124 -1.6877  2.4948  0.8615
10792TIP3   OH253790   2.467   2.855  12.502  0.7303  0.2454  1.0003
10792TIP3    H153791   2.439   2.914  12.572 -1.3753  0.9900 -0.4000
10792TIP3    H253792   2.518   2.787  12.546 -2.1229 -0.3716  3.5551
10793TIP3   OH253793   0.394   5.964   6.519  0.4890  0.0745 -0.3525
10793TIP3    H153794   0.331   5.894   6.501  1.2714 -0.1743 -2.2403
10793TIP3    H253795   0.441   5.935   6.597  0.8963 -1.5962 -1.1965
10794TIP3   OH253796   1.917   1.394  15.972 -0.7296  0.1088 -0.2144
10794TIP3    H153797   1.829   1.366  15.996 -1.5817  1.2695 -1.8214
10794TIP3    H253798   1.926   1.481  16.012 -0.4385  0.1213 -0.3044
10795TIP3   OH253799   0.204   1.103  11.228 -0.4627 -0.1804 -0.0575
10795TIP3    H153800   0.132   1.151  11.187  0.4133 -0.8528 -2.4657
10795TIP3    H253801   0.283   1.148  11.197  0.2018  0.1517  2.0312
10796TIP3   OH253802   2.048   5.594  12.073  0.4457 -0.0437 -0.1091
10796TIP3    H153803   2.041   5.644  11.992  0.7226 -0.3686 -0.3339
10796TIP3    H253804   1.962   5.603  12.114  0.0909 -0.4177 -0.7567
10797TIP3   OH253805   4.507   0.315  11.043  0.4044  0.3238  0.1319
10797TIP3    H153806   4.484   0.222  11.040 -0.9194  0.6217  0.9562
10797TIP3    H253807   4.559   0.324  11.123 -0.4132  0.4990  0.6486
10798TIP3   OH253808   2.966   3.674  13.958  0.1623 -0.4422  0.5705
10798TIP3    H153809   3.002   3.704  14.041 -0.9928 -0.2785  1.0229
10798TIP3    H253810   2.962   3.579  13.966  1.4201 -0.5380  0.1297
10799TIP3   OH253811   1.414   4.571   1.985 -0.0990 -0.1393  0.8114
10799TIP3    H153812   1.469   4.553   1.909  0.4598  0.0416  1.1740
10799TIP3    H253813   1.328   4.535   1.961 -0.4055  1.4608 -0.6263
10800TIP3   OH253814   4.603   0.565  13.337  0.4128  1.2814  0.3077
10800TIP3    H153815   4.582   0.542  13.246  0.9587  0.4049  0.4030
10800TIP3    H253816   4.543   0.511  13.390  2.3493 -0.6873  0.5598
10801TIP3   OH253817   2.537   0.563  14.691  0.1068  0.0462  0.0036
10801TIP3    H153818   2.526   0.642  14.745  1.2499 -0.8989  1.6736
10801TIP3    H253819   2.565   0.596  14.606  0.9592  1.4554  0.7969
10802TIP3   OH253820   4.496   0.916   0.012 -0.0079 -0.3826  0.1954
10802TIP3    H153821   4.426   0.861  -0.021 -0.6656 -0.0636  1.0499
10802TIP3    H253822   4.535   0.956  -0.066 -1.3823  0.1632 -0.2164
10803TIP3   OH253823   1.650   6.575   4.358 -0.1156  0.5813 -0.2776
10803TIP3    H153824   1.620   6.487   4.338  0.2076  0.5831 -0.7804
10803TIP3    H253825   1.684   6.609   4.275 -1.2871  1.6038 -0.3630
10804TIP3   OH253826   6.067   3.047   5.087  0.2584 -0.1230 -0.1577
10804TIP3    H153827   5.997   3.084   5.141  1.4611  1.5366  0.3234
10804TIP3    H253828   6.087   2.962   5.127 -0.3602  0.1242  0.6837
10805TIP3   OH253829   6.156   5.819  16.062  0.2044  0.6551 -0.4052
10805TIP3    H153830   6.198   5.788  15.982  0.0902  1.4770 -0.7849
10805TIP3    H253831   6.227   5.828  16.125  0.2781 -0.1001 -0.3816
10806TIP3   OH253832   3.870   6.232   3.675  0.0340  0.3604 -0.0504
10806TIP3    H153833   3.963   6.248   3.690 -0.6124  1.8119  2.6868
10806TIP3    H253834   3.843   6.177   3.749 -1.1163 -0.8029 -1.3032
10807TIP3   OH253835   4.508   2.065  15.774  0.0212 -0.1641  0.7432
10807TIP3    H153836   4.551   1.980  15.785 -0.3393 -0.6352 -1.2607
10807TIP3    H253837   4.569   2.114  15.718 -1.7450 -0.6345 -1.6483
10808TIP3   OH253838   5.561   1.411   6.115  0.6091  0.0562 -0.2548
10808TIP3    H153839   5.531   1.370   6.196  0.1028 -1.1290 -1.0198
10808TIP3    H253840   5.649   1.443   6.134  0.3576  0.0871  0.8582
10809TIP3   OH253841   3.380   5.962  16.868 -0.4281 -0.5578  0.1926
10809TIP3    H153842   3.442   6.027  16.900  0.0858 -1.4597  1.0738
10809TIP3    H253843   3.400   5.953  16.774  0.3923 -0.4251  0.3542
10810TIP3   OH253844   3.032   5.277  17.166  0.2786  0.3784 -0.2650
10810TIP3    H153845   2.977   5.277  17.244  1.4372  0.9990  0.5703
10810TIP3    H253846   2.972   5.257  17.094 -0.4582 -2.3391  1.0117
10811TIP3   OH253847   0.092   2.017   3.002  0.2875  0.2640 -0.1190
10811TIP3    H153848   0.077   2.110   3.015 -1.9626 -0.2817  1.5546
10811TIP3    H253849   0.016   1.987   2.951  0.8325 -0.7152 -0.3793
10812TIP3   OH253850   6.113   5.368  14.566 -0.3487  0.3239  0.5800
10812TIP3    H153851   6.121   5.300  14.634 -1.3448 -1.2667 -0.8626
10812TIP3    H253852   6.188   5.425  14.582  1.2022 -1.7788  1.1187
10813TIP3   OH253853   4.584   2.627   5.863  0.2531 -0.0940  0.2356
10813TIP3    H153854   4.621   2.713   5.843  0.0433  0.1734  0.9966
10813TIP3    H253855   4.570   2.628   5.958  0.3847 -1.0204  0.2688
10814TIP3   OH253856   2.336   3.141   1.193  0.5216 -0.4930  0.2205
10814TIP3    H153857   2.361   3.198   1.120 -0.3830  0.1734  0.4256
10814TIP3    H253858   2.260   3.093   1.161  0.2501 -0.3503  0.6492
10815TIP3   OH253859   0.241   0.190  16.021  0.7871 -0.2755 -0.3147
10815TIP3    H153860   0.255   0.253  15.951 -1.8546 -1.1988 -1.7498
10815TIP3    H253861   0.152   0.208  16.052  2.1645  0.5915  3.3235
10816TIP3   OH253862   3.322   3.402  11.918 -0.3123 -0.6696  0.0771
10816TIP3    H153863   3.396   3.435  11.969 -2.5287  2.1108  1.6142
10816TIP3    H253864   3.307   3.469  11.851 -0.3054 -2.1110 -1.3909
10817TIP3   OH253865   3.560   3.173  15.497  0.8406 -0.9121  0.6875
10817TIP3    H153866   3.496   3.103  15.505  0.6163 -0.5581  2.1888
10817TIP3    H253867   3.588   3.170  15.405 -2.5931  0.0675 -0.4687
10818TIP3   OH253868   5.469   0.520   2.902 -0.9445  0.0066 -0.4512
10818TIP3    H153869   5.548   0.563   2.935 -0.8637 -0.4929  0.0123
10818TIP3    H253870   5.400   0.586   2.913 -0.7884  0.0809  0.0882
10819TIP3   OH253871   4.530   3.333  12.106  0.1049 -0.0823  0.0048
10819TIP3    H153872   4.607   3.356  12.055  0.1476 -0.8669 -0.2943
10819TIP3    H253873   4.561   3.270  12.171  0.0155  0.7774  0.8887
10820TIP3   OH253874   6.158   1.305   4.923  0.2546  0.4224 -0.4093
10820TIP3    H153875   6.148   1.302   5.018  1.3776 -2.2506 -0.3567
10820TIP3    H253876   6.191   1.394   4.906  0.6330  0.7283  1.7389
10821TIP3   OH253877   4.753   5.992  16.930 -0.3158 -0.5937  0.4096
10821TIP3    H153878   4.751   5.940  16.849  0.0066  1.0786 -0.6927
10821TIP3    H253879   4.795   5.935  16.994 -1.0550 -2.1442 -0.4596
10822TIP3   OH253880   4.590   3.888   6.197 -0.0452  0.4453 -0.2323
10822TIP3    H153881   4.619   3.952   6.132  0.0746 -0.3633 -0.9803
10822TIP3    H253882   4.498   3.911   6.214 -0.6581 -0.4914 -2.1041
10823TIP3   OH253883   3.470   1.025  11.167  0.8322 -0.0012  0.7821
10823TIP3    H153884   3.487   0.963  11.096 -0.4402  0.9847 -0.4042
10823TIP3    H253885   3.374   1.024  11.177  0.6019  3.2830 -0.6554
10824TIP3   OH253886   5.283   4.513   5.748  0.0590 -0.1504 -0.1398
10824TIP3    H153887   5.238   4.534   5.830 -0.7349  1.5602 -0.9767
10824TIP3    H253888   5.318   4.425   5.761 -1.6991 -0.6516  1.3244
10825TIP3   OH253889   3.499   5.781   2.441  0.2563 -0.2651  0.4732
10825TIP3    H153890   3.414   5.748   2.470  1.2690 -0.7428  2.9855
10825TIP3    H253891   3.510   5.744   2.353 -2.8674  1.1932 -0.6002
10826TIP3   OH253892   4.084   2.584  10.633 -0.3039  0.9995  0.1070
10826TIP3    H153893   4.104   2.521  10.563  0.2322 -1.4789  2.4333
10826TIP3    H253894   4.109   2.669  10.596  3.3755 -0.6463 -1.4502
10827TIP3   OH253895   0.220   5.870   1.294 -0.2487  0.0542  0.2272
10827TIP3    H153896   0.183   5.953   1.324  0.8038  0.7630 -0.3940
10827TIP3    H253897   0.312   5.890   1.275  0.3020 -1.5344  1.1565
10828TIP3   OH253898   5.033   2.482   0.959 -0.0679 -0.7409  0.0157
10828TIP3    H153899   5.114   2.450   0.920  0.5825 -0.4408  1.1116
10828TIP3    H253900   4.970   2.411   0.945  1.1405 -2.1660  1.6669
10829TIP3   OH253901   0.368   0.813   2.187  0.1673  0.1202 -0.0528
10829TIP3    H153902   0.394   0.737   2.135  0.1170 -0.1682  0.3362
10829TIP3    H253903   0.370   0.887   2.126 -1.8358 -0.5334 -0.9429
10830TIP3   OH253904   0.892   0.172   5.014 -0.2582 -0.4147  0.1950
10830TIP3    H153905   0.950   0.115   5.064  0.6612  0.0562 -0.3183
10830TIP3    H253906   0.876   0.124   4.932  1.6522  0.6427 -0.8413
10831TIP3   OH253907   6.434   2.943   3.816 -0.4255  0.2762 -0.1171
10831TIP3    H153908   6.437   3.034   3.846 -0.4457 -0.4382  2.1380
10831TIP3    H253909   6.523   2.911   3.828 -0.6840 -0.3326  0.1809
10832TIP3   OH253910   4.682   4.187   4.873  0.3912 -0.2105 -0.0878
10832TIP3    H153911   4.744   4.255   4.899 -0.6508  0.6208  0.2348
10832TIP3    H253912   4.658   4.209   4.783 -1.2256  0.8355  0.5703
10833TIP3   OH253913   1.695   2.695  14.257  0.4312 -0.2908  0.2960
10833TIP3    H153914   1.729   2.605  14.259  0.8137 -0.1703 -0.7014
10833TIP3    H253915   1.600   2.684  14.255  0.3858 -0.6350  2.4047
10834TIP3   OH253916   5.537   4.887   6.151 -0.0257  0.0502  0.5148
10834TIP3    H153917   5.579   4.805   6.124 -1.0340  0.0788 -1.2149
10834TIP3    H253918   5.462   4.859   6.203  0.8721 -0.0610  1.7582
10835TIP3   OH253919   0.407   0.050   4.009  0.0644  0.3087  0.2589
10835TIP3    H153920   0.312   0.041   4.004  0.1471 -0.5631  0.0522
10835TIP3    H253921   0.424   0.144   4.002 -0.8114  0.5048  0.7971
10836TIP3   OH253922   3.073   2.011  12.968 -0.3281 -0.4890  0.6898
10836TIP3    H153923   3.158   2.015  13.012 -0.6262  0.3595  1.1995
10836TIP3    H253924   3.048   1.919  12.972  1.7914 -1.2311 -1.8460
10837TIP3   OH253925   0.703   0.163  15.089  0.4109  1.0784  0.0770
10837TIP3    H153926   0.795   0.191  15.094  1.0037 -0.7531  0.0409
10837TIP3    H253927   0.702   0.079  15.136 -1.4859  1.6338  1.0791
10838TIP3   OH253928   3.123   0.492   0.757  0.1811  0.0375  0.0794
10838TIP3    H153929   3.028   0.495   0.749  0.2676 -0.5135 -1.1999
10838TIP3    H253930   3.153   0.448   0.678  1.4978  0.0878  0.5311
10839TIP3   OH253931   6.618   5.219  14.224  0.4133  0.3278  0.9970
10839TIP3    H153932   6.563   5.148  14.258 -0.6242 -0.6200 -2.4436
10839TIP3    H253933   6.699   5.176  14.198 -0.3774  0.2482 -1.4951
10840TIP3   OH253934   1.628   0.251   3.999 -0.1177 -0.3328  0.8080
10840TIP3    H153935   1.711   0.212   3.973  0.2921  0.7360  0.5154
10840TIP3    H253936   1.649   0.306   4.074 -0.2727  1.1822 -0.2429
10841TIP3   OH253937   0.937   5.812  10.709  0.2720  0.2818 -0.6421
10841TIP3    H153938   0.849   5.779  10.726  0.4362 -0.7872 -1.8161
10841TIP3    H253939   0.929   5.907  10.717 -1.4632  0.3501 -2.7958
10842TIP3   OH253940   3.077   6.085   5.723 -0.1254 -0.1474 -0.9350
10842TIP3    H153941   3.057   6.116   5.811 -0.6106  1.1172 -1.4858
10842TIP3    H253942   3.162   6.042   5.731 -0.8037 -1.2815  0.4256
10843TIP3   OH253943   1.827   4.966   5.228 -0.9486 -0.5445 -0.4434
10843TIP3    H153944   1.862   4.993   5.313  1.2351 -0.1684 -1.4412
10843TIP3    H253945   1.833   4.871   5.228  0.4673 -0.4600 -0.7664
10844TIP3   OH253946   1.230   2.820   3.240 -0.4302 -0.4517  0.1860
10844TIP3    H153947   1.227   2.794   3.148  0.0917 -0.5113  0.1855
10844TIP3    H253948   1.323   2.837   3.257 -0.7040  1.0141  0.2988
10845TIP3   OH253949   3.478   5.793   1.782  0.2332 -0.3979 -0.0418
10845TIP3    H153950   3.462   5.706   1.745 -1.4810  0.1385 -0.6282
10845TIP3    H253951   3.431   5.792   1.866 -0.1461  0.0923 -0.2457
10846TIP3   OH253952   0.750   1.804   1.784  0.3169  0.2396  0.1292
10846TIP3    H153953   0.800   1.841   1.857 -0.7923  0.1961  0.9204
10846TIP3    H253954   0.699   1.878   1.750  0.5898  0.1860 -0.4047
10847TIP3   OH253955   2.555   6.748  15.544 -0.0078  0.4038 -0.2447
10847TIP3    H153956   2.507   6.795  15.476  0.1239  0.7462 -0.1001
10847TIP3    H253957   2.640   6.728  15.505  0.2181  0.9564 -0.0414
10848TIP3   OH253958   3.411   4.169  13.874 -0.0918 -0.1093 -0.5029
10848TIP3    H153959   3.458   4.133  13.798  0.7119 -0.7601  0.2964
10848TIP3    H253960   3.319   4.150  13.855  0.0968 -0.2145 -1.3503
10849TIP3   OH253961   4.967   3.543  15.843 -0.9818 -0.1609 -0.1638
10849TIP3    H153962   4.873   3.528  15.849 -1.0797 -0.7338 -2.6697
10849TIP3    H253963   5.006   3.457  15.860 -0.9748 -0.2524 -0.6403
10850TIP3   OH253964   6.446   2.051   3.087  0.2826 -0.2685  0.5742
10850TIP3    H153965   6.418   2.140   3.109  1.4934  0.5750 -1.2221
10850TIP3    H253966   6.483   2.017   3.169  0.2213  1.0317  1.1536
10851TIP3   OH253967   5.386   0.594   4.745  0.3115  0.0780  0.2505
10851TIP3    H153968   5.466   0.635   4.712  0.6486 -0.4490  0.3969
10851TIP3    H253969   5.389   0.505   4.708 -0.1002 -0.0071  0.4244
10852TIP3   OH253970   4.486   0.451  15.189  0.2201  0.2287 -0.0445
10852TIP3    H153971   4.434   0.517  15.143 -0.3017 -0.7525 -0.8713
10852TIP3    H253972   4.474   0.471  15.282 -1.2872  0.2708 -0.2375
10853TIP3   OH253973   4.403   2.746   4.726 -0.7459 -0.3901 -0.6307
10853TIP3    H153974   4.473   2.808   4.745 -0.5721 -0.6158 -0.5169
10853TIP3    H253975   4.371   2.720   4.812 -2.2942  1.1916 -0.7213
10854TIP3   OH253976   2.008   0.713   4.232 -0.1924 -0.1011  0.4096
10854TIP3    H153977   2.057   0.642   4.274  0.5379  0.5999  0.7518
10854TIP3    H253978   1.983   0.677   4.147  0.4672 -0.6523  0.4367
10855TIP3   OH253979   2.311   4.938   3.722  0.2453 -0.2357 -0.2268
10855TIP3    H153980   2.386   4.900   3.676  0.3155  0.1430 -0.4193
10855TIP3    H253981   2.350   4.986   3.796  0.2531  0.7504 -0.8699
10856TIP3   OH253982   1.478   2.944   0.894  0.3737  0.3387  0.0023
10856TIP3    H153983   1.419   2.952   0.969  0.1864  0.6171 -0.1776
10856TIP3    H253984   1.561   2.981   0.926  0.5202 -0.2325  0.3196
10857TIP3   OH253985   3.171   3.074  15.501 -0.9904 -0.1437  0.2167
10857TIP3    H153986   3.131   3.037  15.423 -0.5138  0.4992 -0.3399
10857TIP3    H253987   3.108   3.058  15.571 -1.4287 -0.7007 -0.3034
10858TIP3   OH253988   4.182   0.890  10.822 -0.0119 -0.1546  0.1297
10858TIP3    H153989   4.189   0.797  10.846  0.2893 -0.4626 -1.1037
10858TIP3    H253990   4.115   0.925  10.880 -0.5987 -1.3026  0.1688
10859TIP3   OH253991   5.994   2.645   0.638  0.0163  0.4787  0.2002
10859TIP3    H153992   6.082   2.655   0.602 -0.6441  0.0621 -1.5468
10859TIP3    H253993   5.982   2.550   0.644 -0.2627  0.5396  0.5730
10860TIP3   OH253994   0.246   3.031  10.827 -0.0420  0.0547  0.2711
10860TIP3    H153995   0.304   3.103  10.803 -0.3997  0.7360  1.4372
10860TIP3    H253996   0.159   3.059  10.799 -0.0814 -0.2063  0.1298
10861TIP3   OH253997   6.213   4.304  13.623  0.3999 -0.4512  0.0570
10861TIP3    H153998   6.130   4.352  13.623  0.2064 -0.7288  2.6675
10861TIP3    H253999   6.193   4.220  13.664  1.7983 -0.8338  0.0041
10862TIP3   OH254000   4.511   4.387   6.151 -0.4286  0.7859  0.3567
10862TIP3    H154001   4.544   4.319   6.209 -0.8348 -0.0922 -0.4365
10862TIP3    H254002   4.421   4.403   6.182 -0.4432  0.7400  0.3372
10863TIP3   OH254003   3.447   4.546  15.024  0.6108  1.0766 -0.1508
10863TIP3    H154004   3.363   4.527  14.981 -0.3938  1.2781  1.6981
10863TIP3    H254005   3.436   4.633  15.062  2.0569  1.5704 -0.8172
10864TIP3   OH254006   5.784   0.516  10.645  0.7678  0.1218  0.2764
10864TIP3    H154007   5.700   0.471  10.652  1.0385 -0.2442  1.2122
10864TIP3    H254008   5.790   0.541  10.553  0.0891 -0.7378 -0.0081
10865TIP3   OH254009   1.704   1.479   3.575 -0.5287  0.1506 -0.0652
10865TIP3    H154010   1.733   1.567   3.597 -0.6171 -0.1131  1.1312
10865TIP3    H254011   1.694   1.435   3.659  0.0958 -1.1929 -0.6806
10866TIP3   OH254012   0.133   6.250   1.053 -0.3061  0.1116 -0.5198
10866TIP3    H154013   0.144   6.343   1.069  0.3087 -0.4353  2.5332
10866TIP3    H254014   0.219   6.221   1.022 -0.1646  0.3466 -0.3490
10867TIP3   OH254015   5.548   5.722  14.238  0.6728 -0.1828  0.2752
10867TIP3    H154016   5.455   5.731  14.254  0.2239 -0.5988 -1.8864
10867TIP3    H254017   5.590   5.748  14.320 -1.3310  0.0601  1.2379
10868TIP3   OH254018   1.082   5.740  13.019  0.4997 -0.2499  0.4695
10868TIP3    H154019   1.159   5.797  13.019 -1.1855  2.1271  3.3622
10868TIP3    H254020   1.052   5.740  13.110 -2.1044 -2.2789 -0.3426
10869TIP3   OH254021   1.460   1.802  12.297  0.1170  0.2807 -0.2655
10869TIP3    H154022   1.444   1.868  12.229  0.5729  1.3655  0.6571
10869TIP3    H254023   1.555   1.794  12.302  0.0460 -1.2181 -1.0821
10870TIP3   OH254024   6.186   2.817  16.085  0.0940 -0.1773  0.4562
10870TIP3    H154025   6.244   2.851  16.153 -1.5226  0.2665  1.6422
10870TIP3    H254026   6.242   2.761  16.032  1.4362 -0.3635  2.0226
10871TIP3   OH254027   6.323   3.553  15.751  0.5208  0.1634  0.2384
10871TIP3    H154028   6.347   3.470  15.792  0.3400  0.5052  1.0562
10871TIP3    H254029   6.349   3.619  15.815 -1.2096  0.6245  0.5023
10872TIP3   OH254030   1.151   5.270  12.588 -0.2597  0.3133 -0.8098
10872TIP3    H154031   1.111   5.183  12.592 -0.8480  0.5746 -0.9130
10872TIP3    H254032   1.127   5.304  12.502 -0.0845  0.6033 -0.7468
10873TIP3   OH254033   1.676   3.862   1.409  0.7334 -0.4305 -0.4587
10873TIP3    H154034   1.745   3.874   1.474 -0.2291  3.0264 -0.0197
10873TIP3    H254035   1.716   3.890   1.326  1.1145 -2.3446 -0.9606
10874TIP3   OH254036   4.904   3.166  14.955  0.5279  0.4461  0.1865
10874TIP3    H154037   4.913   3.229  15.026 -1.8066 -0.7551  1.6362
10874TIP3    H254038   4.887   3.219  14.877  1.6818  1.7147  0.7894
10875TIP3   OH254039   1.149   4.895  11.582  0.3871 -0.4405  0.5821
10875TIP3    H154040   1.113   4.860  11.500  2.0918 -1.5138  0.2848
10875TIP3    H254041   1.179   4.983  11.559 -1.5362  0.2661  0.7056
10876TIP3   OH254042   6.682   3.770   2.125 -1.0100 -0.1840 -0.1611
10876TIP3    H154043   6.663   3.860   2.149  2.2617 -0.3364  3.4113
10876TIP3    H254044   6.622   3.717   2.177 -0.8159 -0.1445  0.1062
10877TIP3   OH254045   1.015   2.295   2.120 -0.2150  0.7384  0.2052
10877TIP3    H154046   1.103   2.331   2.109 -0.1404  0.6276  0.4267
10877TIP3    H254047   0.986   2.274   2.031 -0.1654  1.1230  0.0970
10878TIP3   OH254048   3.319   2.443  16.381  0.5656  0.6343  0.1868
10878TIP3    H154049   3.356   2.479  16.301  0.6107  1.5185  0.5945
10878TIP3    H254050   3.229   2.474  16.382 -0.4194 -2.0735 -1.1351
10879TIP3   OH254051   0.287   5.852   3.973 -0.6069 -0.0385  0.0559
10879TIP3    H154052   0.316   5.869   4.062 -1.1733 -1.1535  0.4526
10879TIP3    H254053   0.341   5.780   3.942  0.1098  0.8316 -0.7856
10880TIP3   OH254054   5.029   5.573   2.018 -0.5937  1.0064 -0.3472
10880TIP3    H154055   5.088   5.611   2.083 -1.0362 -1.5320  1.6120
10880TIP3    H254056   4.941   5.589   2.053 -0.8551  0.0669 -0.5543
10881TIP3   OH254057   4.914   0.448   4.042  0.0112 -0.6604 -0.4177
10881TIP3    H154058   4.939   0.376   4.099 -0.4225 -1.7005 -1.5222
10881TIP3    H254059   4.819   0.453   4.049  0.3151  2.6286  2.9741
10882TIP3   OH254060   2.799   3.950  12.716  0.1541 -0.0678 -0.4997
10882TIP3    H154061   2.746   4.018  12.674  1.4755  0.6005 -1.1003
10882TIP3    H254062   2.736   3.881  12.737 -0.8004  0.2776 -2.1145
10883TIP3   OH254063   6.616   6.497  15.150 -0.1705 -0.0008 -1.0011
10883TIP3    H154064   6.684   6.508  15.084  0.2492  0.7121 -0.4499
10883TIP3    H254065   6.657   6.522  15.232 -0.2973 -2.1457 -0.2495
10884TIP3   OH254066   4.492   3.260   2.102 -0.3289  0.7125 -0.1771
10884TIP3    H154067   4.398   3.245   2.100 -0.4467  1.4895 -3.0909
10884TIP3    H254068   4.502   3.355   2.091  0.7775  0.5917 -0.3313
10885TIP3   OH254069   1.303   0.624   2.198 -0.3181 -0.0678  0.5065
10885TIP3    H154070   1.281   0.531   2.209 -0.8513 -0.0984 -0.7337
10885TIP3    H254071   1.251   0.669   2.264 -1.4434 -0.4930 -0.0729
10886TIP3   OH254072   1.092   1.579  11.347 -0.6923 -0.1052  0.0604
10886TIP3    H154073   1.099   1.610  11.257  0.5125  0.9128  0.4914
10886TIP3    H254074   1.025   1.634  11.387  1.5963  2.1908  0.8890
10887TIP3   OH254075   1.923   4.675  17.023  0.6014 -0.4189  0.5879
10887TIP3    H154076   1.990   4.641  16.963  0.5258 -0.7294  0.6793
10887TIP3    H254077   1.842   4.671  16.973  0.4996 -0.8969  0.7934
10888TIP3   OH254078   4.499   6.331  11.271 -0.1216  0.7363 -0.7969
10888TIP3    H154079   4.405   6.327  11.254 -0.2211 -0.9776  0.0633
10888TIP3    H254080   4.511   6.414  11.318 -1.3239  0.6104 -0.2448
10889TIP3   OH254081   3.878   5.004  14.978 -0.3541 -0.5238 -0.5085
10889TIP3    H154082   3.838   5.083  14.942  0.2877 -0.5295 -1.2427
10889TIP3    H254083   3.891   4.947  14.903 -2.6257 -2.1526  0.2878
10890TIP3   OH254084   6.388   6.619   2.747  0.1161  0.0957 -0.6015
10890TIP3    H154085   6.461   6.646   2.692 -0.4848  0.3869 -1.2738
10890TIP3    H254086   6.339   6.699   2.764 -0.7893 -0.2941 -1.2811
10891TIP3   OH254087   6.351   3.908   5.836  0.6735 -0.6584 -1.0374
10891TIP3    H154088   6.339   3.928   5.744 -0.4113  0.2606 -0.6954
10891TIP3    H254089   6.270   3.865   5.863  1.2997 -1.6650 -0.7003
10892TIP3   OH254090   2.002   6.006   5.622 -0.2210  0.0572 -0.1027
10892TIP3    H154091   1.944   6.039   5.553  1.4085  2.3442 -0.4104
10892TIP3    H254092   2.083   5.984   5.576  0.0836 -0.6127  0.7495
10893TIP3   OH254093   0.057   1.387   3.953  0.2478  0.8429 -0.3797
10893TIP3    H154094   0.128   1.411   4.012 -0.4260  0.3557  0.6459
10893TIP3    H254095   0.098   1.330   3.887  0.9740  1.2783 -0.3043
10894TIP3   OH254096   2.739   3.522   2.702 -0.1317  0.0207 -0.3194
10894TIP3    H154097   2.682   3.589   2.665 -0.9726  0.7355  2.1782
10894TIP3    H254098   2.680   3.452   2.729  0.5154 -0.7098 -0.7726
10895TIP3   OH254099   5.562   6.267  12.401 -0.0226  0.1093  0.2597
10895TIP3    H154100   5.575   6.215  12.480 -1.6218 -0.3794  0.2132
10895TIP3    H254101   5.622   6.341  12.411 -0.3337  0.1395  1.9976
10896TIP3   OH254102   4.266   1.605  16.399 -0.1734 -0.1798  0.3440
10896TIP3    H154103   4.245   1.675  16.338 -0.0916 -0.4799 -0.0334
10896TIP3    H254104   4.359   1.617  16.418 -0.2692  0.0946  0.6492
10897TIP3   OH254105   5.756   2.526  11.454  0.2408  0.0023  0.3547
10897TIP3    H154106   5.816   2.564  11.518  0.8598 -0.7307  0.2226
10897TIP3    H254107   5.784   2.562  11.370  0.3404 -0.1438  0.3241
10898TIP3   OH254108   0.473   2.721   3.314 -0.7497  0.0841  0.4357
10898TIP3    H154109   0.541   2.736   3.380  0.2574  2.1095 -1.0043
10898TIP3    H254110   0.498   2.639   3.272  0.7153  0.6949  0.0758
10899TIP3   OH254111   1.241   0.303   1.235 -0.8974 -0.5509 -0.1034
10899TIP3    H154112   1.212   0.358   1.163 -2.5221  1.7424  2.2434
10899TIP3    H254113   1.313   0.352   1.276 -1.2114 -0.9609  0.9670
10900TIP3   OH254114   4.870   6.640   1.080 -0.3164 -0.2802 -0.4335
10900TIP3    H154115   4.900   6.584   1.008 -0.8876 -0.3104 -0.6520
10900TIP3    H254116   4.940   6.705   1.091  1.1122 -1.9971  0.9130
10901TIP3   OH254117   6.723   3.752  14.965  0.1933  0.0796 -0.5720
10901TIP3    H154118   6.802   3.764  15.018  0.4510 -0.3210 -0.8593
10901TIP3    H254119   6.675   3.682  15.009 -0.3295  0.7759 -0.0250
10902TIP3   OH254120   5.654   3.379   1.848 -0.1103 -0.2200 -0.0675
10902TIP3    H154121   5.614   3.316   1.787 -1.7868  0.2880  0.4665
10902TIP3    H254122   5.710   3.434   1.793 -1.1246 -0.1541 -1.0583
10903TIP3   OH254123   0.390   0.544   5.554  0.6253  0.7010  0.3282
10903TIP3    H154124   0.417   0.515   5.466  1.4977 -0.4636  0.9681
10903TIP3    H254125   0.409   0.638   5.555 -0.9189  1.0632 -1.2954
10904TIP3   OH254126   4.985   3.359  16.912 -0.0751 -0.7314 -0.0792
10904TIP3    H154127   4.998   3.288  16.975 -1.4861 -0.8948  0.0392
10904TIP3    H254128   4.891   3.361  16.897 -0.2240  1.9042  0.8633
10905TIP3   OH254129   6.268   0.185   0.660  0.4804  0.3715 -0.0503
10905TIP3    H154130   6.345   0.156   0.610  1.4703  0.7500  1.2451
10905TIP3    H254131   6.297   0.263   0.706 -0.0416 -0.7314  2.1893
10906TIP3   OH254132   4.992   5.310  16.754 -0.4222  0.3634 -0.3264
10906TIP3    H154133   4.978   5.232  16.807  1.7321 -1.7279 -2.6339
10906TIP3    H254134   5.069   5.288  16.701 -1.1075  3.2041 -2.6142
10907TIP3   OH254135   4.054   6.534   4.993  0.5540  0.4306 -0.3317
10907TIP3    H154136   4.066   6.617   4.947  0.5411  0.1680 -0.8140
10907TIP3    H254137   4.043   6.470   4.923 -1.0376  0.2517  0.0710
10908TIP3   OH254138   5.248   2.554   1.107  0.1010 -0.6157 -0.1924
10908TIP3    H154139   5.248   2.640   1.149  2.2859  0.0149 -1.4139
10908TIP3    H254140   5.158   2.543   1.075 -0.2352  1.1332  0.0980
10909TIP3   OH254141   4.352   3.771   1.746  0.6140  0.3562 -0.2024
10909TIP3    H154142   4.323   3.796   1.659  1.7150  0.7139 -0.4799
10909TIP3    H254143   4.403   3.691   1.733 -2.8646 -2.1146  0.6848
10910TIP3   OH254144   3.722   3.152  14.995  0.0104 -0.1504 -0.4098
10910TIP3    H154145   3.639   3.124  14.957  1.1481 -3.4950 -0.6030
10910TIP3    H254146   3.773   3.184  14.921 -0.9219  1.5889 -0.3395
10911TIP3   OH254147   4.100   1.629   2.004 -0.8288  0.1487 -0.0874
10911TIP3    H154148   4.095   1.546   2.053 -0.7656  0.3504  0.2627
10911TIP3    H254149   4.149   1.688   2.062 -2.5170  1.0106  0.5023
10912TIP3   OH254150   1.221   4.705   5.360 -0.3796  0.1001 -0.3733
10912TIP3    H154151   1.204   4.733   5.450 -0.1585  0.7964 -0.5468
10912TIP3    H254152   1.199   4.612   5.359 -1.1447  0.2755  0.2022
10913TIP3   OH254153   3.011   6.529  14.598  0.1707  0.0087 -0.3529
10913TIP3    H154154   2.936   6.566  14.643 -1.1553  0.1073 -2.5835
10913TIP3    H254155   3.079   6.597  14.605 -0.5648  0.7082  0.0297
10914TIP3   OH254156   5.330   2.088   3.839  0.3993  0.3655  0.5054
10914TIP3    H154157   5.412   2.094   3.789 -0.7739  3.0710 -1.2235
10914TIP3    H254158   5.321   2.174   3.880 -3.2801  1.4301 -2.2205
10915TIP3   OH254159   3.193   5.007  11.550  0.5585 -0.0876  0.2382
10915TIP3    H154160   3.137   5.020  11.474  1.6765 -0.9284 -0.7451
10915TIP3    H254161   3.239   5.090  11.561  1.9481 -0.6304 -1.3021
10916TIP3   OH254162   2.961   2.814  14.712  0.0329  0.0765  0.0033
10916TIP3    H154163   3.045   2.860  14.712  0.4177 -0.5925 -1.8069
10916TIP3    H254164   2.898   2.878  14.678 -0.0775  0.3525  0.7119
10917TIP3   OH254165   6.363   6.406   0.261  0.0566  0.1985 -0.0825
10917TIP3    H154166   6.340   6.324   0.305  0.8846  0.2488  0.4621
10917TIP3    H254167   6.291   6.422   0.201 -0.7558 -0.2265  0.7669
10918TIP3   OH254168   5.875   0.130   4.545 -0.2630 -0.2652 -0.4572
10918TIP3    H154169   5.938   0.169   4.484  1.2177  0.1400  1.2865
10918TIP3    H254170   5.790   0.153   4.509  0.5897  0.4323 -2.0900
10919TIP3   OH254171   2.967   3.323   1.939  0.6020  0.5350 -0.2689
10919TIP3    H154172   2.949   3.319   2.033  0.1285  0.1309 -0.3779
10919TIP3    H254173   2.945   3.236   1.906 -1.6306  1.4055 -1.1709
10920TIP3   OH254174   1.063   4.358   4.215 -0.6739  0.0828 -0.5594
10920TIP3    H154175   1.069   4.390   4.305 -0.3014 -1.0107 -0.1801
10920TIP3    H254176   0.970   4.363   4.193 -0.4064  3.1107 -1.1625
10921TIP3   OH254177   5.654   5.674  11.344 -0.1386 -0.3516 -0.2087
10921TIP3    H154178   5.669   5.652  11.251  1.0677 -1.8119  0.3077
10921TIP3    H254179   5.638   5.768  11.344 -0.8879 -0.4519 -1.9957
10922TIP3   OH254180   5.513   3.043   2.103 -0.6425 -0.0013 -0.0592
10922TIP3    H154181   5.437   3.084   2.063 -1.1727  1.0337  1.9205
10922TIP3    H254182   5.585   3.105   2.087 -0.4045 -0.5441 -1.1306
10923TIP3   OH254183   5.448   1.383  13.922 -0.0586  0.1604 -0.3475
10923TIP3    H154184   5.401   1.412  14.000 -1.1235  1.4507 -1.4452
10923TIP3    H254185   5.490   1.462  13.888  0.5642 -0.4262 -0.9487
10924TIP3   OH254186   1.950   2.403  10.328 -0.3787  0.6403 -0.5346
10924TIP3    H154187   1.912   2.331  10.277  0.0204  0.5107 -0.6531
10924TIP3    H254188   1.898   2.479  10.306  0.3138  0.7698 -1.7827
10925TIP3   OH254189   4.124   5.726  13.003 -0.4840  0.7492  0.1226
10925TIP3    H154190   4.089   5.642  12.975 -1.0668  1.6558 -1.9259
10925TIP3    H254191   4.048   5.778  13.026 -0.2814  1.5383 -0.9628
10926TIP3   OH254192   0.254   1.134   5.076 -0.6701  0.2872 -0.1965
10926TIP3    H154193   0.315   1.154   5.148 -0.2856 -2.9397  0.4662
10926TIP3    H254194   0.289   1.182   5.001  2.5534 -1.1933  0.2624
10927TIP3   OH254195   4.571   0.158  13.282  0.1262  0.8018  0.1072
10927TIP3    H154196   4.480   0.149  13.254 -0.2490 -0.0592  1.5804
10927TIP3    H254197   4.570   0.231  13.345  0.1445 -0.2918  1.4028
10928TIP3   OH254198   3.266   2.373  16.788  0.7544  0.5817  0.1378
10928TIP3    H154199   3.205   2.395  16.858 -1.1245  0.5172 -1.4121
10928TIP3    H254200   3.270   2.452  16.734  0.8079  0.0652 -0.6297
10929TIP3   OH254201   2.888   0.330   2.708  0.3765  0.0161 -0.1977
10929TIP3    H154202   2.910   0.414   2.747 -0.8494  0.5050 -0.5509
10929TIP3    H254203   2.797   0.315   2.731  0.2440 -0.6643 -1.1203
10930TIP3   OH254204   2.780   3.371  11.812  0.1655 -0.0842  0.0233
10930TIP3    H154205   2.864   3.339  11.781 -0.8285 -2.0504 -0.7182
10930TIP3    H254206   2.730   3.390  11.732 -0.9277 -1.1827  0.4305
10931TIP3   OH254207   0.445   4.732  14.056  0.3513  0.1219 -0.6880
10931TIP3    H154208   0.458   4.773  14.141  0.2593  1.3787 -1.2571
10931TIP3    H254209   0.522   4.756  14.005 -0.4482  0.9442 -1.5375
10932TIP3   OH254210   4.984   6.211   0.456  0.6370  0.1239 -0.0117
10932TIP3    H154211   5.075   6.207   0.429  0.8716  1.3979  0.5721
10932TIP3    H254212   4.978   6.288   0.513 -0.5704 -0.5437  0.8106
10933TIP3   OH254213   4.500   0.754  11.284  0.3773  0.4996  1.1687
10933TIP3    H154214   4.438   0.697  11.239  2.2988 -1.3105  0.7402
10933TIP3    H254215   4.523   0.706  11.364  0.5398  1.5707  1.7718
10934TIP3   OH254216   6.739   3.846   4.539 -0.0718  0.3603  0.4044
10934TIP3    H154217   6.720   3.843   4.445  0.0399  0.2231  0.3866
10934TIP3    H254218   6.661   3.886   4.578  0.5996  2.0390  0.0632
10935TIP3   OH254219   4.923   6.693  13.520  0.2522  0.3463  0.2480
10935TIP3    H154220   4.880   6.706  13.435  2.0262  1.3782 -0.5148
10935TIP3    H254221   5.002   6.643  13.499  0.0349 -0.5281  1.4842
10936TIP3   OH254222   5.013   4.406  14.059  0.1945 -0.1037  0.1793
10936TIP3    H154223   5.038   4.454  14.138  1.5915 -1.2144  0.4331
10936TIP3    H254224   5.090   4.353  14.038  0.0509  0.6333 -2.2920
10937TIP3   OH254225   6.622   0.649  12.489  0.3769 -0.9466  0.8615
10937TIP3    H154226   6.604   0.661  12.396  1.6388 -0.0026  0.7336
10937TIP3    H254227   6.566   0.576  12.515 -0.8653 -0.4428 -0.3636
10938TIP3   OH254228   5.574   0.854  10.475 -0.0778  0.4783 -0.0889
10938TIP3    H154229   5.495   0.901  10.449  0.4211  0.1870 -2.2531
10938TIP3    H254230   5.553   0.815  10.560 -1.6436  1.8258  0.1520
10939TIP3   OH254231   3.885   3.385   3.329 -0.8406  0.3350 -0.3707
10939TIP3    H154232   3.830   3.338   3.391 -0.6505  0.1274 -0.3571
10939TIP3    H254233   3.944   3.437   3.384 -1.4847  1.0966 -0.3930
10940TIP3   OH254234   5.786   0.362   3.611 -0.2531 -0.3524 -0.0884
10940TIP3    H154235   5.742   0.349   3.695  0.7300 -1.6377  0.2450
10940TIP3    H254236   5.753   0.446   3.579  1.1367  1.3578  2.7228
10941TIP3   OH254237   5.750   3.818   3.875 -0.5178 -0.5093 -0.1290
10941TIP3    H154238   5.813   3.791   3.808  0.1315  0.3117  0.1435
10941TIP3    H254239   5.773   3.768   3.953 -0.0317 -0.0121  0.0476
10942TIP3   OH254240   3.868   1.555  11.098  0.4918 -0.6754  0.2221
10942TIP3    H154241   3.862   1.470  11.055  0.3701 -0.3436 -0.4218
10942TIP3    H254242   3.818   1.614  11.042 -1.2811 -0.6186  1.8241
10943TIP3   OH254243   4.028   4.358   1.867 -0.2793  0.3506  0.1394
10943TIP3    H154244   4.037   4.422   1.938 -1.5336 -0.4123  0.9949
10943TIP3    H254245   4.085   4.392   1.798  2.8721 -0.1370  2.3871
10944TIP3   OH254246   2.773   1.111   4.785 -0.0556  0.2419  0.1702
10944TIP3    H154247   2.750   1.111   4.693 -0.3709  5.1375  0.1087
10944TIP3    H254248   2.690   1.100   4.831 -0.0640 -0.8854 -0.1120
10945TIP3   OH254249   3.476   0.697   3.918  0.0024  0.6808 -0.1198
10945TIP3    H154250   3.393   0.675   3.876 -0.3584  1.7239  0.0354
10945TIP3    H254251   3.458   0.694   4.012 -0.0012  1.4073 -0.0904
10946TIP3   OH254252   1.860   2.518   5.668  0.0534  0.1762  0.3303
10946TIP3    H154253   1.809   2.440   5.646 -1.1931  0.7307  1.1146
10946TIP3    H254254   1.914   2.535   5.591 -0.3784 -0.9014 -0.2177
10947TIP3   OH254255   6.099   2.733   2.764  0.1551  0.8878 -0.3180
10947TIP3    H154256   6.087   2.826   2.781  0.3126  0.3207  3.1968
10947TIP3    H254257   6.184   2.727   2.721  0.6125  2.2833  0.3598
10948TIP3   OH254258   4.536   6.396   0.160  0.1114  0.0317  0.6594
10948TIP3    H154259   4.523   6.384   0.254  1.6673 -1.3898  0.7214
10948TIP3    H254260   4.562   6.309   0.128 -1.3569  0.2760 -1.2586
10949TIP3   OH254261   4.027   5.560   2.798 -0.1664 -0.0470 -0.7932
10949TIP3    H154262   4.018   5.655   2.800  0.7538  0.0737 -1.7425
10949TIP3    H254263   3.944   5.530   2.760  0.1945  0.5029 -2.0681
10950TIP3   OH254264   5.637   0.546   3.281 -0.0596  0.6370  0.0566
10950TIP3    H154265   5.642   0.608   3.208  0.5860 -0.6103 -0.9901
10950TIP3    H254266   5.662   0.598   3.358  0.0568  1.7765 -0.7318
10951TIP3   OH254267   1.908   3.071  13.681 -0.0524 -0.5275  0.1003
10951TIP3    H154268   1.919   3.114  13.596  3.6314 -0.6597  0.4297
10951TIP3    H254269   1.890   3.143  13.742 -0.3441 -0.1813 -0.3940
10952TIP3   OH254270   6.504   4.860   5.177 -0.0651  0.2678 -0.1282
10952TIP3    H154271   6.410   4.853   5.159 -0.1452  0.9491  0.0310
10952TIP3    H254272   6.537   4.771   5.162 -0.4521  0.3755 -1.7729
10953TIP3   OH254273   3.808   0.106  14.382  0.1990  0.1734  0.5204
10953TIP3    H154274   3.715   0.106  14.407  0.0585 -1.4626  0.1001
10953TIP3    H254275   3.811   0.053  14.302  1.5623 -0.2885  0.8673
10954TIP3   OH254276   2.086   3.894   1.939 -0.0498  0.6720 -0.3899
10954TIP3    H154277   2.142   3.958   1.983 -0.8104  0.6516  0.6355
10954TIP3    H254278   2.004   3.896   1.989 -0.8782  0.5205 -1.7064
10955TIP3   OH254279   1.942   5.321   3.619  0.1812 -0.2403  0.0293
10955TIP3    H154280   1.890   5.353   3.693 -0.2208 -2.5570  0.7942
10955TIP3    H254281   2.003   5.257   3.658  2.2891  0.9967 -1.1529
10956TIP3   OH254282   2.193   3.361  11.355 -0.0548  0.3618  0.3290
10956TIP3    H154283   2.262   3.322  11.301  1.1123  2.0474  0.5781
10956TIP3    H254284   2.123   3.382  11.293 -0.7838 -2.2381  0.2094
10957TIP3   OH254285   4.372   2.278   0.650 -0.6731 -0.4281 -0.4146
10957TIP3    H154286   4.415   2.275   0.564  0.4113  0.4049  0.0773
10957TIP3    H254287   4.305   2.346   0.640 -0.8485 -0.6473 -0.7375
10958TIP3   OH254288   5.497   5.536  15.884 -0.5951 -0.2196 -0.5002
10958TIP3    H154289   5.560   5.537  15.812 -0.0732  1.0813 -0.0404
10958TIP3    H254290   5.465   5.626  15.890 -1.0879 -0.4449  0.4978
10959TIP3   OH254291   5.095   1.416  14.918 -0.6573 -0.0163  0.0239
10959TIP3    H154292   5.000   1.422  14.911 -0.7034 -1.5705 -0.8532
10959TIP3    H254293   5.125   1.507  14.915 -2.0143  0.4111 -1.2425
10960TIP3   OH254294   6.424   4.329   4.371 -0.2001  0.1645  0.2593
10960TIP3    H154295   6.494   4.394   4.372 -1.5111  1.6152 -0.5137
10960TIP3    H254296   6.348   4.376   4.339 -1.6905 -1.2495  1.6195
10961TIP3   OH254297   6.110   0.020  11.955 -0.2997 -0.5209 -0.0727
10961TIP3    H154298   6.157  -0.029  12.021 -1.4492 -1.1492  0.3040
10961TIP3    H254299   6.099  -0.042  11.882 -0.4984 -0.3683 -0.1752
10962TIP3   OH254300   6.069   3.536   0.475 -0.1765 -0.1939  0.3902
10962TIP3    H154301   6.141   3.485   0.440 -0.4167 -0.8391  0.8283
10962TIP3    H254302   6.022   3.567   0.397  0.8520  0.6491  0.0968
10963TIP3   OH254303   2.589   0.069  16.729 -0.2540  0.2520  0.5110
10963TIP3    H154304   2.596   0.142  16.791 -0.7562 -0.4154  1.3783
10963TIP3    H254305   2.679   0.049  16.705 -0.1016  1.0589  0.3749
10964TIP3   OH254306   3.400   0.825  14.602 -0.5179 -0.3958 -0.0440
10964TIP3    H154307   3.385   0.745  14.652 -3.0484  0.1924  0.2058
10964TIP3    H254308   3.490   0.817  14.570 -0.1536 -2.5308  1.4113
10965TIP3   OH254309   3.267   3.316   3.288 -0.2138 -0.1511  0.1761
10965TIP3    H154310   3.359   3.344   3.285  0.4469 -2.1418  0.9189
10965TIP3    H254311   3.218   3.393   3.262  1.6782  0.9585 -0.2294
10966TIP3   OH254312   5.766   5.612  17.114  0.3200  0.1941 -0.0148
10966TIP3    H154313   5.733   5.699  17.136 -0.3654  0.1920 -0.9807
10966TIP3    H254314   5.710   5.551  17.162  0.6006  0.2696  0.4152
10967TIP3   OH254315   4.873   6.505   2.373 -0.0269  0.0216 -0.8003
10967TIP3    H154316   4.919   6.530   2.292  0.6665  2.0916  0.2103
10967TIP3    H254317   4.942   6.471   2.430  0.0673  1.9473  0.2528
10968TIP3   OH254318   5.829   1.893  16.239 -0.6866 -0.1911  0.6124
10968TIP3    H154319   5.749   1.841  16.234 -0.6060 -0.2535 -0.1397
10968TIP3    H254320   5.805   1.978  16.203 -0.6623  0.1077  1.2877
10969TIP3   OH254321   1.884   3.890  13.372  0.1214 -0.1285 -0.0041
10969TIP3    H154322   1.840   3.909  13.289  1.6472  3.3807 -0.0793
10969TIP3    H254323   1.974   3.869  13.347  0.8271  1.8900  0.8262
10970TIP3   OH254324   0.544   3.073  12.000  0.1948  0.5782  0.3696
10970TIP3    H154325   0.490   3.090  11.923  0.5445 -1.3814 -0.3369
10970TIP3    H254326   0.631   3.052  11.964  0.2102 -0.9356  1.2487
10971TIP3   OH254327   5.259   4.452   3.217  0.5242  0.5725 -0.1753
10971TIP3    H154328   5.282   4.404   3.296  1.0365  0.4464 -0.4029
10971TIP3    H254329   5.210   4.389   3.164  0.5801  0.5208 -0.1637
10972TIP3   OH254330   4.412   4.800   2.646  0.1766  0.5179 -0.0071
10972TIP3    H154331   4.377   4.888   2.659 -1.8604 -0.5257  1.9521
10972TIP3    H254332   4.346   4.755   2.593  0.9032 -0.0262 -0.4658
10973TIP3   OH254333   3.233   3.374   1.211  0.9353 -0.1043  0.0511
10973TIP3    H154334   3.225   3.339   1.299 -0.7551 -1.5514 -0.6626
10973TIP3    H254335   3.143   3.383   1.180  1.3872  2.6991 -0.6620
10974TIP3   OH254336   1.878   4.977   3.022  0.5120  0.1439  0.0126
10974TIP3    H154337   1.833   5.020   3.095  0.9635  3.5022 -1.5897
10974TIP3    H254338   1.969   4.971   3.049  0.6115  1.0634 -0.0923
10975TIP3   OH254339   1.468   2.513   1.858 -0.1976 -0.1055  0.1922
10975TIP3    H154340   1.495   2.421   1.859  0.9239  0.2178  0.4680
10975TIP3    H254341   1.535   2.558   1.909 -0.3010  0.9838 -0.6140
10976TIP3   OH254342   0.586   1.233   6.511 -0.7751 -1.1087  0.4693
10976TIP3    H154343   0.530   1.278   6.448  2.4875  0.3139 -1.5680
10976TIP3    H254344   0.645   1.180   6.457  2.1197  0.1669  2.2446
10977TIP3   OH254345   4.130   6.345  16.125  0.3122 -0.1408 -0.0606
10977TIP3    H154346   4.187   6.380  16.057  0.9128  0.6218  0.8289
10977TIP3    H254347   4.182   6.350  16.205 -0.8121  0.0991  0.6720
10978TIP3   OH254348   1.065   1.356  14.874  0.1970  0.1533  0.0264
10978TIP3    H154349   1.105   1.317  14.952 -2.4908  0.6182  1.6842
10978TIP3    H254350   1.025   1.283  14.828 -0.8805  0.3119  0.7114
10979TIP3   OH254351   6.169   2.981   4.269  0.6165  0.3016  0.6528
10979TIP3    H154352   6.126   2.949   4.190  0.2207  1.3535  0.4362
10979TIP3    H254353   6.125   2.934   4.340  0.7324 -0.3849  0.2792
10980TIP3   OH254354   1.969   0.030  12.987  0.1193  0.5517  0.3916
10980TIP3    H154355   1.928  -0.057  12.989  0.5732  0.3428  1.0259
10980TIP3    H254356   1.917   0.082  13.048 -0.0616  0.6791  0.1270
10981TIP3   OH254357   5.673   5.823   4.632  0.2235  0.1322  0.4834
10981TIP3    H154358   5.620   5.838   4.711  0.5718  2.9842  0.2248
10981TIP3    H254359   5.744   5.887   4.638 -0.3406  1.1569 -2.6561
10982TIP3   OH254360   5.356   3.843   2.918 -0.1834  0.1288 -0.2589
10982TIP3    H154361   5.427   3.838   2.982  0.1400 -0.5936 -0.6744
10982TIP3    H254362   5.340   3.937   2.909  0.5617  0.2888  0.0134
10983TIP3   OH254363   5.991   2.953  11.678 -0.1727 -0.4529  0.0039
10983TIP3    H154364   5.915   3.010  11.667  0.1900 -0.2640 -1.6272
10983TIP3    H254365   6.013   2.959  11.771 -1.7974 -0.0666  0.3770
10984TIP3   OH254366   0.779   5.758  11.967  0.2315  0.5101 -0.3315
10984TIP3    H154367   0.824   5.829  12.012  0.0853  0.5349 -0.2243
10984TIP3    H254368   0.806   5.679  12.014  0.7320  0.4522 -0.7241
10985TIP3   OH254369   4.162   5.503   4.789  0.2015  0.2198 -0.0305
10985TIP3    H154370   4.144   5.597   4.778  0.1823  0.1570 -0.5540
10985TIP3    H254371   4.255   5.499   4.809  0.2717  0.3270 -0.3336
10986TIP3   OH254372   5.248   5.394  15.883 -0.1328 -0.3468  0.5903
10986TIP3    H154373   5.192   5.472  15.885  0.4812  0.1189  0.1783
10986TIP3    H254374   5.337   5.429  15.891  0.1294 -1.0335  0.6954
10987TIP3   OH254375   0.124   0.300  15.000  0.5051 -0.0212 -0.0199
10987TIP3    H154376   0.188   0.369  15.015  1.7721 -1.1265 -0.3066
10987TIP3    H254377   0.049   0.325  15.054  0.5350  2.1189 -0.9191
10988TIP3   OH254378   6.509   2.038   3.986  0.0637 -0.3378 -0.1209
10988TIP3    H154379   6.432   2.025   3.931 -0.3374  0.1354  0.3223
10988TIP3    H254380   6.476   2.086   4.063  1.2910  2.4284 -1.2500
10989TIP3   OH254381   6.561   3.529  16.879  0.2865  0.3088  0.2938
10989TIP3    H154382   6.531   3.602  16.825  0.0934 -0.1576 -0.2289
10989TIP3    H254383   6.656   3.528  16.868 -0.0461 -1.9975 -2.8808
10990TIP3   OH254384   0.821   0.655  14.408 -0.5802 -0.0220 -0.1832
10990TIP3    H154385   0.778   0.645  14.323 -0.3716  1.4228 -0.4666
10990TIP3    H254386   0.879   0.579  14.414  0.4860  0.6027 -1.9832
10991TIP3   OH254387   3.209   6.739  14.561  0.2197 -1.0622 -0.2956
10991TIP3    H154388   3.291   6.716  14.605  0.2812 -0.8620 -0.3036
10991TIP3    H254389   3.237   6.788  14.483  0.1470 -2.0690 -0.9695
10992TIP3   OH254390   0.889   4.049  17.114 -0.7001  0.3287 -0.0783
10992TIP3    H154391   0.945   4.070  17.039 -0.8712 -0.4526 -0.4249
10992TIP3    H254392   0.853   3.962  17.095 -0.8019  0.1521  0.8739
10993TIP3   OH254393   2.225   3.468  15.300  0.1967  0.1610  0.0975
10993TIP3    H154394   2.152   3.510  15.254 -0.3893  0.1168  0.9632
10993TIP3    H254395   2.236   3.521  15.379  0.7741 -0.1309  0.2091
10994TIP3   OH254396   6.691   6.367  11.731  0.7443  0.2999  0.2927
10994TIP3    H154397   6.678   6.276  11.759  0.1984  0.4667  0.6041
10994TIP3    H254398   6.782   6.386  11.753  1.0285 -0.3442 -0.2886
10995TIP3   OH254399   6.018   3.288  15.533 -0.1362  0.7033  0.7428
10995TIP3    H154400   6.038   3.379  15.553 -0.5614  0.7998  0.7278
10995TIP3    H254401   5.932   3.273  15.572 -1.2587  1.0744 -1.5072
10996TIP3   OH254402   1.883   4.984  10.841  0.0385  0.4893 -0.0752
10996TIP3    H154403   1.974   4.986  10.812 -0.0802  1.9152 -0.3869
10996TIP3    H254404   1.843   4.914  10.790  1.1701 -0.7609  0.7192
10997TIP3   OH254405   2.283   6.627  15.036  0.8522 -0.1030  0.1477
10997TIP3    H154406   2.351   6.694  15.043  0.0308  0.7377  0.1899
10997TIP3    H254407   2.321   6.550  15.078  1.5410  0.5464  0.7323
10998TIP3   OH254408   6.695   2.785   5.375  0.2750  0.0007  0.5178
10998TIP3    H154409   6.680   2.708   5.320  0.3503  0.0262  0.4608
10998TIP3    H254410   6.653   2.857   5.329  1.2665  0.2248 -0.0561
10999TIP3   OH254411   2.166   4.473  14.308 -0.1045  0.2695 -0.2609
10999TIP3    H154412   2.198   4.526  14.235 -2.1064  1.8746 -0.0027
10999TIP3    H254413   2.165   4.383  14.274  1.9646  0.5413 -1.1517
11000TIP3   OH254414   0.703   4.640   3.781 -0.1070  0.0650  0.2658
11000TIP3    H154415   0.694   4.545   3.779  0.4843  0.0199 -0.2786
11000TIP3    H254416   0.715   4.661   3.874 -0.6447 -0.3533  0.4320
11001TIP3   OH254417   2.783   6.390   1.403 -0.0738 -0.0969  0.4148
11001TIP3    H154418   2.745   6.303   1.399 -1.1605  0.3337  1.0600
11001TIP3    H254419   2.793   6.408   1.496 -0.2343  0.6214  0.2974
11002TIP3   OH254420   2.840   4.537   5.235 -0.3618  0.5160  0.4455
11002TIP3    H154421   2.765   4.481   5.252 -0.5834  0.9919  1.0822
11002TIP3    H254422   2.802   4.621   5.210 -0.0374  0.5766  0.1415
11003TIP3   OH254423   0.014   1.323   1.329  0.0482 -0.6806  0.3469
11003TIP3    H154424   0.058   1.365   1.256  0.0504  0.0255  0.7530
11003TIP3    H254425  -0.029   1.395   1.376  1.1921 -0.9408  1.8427
11004TIP3   OH254426   5.151   3.079  11.531 -0.1270 -0.1192 -0.2356
11004TIP3    H154427   5.151   3.114  11.620 -1.7943 -0.7117  0.0152
11004TIP3    H254428   5.238   3.041  11.520 -0.2563 -0.9570  1.5007
11005TIP3   OH254429   0.793   5.348  14.944 -0.0228 -0.0111  0.4728
11005TIP3    H154430   0.808   5.349  14.850 -0.2472 -1.7074  0.4038
11005TIP3    H254431   0.814   5.437  14.973 -1.3966  0.9734 -1.4000
11006TIP3   OH254432   2.812   3.833  16.381  0.4211 -0.0984  0.1560
11006TIP3    H154433   2.762   3.914  16.387  0.1641 -0.2011 -0.4994
11006TIP3    H254434   2.903   3.860  16.379  0.3079  0.2379 -0.9493
11007TIP3   OH254435   5.586   1.009  13.153  0.1343 -0.2462 -0.0954
11007TIP3    H154436   5.551   0.961  13.228  0.4857 -0.1161  0.1516
11007TIP3    H254437   5.611   0.941  13.090 -0.0298 -0.3601 -0.0379
11008TIP3   OH254438   2.478   2.310  15.357  0.4140  0.1122 -0.0021
11008TIP3    H154439   2.385   2.328  15.376  0.3274  0.1396 -0.4451
11008TIP3    H254440   2.522   2.322  15.441  0.1080  0.7200  0.0741
11009TIP3   OH254441   2.803   0.097   3.812 -0.7109  0.9005 -0.7023
11009TIP3    H154442   2.879   0.038   3.813 -0.1951  1.5380  1.5918
11009TIP3    H254443   2.728   0.040   3.828 -0.5406  0.4844 -1.3680
11010TIP3   OH254444   5.743   0.569   0.106 -0.3400  0.2891  0.2653
11010TIP3    H154445   5.676   0.637   0.104 -0.3882  0.2166 -0.9931
11010TIP3    H254446   5.704   0.496   0.058 -0.6217 -0.9610  2.3216
11011TIP3   OH254447   2.813   0.186  16.338  0.1978 -0.3181  0.0141
11011TIP3    H154448   2.743   0.126  16.362  0.4404  0.3697  2.5707
11011TIP3    H254449   2.884   0.130  16.308 -0.5478 -1.1348 -0.2514
11012TIP3   OH254450   2.794   3.973  14.205 -0.5465  0.0269  0.3927
11012TIP3    H154451   2.864   4.038  14.202 -0.9202  0.3808 -1.1169
11012TIP3    H254452   2.713   4.024  14.205 -0.8415 -0.3622  2.6715
11013TIP3   OH254453   5.104   4.469  10.821  0.0886 -0.6141  0.2413
11013TIP3    H154454   5.114   4.503  10.733  2.7442 -2.4809 -0.2331
11013TIP3    H254455   5.014   4.435  10.823 -0.9825  2.0659 -0.7516
11014TIP3   OH254456   3.576   0.594   0.155 -0.4470 -0.2632  0.5290
11014TIP3    H154457   3.670   0.576   0.157 -0.6449 -1.2204  2.7100
11014TIP3    H254458   3.544   0.563   0.240 -2.8977 -0.8401 -0.5629
11015TIP3   OH254459   1.628   6.613   5.173  0.0596 -0.5908  0.0398
11015TIP3    H154460   1.708   6.637   5.219  0.9177  0.7805 -2.0907
11015TIP3    H254461   1.650   6.621   5.080 -2.6595  0.2121 -0.5886
11016TIP3   OH254462   3.807   2.462   4.134  0.3010 -0.3528  0.0607
11016TIP3    H154463   3.747   2.503   4.071 -1.3410 -0.2925  1.6286
11016TIP3    H254464   3.827   2.377   4.095  0.4297  0.2395 -1.2116
11017TIP3   OH254465   0.853   5.158   5.884 -0.1269  0.0049  0.3356
11017TIP3    H154466   0.850   5.158   5.788 -1.9331 -0.8819  0.3701
11017TIP3    H254467   0.868   5.066   5.907  0.3873  0.2286  0.9017
11018TIP3   OH254468   5.423   1.100  13.953  0.2103  0.3769 -0.1992
11018TIP3    H154469   5.442   1.193  13.958 -1.1132  0.7064 -0.9727
11018TIP3    H254470   5.465   1.062  14.030  1.3797  1.5009 -0.2792
11019TIP3   OH254471   3.071   2.659   2.936 -1.1005 -0.0820 -0.5234
11019TIP3    H154472   2.985   2.677   2.899 -0.9799 -0.0014 -0.7598
11019TIP3    H254473   3.118   2.612   2.867 -0.6754  0.5834 -0.6853
11020TIP3   OH254474   6.631   4.938   0.091  0.4149 -0.2471  0.1873
11020TIP3    H154475   6.577   5.005   0.132  0.7816  0.4876 -0.5180
11020TIP3    H254476   6.578   4.906   0.018  0.9281  0.4856 -0.5151
11021TIP3   OH254477   6.449   5.163   2.420  1.0587 -0.1461  0.0602
11021TIP3    H154478   6.470   5.092   2.360 -1.9096 -1.3176  0.3516
11021TIP3    H254479   6.423   5.120   2.501  0.8704  1.3162  0.8054
11022TIP3   OH254480   5.098   2.359  15.307 -0.0801  0.4252  0.0291
11022TIP3    H154481   5.100   2.454  15.302 -0.0921  0.4530  0.5540
11022TIP3    H254482   5.076   2.340  15.398  1.5828 -0.0966  0.3319
11023TIP3   OH254483   0.250   2.170  11.644  0.0838  0.2140  0.2638
11023TIP3    H154484   0.309   2.220  11.699  0.1703 -1.7768  2.0579
11023TIP3    H254485   0.205   2.111  11.704 -2.1633  0.1861 -1.3687
11024TIP3   OH254486   2.903   1.114   3.476 -0.4788  0.5659  0.2003
11024TIP3    H154487   2.843   1.089   3.406 -2.0678  0.3304  1.6140
11024TIP3    H254488   2.910   1.209   3.469 -0.4198  0.5192 -0.4299
11025TIP3   OH254489   5.608   5.763  16.346 -0.0944  0.1265 -0.1476
11025TIP3    H154490   5.646   5.739  16.430 -0.9347  0.9434  0.4836
11025TIP3    H254491   5.680   5.800  16.296  0.0578  1.2325  0.8621
11026TIP3   OH254492   1.674   0.895  15.467  0.1077 -0.1331 -0.4176
11026TIP3    H154493   1.634   0.810  15.482  0.8526 -0.9385 -2.7472
11026TIP3    H254494   1.672   0.938  15.552  0.2565 -2.7087  0.9294
11027TIP3   OH254495   2.631   2.394  15.570 -0.2264 -0.2213  0.2367
11027TIP3    H154496   2.598   2.344  15.645 -1.6295  0.4846  0.1113
11027TIP3    H254497   2.601   2.484  15.586 -0.7632 -0.1160 -1.2895
11028TIP3   OH254498   1.261   5.516  13.836  0.1788  0.4815 -0.2934
11028TIP3    H154499   1.330   5.449  13.841  1.4489  1.8303  0.3564
11028TIP3    H254500   1.277   5.560  13.753 -0.0710  0.6351 -0.2592
11029TIP3   OH254501   5.857   4.759  14.501 -0.7383  0.2216 -0.1242
11029TIP3    H154502   5.839   4.847  14.470  0.9803  1.0355  1.0745
11029TIP3    H254503   5.945   4.739  14.468 -0.3128 -0.2608  1.2424
11030TIP3   OH254504   2.533   5.202   3.424 -0.0336 -0.0372 -0.3266
11030TIP3    H154505   2.504   5.293   3.423 -1.3259 -0.4289  0.1229
11030TIP3    H254506   2.564   5.185   3.335 -3.6756 -0.3381 -1.6391
11031TIP3   OH254507   6.672   3.943   4.939 -0.1358 -0.2030  0.2040
11031TIP3    H154508   6.619   3.947   4.859  1.9627  1.3174 -1.1718
11031TIP3    H254509   6.646   4.021   4.988 -0.5094 -0.4669  0.4336
11032TIP3   OH254510   6.092   0.490  14.223  0.1017 -0.3009  0.4478
11032TIP3    H154511   6.006   0.531  14.210 -1.0050 -1.9394  2.3309
11032TIP3    H254512   6.133   0.543  14.292  1.1005  1.1744 -1.2485
11033TIP3   OH254513   0.518   5.808   3.446 -0.1172 -0.0020  0.2103
11033TIP3    H154514   0.499   5.867   3.373  0.1585  1.2209  1.1046
11033TIP3    H254515   0.438   5.808   3.499  0.7544  1.6655  1.6059
11034TIP3   OH254516   6.755   4.420  11.060  0.8826 -0.4330 -0.1841
11034TIP3    H154517   6.732   4.440  10.969  0.9163 -0.5851 -0.2279
11034TIP3    H254518   6.673   4.388  11.099  0.6138  0.6225  0.1267
11035TIP3   OH254519   6.236   3.402  13.801  0.0557  0.4174  0.1413
11035TIP3    H154520   6.214   3.438  13.715 -1.5415  0.2746  0.4824
11035TIP3    H254521   6.235   3.307  13.788 -0.3509  0.3920  0.3492
11036TIP3   OH254522   3.373   4.168  15.411 -0.4107 -0.0807 -0.1053
11036TIP3    H154523   3.468   4.180  15.411 -0.3153 -0.8170 -1.0828
11036TIP3    H254524   3.353   4.142  15.501  0.3876 -0.4854 -0.0387
11037TIP3   OH254525   2.789   5.936   6.224 -0.5085 -0.1727  0.1880
11037TIP3    H154526   2.848   5.878   6.272 -1.6243 -1.3282  0.1858
11037TIP3    H254527   2.717   5.953   6.285 -0.2784  1.0656  0.1234
11038TIP3   OH254528   2.162   3.585   5.027 -0.1681 -0.1337  0.1875
11038TIP3    H154529   2.082   3.618   4.985  0.6587  2.1965  0.3738
11038TIP3    H254530   2.167   3.633   5.109  2.2542  0.8841 -0.5359
11039TIP3   OH254531   1.604   5.338  11.480  0.6298 -0.2088 -0.7871
11039TIP3    H154532   1.524   5.345  11.428  0.4542  1.0808 -0.3802
11039TIP3    H254533   1.631   5.247  11.471 -1.2592 -0.8333 -0.3902
11040TIP3   OH254534   0.023   3.540   3.042  0.4818 -0.3529 -0.2850
11040TIP3    H154535  -0.070   3.522   3.027 -0.4193  1.9123  2.1386
11040TIP3    H254536   0.056   3.565   2.956 -1.8218  1.4486 -0.7111
11041TIP3   OH254537   1.327   2.540   3.825  0.0621 -0.2008 -0.8150
11041TIP3    H154538   1.390   2.476   3.856  1.3577  1.8059  0.7799
11041TIP3    H254539   1.251   2.528   3.881  1.3288  1.4720  1.3180
11042TIP3   OH254540   3.640   2.411   2.620 -0.3374  0.1164  0.4934
11042TIP3    H154541   3.691   2.349   2.673  0.6132  0.9040  0.5228
11042TIP3    H254542   3.706   2.458   2.569 -1.1188  0.5252 -0.1468
11043TIP3   OH254543   6.312   3.211   1.750 -0.2075 -0.4506 -0.3999
11043TIP3    H154544   6.394   3.164   1.767 -0.1661 -0.6650 -1.1592
11043TIP3    H254545   6.307   3.276   1.820 -0.6322 -2.0504  1.0798
11044TIP3   OH254546   1.329   1.506   3.095  0.2547  0.0299 -0.0343
11044TIP3    H154547   1.282   1.575   3.141  0.7645 -0.5752  1.4190
11044TIP3    H254548   1.404   1.550   3.056  0.4245  0.3552  0.6572
11045TIP3   OH254549   6.517   6.609  15.682  0.1875  0.2530 -0.4160
11045TIP3    H154550   6.492   6.628  15.772  2.2099 -1.2632  0.5160
11045TIP3    H254551   6.590   6.669  15.664  0.0851  0.2428 -0.8737
11046TIP3   OH254552   6.567   1.154   1.757 -0.5923  0.1730  0.2724
11046TIP3    H154553   6.558   1.145   1.852  0.7960  2.6537  0.7092
11046TIP3    H254554   6.478   1.166   1.725 -1.0677 -0.5928  1.2828
11047TIP3   OH254555   0.386   6.368  16.126 -0.3891  0.3346  0.1307
11047TIP3    H154556   0.344   6.453  16.113 -2.3603 -0.5571  0.4978
11047TIP3    H254557   0.434   6.378  16.208 -1.4096  0.7898  0.6829
11048TIP3   OH254558   0.100   3.190   4.779  0.2579 -0.3957  0.1058
11048TIP3    H154559   0.134   3.237   4.704 -0.2642 -1.0898 -0.5710
11048TIP3    H254560   0.041   3.124   4.742 -0.6018 -0.2343  1.1669
11049TIP3   OH254561   0.547   1.755  14.109 -0.1508 -0.3480  0.0126
11049TIP3    H154562   0.581   1.777  14.022  0.8199 -0.9021  0.2371
11049TIP3    H254563   0.468   1.808  14.119  0.7554  1.0951 -0.4523
11050TIP3   OH254564   5.589   5.841   5.937  0.1664  0.2183  0.2570
11050TIP3    H154565   5.528   5.776   5.974 -0.5013  1.0270  0.5857
11050TIP3    H254566   5.654   5.854   6.005 -0.8440  1.4144  0.9982
11051TIP3   OH254567   6.290   3.533   4.191 -0.1420 -0.8809  0.0205
11051TIP3    H154568   6.281   3.590   4.115 -0.8211 -1.2068 -0.1498
11051TIP3    H254569   6.384   3.517   4.198 -0.0607 -0.7227 -0.6555
11052TIP3   OH254570   2.124   4.468  15.995  0.1095  0.2393 -0.4027
11052TIP3    H154571   2.184   4.475  16.069 -1.7252 -0.4569  1.2054
11052TIP3    H254572   2.167   4.407  15.934 -0.1974 -2.5188  2.0091
11053TIP3   OH254573   1.341   5.638  12.774 -0.2397  0.0607  0.4185
11053TIP3    H154574   1.357   5.648  12.680 -0.5080  0.2137  0.3888
11053TIP3    H254575   1.320   5.545  12.784 -0.3016  0.0617  0.3118
11054TIP3   OH254576   0.404   3.376   1.885  0.1634 -0.3953 -0.2228
11054TIP3    H154577   0.419   3.283   1.869 -0.6638 -0.2778 -1.7603
11054TIP3    H254578   0.483   3.406   1.929  0.8211 -1.6260 -0.5470
11055TIP3   OH254579   0.212   1.214  10.650 -0.2258  0.3466  0.3367
11055TIP3    H154580   0.290   1.168  10.619 -1.0724 -0.4122 -0.6698
11055TIP3    H254581   0.168   1.151  10.707 -0.8402  0.2823 -0.2094
11056TIP3   OH254582   2.459   0.431   4.327  0.5348  0.6430  0.3465
11056TIP3    H154583   2.399   0.382   4.384 -0.5974  1.2032 -0.3340
11056TIP3    H254584   2.496   0.498   4.383 -1.3720  1.8601  0.2028
11057TIP3   OH254585   5.686   1.033  12.355  0.2942  0.3579  0.1129
11057TIP3    H154586   5.757   0.970  12.371  1.0449  0.7774 -1.3973
11057TIP3    H254587   5.661   1.017  12.264 -1.5890  0.2066  0.6352
11058TIP3   OH254588   3.216   1.538  15.190 -0.2062  0.4098 -0.6953
11058TIP3    H154589   3.261   1.454  15.186 -0.2798  0.3632 -0.5280
11058TIP3    H254590   3.271   1.592  15.247  0.0513  0.6024 -1.1191
11059TIP3   OH254591   0.966   0.722   1.095  0.4967  0.7604 -0.1285
11059TIP3    H154592   1.032   0.673   1.045 -0.5953 -1.7209  0.7625
11059TIP3    H254593   1.017   0.775   1.156  1.7208 -1.7633  1.1255
11060TIP3   OH254594   6.041   2.068   4.293  0.4084 -0.0059  0.2097
11060TIP3    H154595   6.038   2.079   4.198  0.7617  2.4851  0.4551
11060TIP3    H254596   5.962   2.018   4.313  0.3709 -0.6457 -1.3908
11061TIP3   OH254597   4.867   2.500   1.693  0.4435 -0.1327  0.3417
11061TIP3    H154598   4.883   2.589   1.664  1.3919  0.0997  1.5303
11061TIP3    H254599   4.863   2.506   1.789  2.7577 -1.6680  0.5785
11062TIP3   OH254600   1.712   2.227  15.824 -0.3393  0.6755 -0.1865
11062TIP3    H154601   1.621   2.257  15.826 -0.2188  1.0557 -0.3072
11062TIP3    H254602   1.739   2.237  15.733 -0.6068 -0.7577 -0.4307
11063TIP3   OH254603   6.000   2.337   2.221 -0.4955 -0.1333 -0.3781
11063TIP3    H154604   6.036   2.276   2.285 -1.4545  0.3116  0.6071
11063TIP3    H254605   6.030   2.423   2.250  1.2650 -0.1439 -2.0368
11064TIP3   OH254606   6.280   0.630  12.317  0.1060 -0.2175 -0.7098
11064TIP3    H154607   6.230   0.711  12.305 -2.5045 -1.5628  0.4775
11064TIP3    H254608   6.351   0.635  12.253  0.7083  3.5110  0.1300
11065TIP3   OH254609   3.203   5.423   4.041 -0.5641 -0.2580 -0.3869
11065TIP3    H154610   3.139   5.446   4.109  1.0915 -0.0415  1.1184
11065TIP3    H254611   3.265   5.496   4.041  0.1205 -0.8325 -1.2852
11066TIP3   OH254612   1.488   1.724   1.209  0.0323 -0.0047  0.0398
11066TIP3    H154613   1.573   1.684   1.224 -0.3068 -0.9740 -0.5702
11066TIP3    H254614   1.484   1.796   1.272  0.7138 -0.8343  1.0580
11067TIP3   OH254615   5.102   3.504   6.079  0.3694 -0.1636 -0.0087
11067TIP3    H154616   5.062   3.427   6.119 -0.1165 -0.5213 -1.1882
11067TIP3    H254617   5.036   3.538   6.019  1.2475  0.1370 -0.8130
11068TIP3   OH254618   3.138   4.729   1.832  0.3931  0.2651 -0.1662
11068TIP3    H154619   3.073   4.698   1.894 -0.1914  0.5897 -0.6114
11068TIP3    H254620   3.102   4.706   1.746  1.4279 -0.6469 -0.3817
11069TIP3   OH254621   1.651   6.355  16.810  0.5116  0.2950  0.0613
11069TIP3    H154622   1.591   6.286  16.782  0.8027 -0.2204  0.6933
11069TIP3    H254623   1.732   6.338  16.762  0.7665 -0.1459  0.6344
11070TIP3   OH254624   2.917   2.729   2.572 -0.1108  0.3110  0.1092
11070TIP3    H154625   2.898   2.822   2.588 -2.3866 -0.2706  1.0452
11070TIP3    H254626   2.893   2.715   2.481  1.6894  0.9678 -0.4848
11071TIP3   OH254627   3.377   2.992  16.225 -0.2003  0.0985 -0.0722
11071TIP3    H154628   3.361   3.085  16.211  0.2582  0.1507 -0.2473
11071TIP3    H254629   3.290   2.952  16.216 -0.4170  0.5204  0.1238
11072TIP3   OH254630   1.673   2.301  16.533 -0.2147 -0.4621 -0.4425
11072TIP3    H154631   1.645   2.386  16.500  3.1540  0.7494 -0.3982
11072TIP3    H254632   1.599   2.270  16.585 -1.6107  2.3174 -0.6754
11073TIP3   OH254633   5.254   0.317   1.934 -0.4178  0.9279  0.6684
11073TIP3    H154634   5.305   0.345   2.010  0.4727  0.9370  0.0770
11073TIP3    H254635   5.164   0.341   1.955  0.1301  3.1115  0.7276
11074TIP3   OH254636   1.961   0.724   3.148 -0.1473  0.1357 -0.1623
11074TIP3    H154637   1.931   0.808   3.113 -0.3776  0.6306  1.1656
11074TIP3    H254638   2.042   0.706   3.102 -1.0112  0.2136 -1.7275
11075TIP3   OH254639   3.866   4.117  12.531 -0.5845 -0.1107 -0.0044
11075TIP3    H154640   3.813   4.104  12.610 -1.6449 -0.8778 -0.8258
11075TIP3    H254641   3.893   4.208  12.535 -0.6219 -0.1378  1.2500
11076TIP3   OH254642   0.754   1.590   1.076 -0.6014  0.1786 -0.5858
11076TIP3    H154643   0.728   1.626   1.161 -1.9128 -0.8999 -0.5123
11076TIP3    H254644   0.840   1.551   1.092 -0.6390  0.3849  0.1470
11077TIP3   OH254645   1.028   1.852   0.538 -0.7044  0.1773  0.1761
11077TIP3    H154646   0.986   1.839   0.623  0.1174  1.8246  0.8572
11077TIP3    H254647   1.066   1.766   0.517 -2.3835 -0.6974  0.6425
11078TIP3   OH254648   2.360   2.327   5.243 -0.5191  0.3802  0.4961
11078TIP3    H154649   2.366   2.234   5.268  1.4847  0.1575 -0.7129
11078TIP3    H254650   2.295   2.328   5.172  0.3790 -0.3152 -0.3637
11079TIP3   OH254651   3.051   4.582  13.466 -0.1120  0.4613 -0.0194
11079TIP3    H154652   3.117   4.585  13.535 -0.5856  1.2771  0.4146
11079TIP3    H254653   3.066   4.661  13.415 -0.3915  0.3637 -0.2556
11080TIP3   OH254654   4.419   2.339  11.357 -0.9608 -0.5881  0.6241
11080TIP3    H154655   4.409   2.318  11.449  0.5976  0.4379  1.0481
11080TIP3    H254656   4.370   2.420  11.345  0.2368  0.1860  0.9334
11081TIP3   OH254657   1.308   0.318  14.929 -0.2187 -0.0873 -0.0841
11081TIP3    H154658   1.252   0.376  14.981 -0.6386 -0.7530  0.2015
11081TIP3    H254659   1.258   0.238  14.919 -0.3486  0.2011 -1.9291
11082TIP3   OH254660   4.593   4.908  12.157 -0.3987 -0.4771  0.0507
11082TIP3    H154661   4.558   4.832  12.204 -1.7028 -0.1238 -0.3230
11082TIP3    H254662   4.521   4.936  12.100  0.3023  0.6213 -0.3086
11083TIP3   OH254663   0.215   6.604   4.801  0.0554  0.1184 -0.0036
11083TIP3    H154664   0.145   6.555   4.844 -0.0690 -0.2997 -0.6847
11083TIP3    H254665   0.203   6.588   4.708 -0.8597  2.5920 -0.3703
11084TIP3   OH254666   3.962   0.643  10.445 -0.6389  0.5138 -0.1004
11084TIP3    H154667   3.965   0.723  10.392  2.4192 -0.6199 -1.7555
11084TIP3    H254668   3.927   0.576  10.386 -0.8295  0.0643  0.5165
11085TIP3   OH254669   2.511   2.621   6.260 -0.4537  0.1297  0.1284
11085TIP3    H154670   2.566   2.545   6.276  1.3854  1.0324 -1.7089
11085TIP3    H254671   2.570   2.696   6.267 -2.2500  1.4234  2.0122
11086TIP3   OH254672   2.844   2.311   5.394 -0.0443  0.4267  0.0855
11086TIP3    H154673   2.764   2.318   5.342 -0.4668  0.0706  0.6785
11086TIP3    H254674   2.903   2.258   5.340 -0.4225  0.2056 -0.1132
11087TIP3   OH254675   4.735   3.389  13.975 -0.3893 -0.0240  0.1922
11087TIP3    H154676   4.802   3.454  13.995 -0.5488 -0.5364  2.5888
11087TIP3    H254677   4.785   3.311  13.951 -0.1888  0.6393 -1.5931
11088TIP3   OH254678   2.211   3.794  13.590 -0.4229 -0.1075 -0.1356
11088TIP3    H154679   2.187   3.882  13.621  0.2673 -0.0549  0.2676
11088TIP3    H254680   2.213   3.802  13.495  0.7657  0.6300 -0.0644
11089TIP3   OH254681   0.956   3.239  14.848  0.5797 -0.2065 -0.5596
11089TIP3    H154682   1.025   3.296  14.815  0.8829 -0.7101 -0.7979
11089TIP3    H254683   0.969   3.156  14.803  0.3898 -0.5911  0.0797
11090TIP3   OH254684   6.576   0.767   0.573 -0.5801  0.4538 -0.2165
11090TIP3    H154685   6.586   0.700   0.642  1.2321  0.2083 -0.6921
11090TIP3    H254686   6.665   0.783   0.543 -1.0175  2.9733 -0.2518
11091TIP3   OH254687   1.609   3.173  12.518  0.6535 -0.0248 -0.0483
11091TIP3    H154688   1.539   3.110  12.500  0.6811  0.3781 -1.6322
11091TIP3    H254689   1.688   3.119  12.526  0.9309 -0.1377 -2.8212
11092TIP3   OH254690   0.936   4.908   5.964  0.0215 -0.3041 -0.0635
11092TIP3    H154691   0.966   4.821   5.992  0.8799  0.0065 -0.0226
11092TIP3    H254692   0.870   4.931   6.029  1.2194 -0.0710  1.0964
11093TIP3   OH254693   0.293   6.678  16.152 -0.1521  0.0037 -0.0248
11093TIP3    H154694   0.359   6.686  16.221 -1.3343  1.3120  0.9637
11093TIP3    H254695   0.340   6.700  16.071  0.8803 -0.1353  0.5258
11094TIP3   OH254696   6.429   6.272   9.904 -1.2716  0.2195  0.0462
11094TIP3    H154697   6.372   6.345   9.878 -1.3113 -0.2519 -1.2109
11094TIP3    H254698   6.434   6.216   9.826 -1.2620 -1.1432  1.0069
11095TIP3   OH254699   1.380   0.426  13.594 -0.1307 -0.4755  0.3537
11095TIP3    H154700   1.292   0.464  13.589  0.4692  1.4578  3.2634
11095TIP3    H254701   1.430   0.474  13.528 -1.2021 -1.6181 -1.3522
11096TIP3   OH254702   6.389   5.376   0.554 -0.3109 -1.0613 -0.0252
11096TIP3    H154703   6.435   5.299   0.520 -1.8674 -1.4821 -1.2009
11096TIP3    H254704   6.352   5.347   0.637  0.7535 -0.9958  0.4795
11097TIP3   OH254705   2.777   4.194  17.090 -0.0221 -0.4136  0.6061
11097TIP3    H154706   2.856   4.141  17.097  0.2995  0.2618  2.3702
11097TIP3    H254707   2.798   4.260  17.024  0.6862 -0.5697  0.6729
11098TIP3   OH254708   2.044   1.752  14.012 -0.6343 -0.2463  0.3522
11098TIP3    H154709   2.058   1.814  14.084 -2.1621  0.8812 -0.3014
11098TIP3    H254710   2.123   1.760  13.958 -0.5266  0.6442  0.6262
11099TIP3   OH254711   2.071   4.285  14.754  0.3069 -0.2568  0.1285
11099TIP3    H154712   2.067   4.189  14.743  2.2327 -0.2045 -1.4070
11099TIP3    H254713   2.025   4.319  14.677 -0.5469  0.0612  0.7752
11100TIP3   OH254714   4.813   5.831   5.123 -0.0157  0.1780 -0.3027
11100TIP3    H154715   4.791   5.822   5.030 -1.2019  0.6695 -0.0694
11100TIP3    H254716   4.742   5.882   5.160  0.3042 -0.2678  0.9497
11101TIP3   OH254717   1.600   2.070  11.668 -0.3232  0.3156  0.2032
11101TIP3    H154718   1.543   1.998  11.638 -1.5823  2.1632 -1.9569
11101TIP3    H254719   1.603   2.059  11.763 -0.9580 -2.2558 -0.0285
11102TIP3   OH254720   4.977   0.529  11.610 -0.2278 -0.0679  0.1327
11102TIP3    H154721   4.936   0.611  11.638 -0.6656  0.0226 -0.7455
11102TIP3    H254722   5.067   0.535  11.641 -0.0148  1.1463 -0.6997
11103TIP3   OH254723   6.202   0.717   5.183 -0.1010 -0.4867  0.1580
11103TIP3    H154724   6.290   0.681   5.176  0.0316 -0.2552  0.6141
11103TIP3    H254725   6.203   0.794   5.125 -0.4742 -1.3780 -1.0491
11104TIP3   OH254726   2.499   2.531   4.179  0.4688 -0.2192 -0.0222
11104TIP3    H154727   2.552   2.480   4.240 -0.6200 -0.0766  1.0562
11104TIP3    H254728   2.490   2.617   4.220 -1.9512 -0.7299  0.6107
11105TIP3   OH254729   4.467   2.618   4.069 -0.1142 -0.2393  0.4527
11105TIP3    H154730   4.392   2.616   4.009  0.4314 -2.3117 -0.2195
11105TIP3    H254731   4.528   2.681   4.030 -0.4768 -0.3497 -0.3073
11106TIP3   OH254732   4.222   3.878   2.272 -0.0211  0.2492 -0.7875
11106TIP3    H154733   4.252   3.919   2.353 -0.6799 -0.6661 -0.0617
11106TIP3    H254734   4.249   3.938   2.203  0.3800  1.1386  0.1286
11107TIP3   OH254735   4.576   6.288  10.877  0.0829  0.3978 -0.4006
11107TIP3    H154736   4.627   6.256  10.803 -1.9225 -0.2260 -1.5445
11107TIP3    H254737   4.608   6.237  10.952  0.1515 -1.0161 -1.3713
11108TIP3   OH254738   1.615   6.093   3.752 -0.1837  0.0747 -0.6959
11108TIP3    H154739   1.582   6.109   3.841 -1.7708  1.0218 -1.4258
11108TIP3    H254740   1.661   6.174   3.729 -2.2456  0.9849 -1.7830
11109TIP3   OH254741   0.166   1.215   0.193 -0.3815 -0.2782 -0.6845
11109TIP3    H154742   0.226   1.140   0.192  1.5858  1.2527  0.1654
11109TIP3    H254743   0.081   1.177   0.217  0.3880 -2.3711 -1.1862
11110TIP3   OH254744   0.467   4.512   0.482  0.2803  0.0202 -0.1948
11110TIP3    H154745   0.387   4.530   0.433  0.4774  0.2092 -0.4464
11110TIP3    H254746   0.460   4.565   0.561  0.1944  0.0995 -0.2560
11111TIP3   OH254747   2.084   0.818   2.340  0.4819  0.2687  0.3957
11111TIP3    H154748   2.177   0.800   2.330 -0.2263 -2.7997 -1.4443
11111TIP3    H254749   2.062   0.877   2.267  1.1919  1.9298  1.5151
11112TIP3   OH254750   1.202   6.117  14.694 -0.2480 -0.1671 -0.1584
11112TIP3    H154751   1.109   6.132  14.676 -0.8209 -4.0687 -0.9644
11112TIP3    H254752   1.247   6.144  14.614 -1.0069 -0.8302 -0.8221
11113TIP3   OH254753   4.040   6.722  13.045 -0.1500 -0.1519 -0.1257
11113TIP3    H154754   4.111   6.712  12.982 -0.9615  0.1216 -1.0902
11113TIP3    H254755   4.078   6.696  13.129  2.5674  4.6165  0.3097
11114TIP3   OH254756   6.701   3.391  14.450 -0.3137  0.6262 -0.1363
11114TIP3    H154757   6.664   3.351  14.371 -1.0379  1.2547 -0.1185
11114TIP3    H254758   6.656   3.347  14.522  0.7453 -0.3399 -0.0532
11115TIP3   OH254759   2.188   6.359   4.225  0.4057  0.3344  0.3094
11115TIP3    H154760   2.205   6.266   4.245 -0.8321  0.3609  1.5741
11115TIP3    H254761   2.100   6.359   4.188  1.2194  0.7737 -1.6990
11116TIP3   OH254762   2.551   2.228  15.776  0.1150  0.6737  0.1924
11116TIP3    H154763   2.483   2.209  15.840  0.5854 -0.2100  0.4324
11116TIP3    H254764   2.630   2.186  15.810  0.7872  1.6611 -0.0901
11117TIP3   OH254765   4.262   2.980  11.994 -0.0247  0.2267  0.6694
11117TIP3    H154766   4.325   3.019  11.934 -0.9274  0.9202  0.1621
11117TIP3    H254767   4.242   2.895  11.955  1.8821 -0.7350  1.7348
11118TIP3   OH254768   2.172   4.278  16.274  0.5946 -0.1162 -0.0959
11118TIP3    H154769   2.228   4.320  16.339  1.0521  0.8131 -1.0845
11118TIP3    H254770   2.230   4.216  16.229  0.2020 -0.9850  0.5890
11119TIP3   OH254771   6.567   0.309  12.253 -0.3344  0.6049 -0.5382
11119TIP3    H154772   6.653   0.271  12.237 -1.5699 -1.4113 -2.6893
11119TIP3    H254773   6.521   0.244  12.306 -0.8149  1.2997 -0.0900
11120TIP3   OH254774   0.494   4.096  16.072 -0.0333 -0.0443  0.4612
11120TIP3    H154775   0.495   4.044  15.992  0.0721  1.8624 -0.7862
11120TIP3    H254776   0.467   4.183  16.045 -0.1767  0.5935  2.5311
11121TIP3   OH254777   4.413   6.136   2.617 -0.2513  0.1741 -0.8312
11121TIP3    H154778   4.436   6.194   2.690 -0.5146 -1.6919  0.7976
11121TIP3    H254779   4.391   6.195   2.545  1.2078  2.0586  0.2171
11122TIP3   OH254780   2.089   6.226   5.422 -0.1550 -0.2005  0.1300
11122TIP3    H154781   2.000   6.192   5.430 -0.7436  0.9805 -1.1614
11122TIP3    H254782   2.085   6.312   5.464  0.3097 -0.0364 -0.1537
11123TIP3   OH254783   4.633   4.772   5.377  0.7091 -0.0767  0.7230
11123TIP3    H154784   4.636   4.756   5.283  2.0606  0.4838  0.6582
11123TIP3    H254785   4.714   4.820   5.396  0.1897  0.3004  2.0768
11124TIP3   OH254786   6.322   3.746   2.540 -0.4222  0.0317  0.3469
11124TIP3    H154787   6.305   3.669   2.595 -0.5901 -0.2979 -0.1607
11124TIP3    H254788   6.238   3.765   2.499  0.2400 -1.1829 -1.6314
11125TIP3   OH254789   5.948   1.960   1.027  0.6199 -0.2707  0.3251
11125TIP3    H154790   5.867   1.952   1.079  1.3490  0.2259  1.5450
11125TIP3    H254791   5.952   1.877   0.978 -0.1980 -0.6517  0.8814
11126TIP3   OH254792   1.076   1.991  15.656 -0.1376  0.5135  0.5806
11126TIP3    H154793   1.069   1.898  15.635 -0.1479  0.6635 -0.1179
11126TIP3    H254794   1.051   2.035  15.575 -2.6694  1.1525  1.6725
11127TIP3   OH254795   1.372   2.302  16.591  0.4894  0.2580 -0.3227
11127TIP3    H154796   1.295   2.328  16.540  2.3349  0.0562 -3.3567
11127TIP3    H254797   1.387   2.211  16.567  0.5031 -0.3039  1.7945
11128TIP3   OH254798   4.497   6.516   3.706 -0.2221  0.3944 -0.4395
11128TIP3    H154799   4.410   6.548   3.729 -0.5447  0.5867 -1.8488
11128TIP3    H254800   4.485   6.474   3.621  0.8068 -0.7374 -0.0406
11129TIP3   OH254801   6.309   3.742   3.995  0.4872 -0.2305  0.4329
11129TIP3    H154802   6.381   3.758   3.934 -0.3425  0.7346 -0.3035
11129TIP3    H254803   6.236   3.714   3.939  0.2798 -1.2211  1.1772
11130TIP3   OH254804   2.766   2.728   5.642 -0.2415  0.3008 -0.8972
11130TIP3    H154805   2.734   2.672   5.713 -0.1318  0.3156 -0.8352
11130TIP3    H254806   2.782   2.812   5.684  2.5290 -0.4763 -0.3218
11131TIP3   OH254807   4.366   6.029  11.279  0.2218  0.1111  0.0013
11131TIP3    H154808   4.441   5.969  11.277 -1.1308 -1.6223 -2.8031
11131TIP3    H254809   4.406   6.116  11.276  2.1831 -0.7578 -0.5742
11132TIP3   OH254810   5.671   2.232   5.125 -0.0480  0.2440  0.4129
11132TIP3    H154811   5.641   2.295   5.191  0.1861 -0.6169  1.3617
11132TIP3    H254812   5.603   2.165   5.124  0.4746 -0.2961  0.5699
11133TIP3   OH254813   4.375   2.224   5.762 -0.4393  0.1346 -0.1374
11133TIP3    H154814   4.394   2.167   5.688 -0.8655 -0.6155  0.3222
11133TIP3    H254815   4.420   2.306   5.742  2.3400 -1.2076  0.3950
11134TIP3   OH254816   5.460   3.976   0.838  0.0359 -0.3106 -1.0186
11134TIP3    H154817   5.517   3.994   0.913  0.5539 -0.0638 -1.4666
11134TIP3    H254818   5.406   4.054   0.830  0.4274 -0.0651 -1.2975
11135TIP3   OH254819   2.321   2.597  10.837  0.1956 -0.5188 -0.2031
11135TIP3    H154820   2.294   2.505  10.835 -2.2712  0.1520  0.1482
11135TIP3    H254821   2.415   2.595  10.822  0.0825 -3.0646 -0.7867
11136TIP3   OH254822   1.306   0.988  16.285 -0.0231  1.0061 -0.0914
11136TIP3    H154823   1.343   1.073  16.260  0.9743  0.0057 -2.1010
11136TIP3    H254824   1.382   0.931  16.296 -0.6929  0.3395  1.1913
11137TIP3   OH254825   5.315   1.851   0.884  0.0813  0.0281  0.1413
11137TIP3    H154826   5.367   1.885   0.957  0.1505  1.2227 -0.4690
11137TIP3    H254827   5.376   1.797   0.834  0.5222  0.7314 -0.0871
11138TIP3   OH254828   1.724   3.485   4.920  0.1005 -0.2915 -0.0171
11138TIP3    H154829   1.724   3.457   4.829  0.3050 -0.7186  0.1095
11138TIP3    H254830   1.639   3.527   4.933 -0.0508 -0.5060 -0.3181
11139TIP3   OH254831   2.281   0.002  16.289  0.0322  1.1241 -0.4140
11139TIP3    H154832   2.353   0.057  16.321  0.1863  0.4783  0.3498
11139TIP3    H254833   2.317  -0.043  16.213  0.1127  1.5766 -0.6464
11140TIP3   OH254834   1.701   5.294   4.474 -0.0223 -0.2517  0.2374
11140TIP3    H154835   1.678   5.365   4.413 -0.2573 -0.9341 -0.4704
11140TIP3    H254836   1.697   5.335   4.560 -0.0953  0.6194 -0.1731
11141TIP3   OH254837   0.169   2.244   3.503  0.0522 -0.0223  0.2935
11141TIP3    H154838   0.227   2.215   3.573 -1.8074  1.0447  2.3214
11141TIP3    H254839   0.084   2.254   3.544 -1.4549 -0.8626 -2.4818
11142TIP3   OH254840   4.741   3.585  12.507 -0.1633  0.0768 -0.4545
11142TIP3    H154841   4.769   3.510  12.454 -0.4206 -0.1532 -0.2622
11142TIP3    H254842   4.713   3.650  12.443 -0.5068 -0.2146 -0.6021
11143TIP3   OH254843   1.946   6.621   0.944 -0.0083  0.0365 -0.2310
11143TIP3    H154844   1.992   6.705   0.939  1.4488 -0.6999  0.6239
11143TIP3    H254845   1.953   6.585   0.856  0.6304  0.1426 -0.2208
11144TIP3   OH254846   0.711   0.243  15.665  0.3747  0.5729  0.5934
11144TIP3    H154847   0.681   0.328  15.698 -0.7263  0.2833  0.3446
11144TIP3    H254848   0.806   0.253  15.658  0.2120  1.9258  0.1718
11145TIP3   OH254849   1.506   0.179   0.502 -0.0367  0.0671  0.0102
11145TIP3    H154850   1.584   0.217   0.462 -0.4038  1.0410  0.2269
11145TIP3    H254851   1.531   0.088   0.519  0.2457 -0.2889 -2.1264
11146TIP3   OH254852   2.210   2.616   5.084  0.8651 -0.9145 -0.1117
11146TIP3    H154853   2.222   2.679   5.013 -1.8649 -0.4721 -0.2320
11146TIP3    H254854   2.264   2.649   5.155  1.7748 -0.0751 -1.1741
11147TIP3   OH254855   0.919   5.088   2.431 -0.0421 -0.1645 -0.3224
11147TIP3    H154856   0.991   5.064   2.373  0.5002 -0.4541  0.4584
11147TIP3    H254857   0.902   5.009   2.482 -0.7733 -0.0308 -0.3468
11148TIP3   OH254858   6.330   3.106  15.368 -0.0004 -0.0184 -0.0903
11148TIP3    H154859   6.423   3.091  15.353  0.0241 -2.2349  2.1058
11148TIP3    H254860   6.326   3.175  15.434  0.0889 -0.1007  0.0015
11149TIP3   OH254861   0.733   3.901   2.831 -0.2570 -0.2874  0.7388
11149TIP3    H154862   0.657   3.864   2.786 -1.1156  1.2746  0.8556
11149TIP3    H254863   0.807   3.850   2.799 -1.2055 -1.0384 -0.3086
11150TIP3   OH254864   6.593   1.481   3.853 -0.4505 -0.2047 -0.1287
11150TIP3    H154865   6.678   1.440   3.869  0.1528  1.1030  0.0994
11150TIP3    H254866   6.604   1.571   3.883 -0.9204  0.8532 -2.9463
11151TIP3   OH254867   3.550   4.437  13.369  0.3080 -0.0906 -0.1304
11151TIP3    H154868   3.613   4.408  13.303  0.0856 -1.9313  0.4564
11151TIP3    H254869   3.601   4.443  13.450  0.5356  1.9771 -0.3909
11152TIP3   OH254870   4.871   5.396  16.530  0.3858  0.2764 -0.4740
11152TIP3    H154871   4.900   5.347  16.608  0.0257  0.4230 -0.2488
11152TIP3    H254872   4.795   5.445  16.559  0.1188  0.1656 -0.9768
11153TIP3   OH254873   5.875   4.633   3.120 -0.1888 -0.0443  0.2041
11153TIP3    H154874   5.865   4.649   3.213 -0.4197 -1.5284  0.4497
11153TIP3    H254875   5.899   4.718   3.083  2.0937  0.1101  1.9192
11154TIP3   OH254876   1.210   5.976  15.750  0.1302 -0.1836  0.4652
11154TIP3    H154877   1.276   5.916  15.785 -0.4493 -1.6592 -0.8953
11154TIP3    H254878   1.205   6.047  15.814  2.7096 -0.2678  0.8292
11155TIP3   OH254879   2.637   0.003   0.677 -0.1677 -0.7197  0.3249
11155TIP3    H154880   2.588  -0.061   0.625 -2.5218  0.8909  0.4510
11155TIP3    H254881   2.656   0.074   0.615 -1.2111  0.2893  1.1400
11156TIP3   OH254882   4.984   2.212  15.521 -0.5661  0.2707  0.1353
11156TIP3    H154883   5.033   2.132  15.539  0.7580  1.1518  0.5485
11156TIP3    H254884   4.918   2.186  15.456  1.3609 -0.6519 -1.5053
11157TIP3   OH254885   4.103   1.027  11.515  0.5479 -0.2991  0.4458
11157TIP3    H154886   4.184   0.980  11.496  1.0788  1.2656 -1.4185
11157TIP3    H254887   4.102   1.099  11.451 -2.6265 -0.6668  0.0068
11158TIP3   OH254888   0.210   4.521   2.130 -0.0653  0.5906 -0.3108
11158TIP3    H154889   0.238   4.613   2.131 -0.7620  0.8030  0.1796
11158TIP3    H254890   0.188   4.501   2.221 -0.7875  0.2133 -0.5614
11159TIP3   OH254891   4.824   2.941  13.162 -0.0663  0.1845  0.3141
11159TIP3    H154892   4.917   2.966  13.168  0.3743 -0.7559 -2.0118
11159TIP3    H254893   4.777   3.024  13.156  0.3530  0.7709  4.2010
11160TIP3   OH254894   5.057   1.185  14.742  0.1333  0.2185 -0.0314
11160TIP3    H154895   5.095   1.224  14.821 -2.3579  0.7703  0.9415
11160TIP3    H254896   5.062   1.255  14.677 -0.2246  0.6836  0.4290
11161TIP3   OH254897   2.545   5.555  16.051  0.0917  0.5399  0.1305
11161TIP3    H154898   2.474   5.573  16.113 -2.1138 -1.4342 -1.7176
11161TIP3    H254899   2.567   5.463  16.065 -0.1013  0.2083 -1.6515
11162TIP3   OH254900   0.813   3.425  14.004  0.4878 -0.0421 -0.0988
11162TIP3    H154901   0.791   3.458  14.092  2.4858 -0.6977  0.6575
11162TIP3    H254902   0.819   3.504  13.951  1.9510  0.5781  0.9669
11163TIP3   OH254903   3.769   2.532   5.380  0.2272 -0.1785 -0.0148
11163TIP3    H154904   3.844   2.523   5.321  0.8749  1.5128  0.5269
11163TIP3    H254905   3.702   2.576   5.328 -0.1178 -0.9680 -0.2512
11164TIP3   OH254906   5.804   2.937   4.915 -0.0347 -0.0348 -0.0486
11164TIP3    H154907   5.729   2.967   4.967  0.0624  1.2688 -0.6356
11164TIP3    H254908   5.859   2.889   4.977 -0.3781  0.7141  0.8402
11165TIP3   OH254909   6.088   0.518   2.095  0.0287 -0.7047  0.4862
11165TIP3    H154910   6.016   0.562   2.050 -1.4164 -1.0383  2.3661
11165TIP3    H254911   6.088   0.430   2.059  0.1237 -0.4208 -0.2148
11166TIP3   OH254912   1.080   0.730  16.978 -0.1579  0.2121  0.3291
11166TIP3    H154913   1.124   0.796  16.924 -1.2024 -1.4463 -2.6571
11166TIP3    H254914   1.146   0.662  16.990 -0.2092  0.1732  0.3848
11167TIP3   OH254915   1.223   6.362  16.804 -0.2112 -0.3690  0.3002
11167TIP3    H154916   1.209   6.333  16.894 -1.0414 -1.5951 -0.2156
11167TIP3    H254917   1.303   6.318  16.776  0.0130 -0.0370  0.4108
11168TIP3   OH254918   3.611   3.377   5.081 -0.2145  0.3478 -0.3084
11168TIP3    H154919   3.683   3.373   5.144 -0.0346  1.5940 -0.4152
11168TIP3    H254920   3.635   3.314   5.013  0.0122 -0.3695  0.4298
11169TIP3   OH254921   2.556   1.394   6.053 -0.2992 -0.5657  0.1863
11169TIP3    H154922   2.544   1.401   6.148 -2.1581  1.9988 -0.1821
11169TIP3    H254923   2.633   1.447   6.034 -0.1615 -0.7527  0.2272
11170TIP3   OH254924   0.152   2.028   3.303 -0.3791  0.0637 -0.0330
11170TIP3    H154925   0.160   2.066   3.215 -0.8500  1.7648  0.6222
11170TIP3    H254926   0.169   2.102   3.361  0.4183 -1.1671  1.3093
11171TIP3   OH254927   3.469   3.430   4.712  0.0665  0.1548  0.1054
11171TIP3    H154928   3.537   3.476   4.761  1.0611  0.0723 -1.1561
11171TIP3    H254929   3.423   3.500   4.665 -1.1453  0.2760  1.4525
11172TIP3   OH254930   4.965   4.949   5.675  0.3184 -0.4922 -0.0790
11172TIP3    H154931   4.964   4.882   5.606 -1.6023 -1.1557  0.5700
11172TIP3    H254932   4.908   4.914   5.743 -0.2421  1.5609  0.5327
11173TIP3   OH254933   1.922   1.199  14.620 -0.5770  0.3946  0.5027
11173TIP3    H154934   1.897   1.151  14.541 -0.1181  1.2772 -0.1931
11173TIP3    H254935   1.884   1.286  14.608 -2.3345 -0.1017  2.2625
11174TIP3   OH254936   6.679   5.085   1.428 -0.3415  0.1079 -0.2544
11174TIP3    H154937   6.756   5.142   1.426  1.3726 -2.1459  0.7792
11174TIP3    H254938   6.691   5.030   1.505 -2.5527 -0.8942 -0.5924
11175TIP3   OH254939   1.997   2.159  16.726 -0.0636  0.0246 -0.1766
11175TIP3    H154940   2.028   2.235  16.677 -0.2438  0.6180  0.6234
11175TIP3    H254941   1.975   2.095  16.659 -0.3027  0.8231 -0.8736
11176TIP3   OH254942   6.774   6.591  12.686 -0.2232 -0.0838 -0.4761
11176TIP3    H154943   6.729   6.557  12.764  0.1948  0.4881  0.0187
11176TIP3    H254944   6.848   6.532  12.674 -0.0584  0.0673 -0.2033
11177TIP3   OH254945   2.777   5.416   4.173 -0.2034 -0.1798 -0.1748
11177TIP3    H154946   2.865   5.453   4.181  0.1950 -0.7460 -1.7467
11177TIP3    H254947   2.738   5.427   4.260  1.3397  0.2802  0.4731
11178TIP3   OH254948   5.607   5.274  12.938 -0.5253  1.0034  0.4666
11178TIP3    H154949   5.552   5.325  12.878 -0.8129  0.0652 -0.0813
11178TIP3    H254950   5.544   5.233  12.998 -0.5757 -1.1463 -0.9790
11179TIP3   OH254951   2.743   6.121   5.677  0.1575 -0.0162  0.4174
11179TIP3    H154952   2.755   6.118   5.582 -1.4309 -0.4780  0.2247
11179TIP3    H254953   2.826   6.087   5.712  0.4936 -0.4895 -0.8129
11180TIP3   OH254954   3.995   0.029   2.358  0.0088  0.1664 -0.0250
11180TIP3    H154955   4.012  -0.047   2.414  1.2594  1.4919  1.4111
11180TIP3    H254956   3.984   0.102   2.418  3.0534  1.9683 -1.5198
11181TIP3   OH254957   6.458   2.328  12.948 -0.5454  0.1475  0.3248
11181TIP3    H154958   6.445   2.421  12.931  0.6789  0.2626 -0.0626
11181TIP3    H254959   6.411   2.311  13.029 -1.4416  0.9289 -0.0307
11182TIP3   OH254960   4.597   4.495   1.022 -0.0651 -0.0302  0.0488
11182TIP3    H154961   4.645   4.419   1.055  0.2540  0.1626  0.0342
11182TIP3    H254962   4.587   4.477   0.928 -0.4787 -0.3152  0.1475
11183TIP3   OH254963   4.776   5.732  16.184 -0.3470  0.1615  0.3744
11183TIP3    H154964   4.809   5.642  16.186  2.6784  1.2038 -0.0426
11183TIP3    H254965   4.762   5.754  16.276 -1.6526 -0.8954  0.4484
11184TIP3   OH254966   1.853   5.690  15.304  0.0244 -0.0508  0.0699
11184TIP3    H154967   1.946   5.666  15.307  0.1630  0.4510 -0.1657
11184TIP3    H254968   1.849   5.776  15.345 -0.3263 -0.0355  0.0032
11185TIP3   OH254969   4.412   3.740  14.015 -0.3620  0.6051  0.1615
11185TIP3    H154970   4.460   3.672  14.062 -1.7176  1.2554  2.5156
11185TIP3    H254971   4.337   3.695  13.976 -1.0399  0.6609  1.3871
11186TIP3   OH254972   0.321   4.677   2.873  0.2672  0.3760 -0.5704
11186TIP3    H154973   0.374   4.748   2.837  1.3503  0.4707  1.1271
11186TIP3    H254974   0.264   4.721   2.937  0.9053 -0.2593  0.4449
11187TIP3   OH254975   0.336   4.212   5.310  0.0740 -0.2295  0.8865
11187TIP3    H154976   0.399   4.231   5.241 -1.6718 -2.6974 -1.5000
11187TIP3    H254977   0.271   4.282   5.303  0.4058  0.0594  0.6554
11188TIP3   OH254978   5.916   2.137  13.976  0.6509 -0.1870 -0.2211
11188TIP3    H154979   5.847   2.081  13.938  1.2579 -1.2349  0.1992
11188TIP3    H254980   5.998   2.093  13.954  1.1386  0.5144  0.1659
11189TIP3   OH254981   2.338   1.368  15.865 -0.3324  0.2926 -0.2358
11189TIP3    H154982   2.306   1.457  15.882  0.0978 -0.0373  2.5595
11189TIP3    H254983   2.280   1.311  15.916  1.0999 -0.8026  0.2083
11190TIP3   OH254984   5.139   4.183   1.120  0.1239  0.3230  0.5338
11190TIP3    H154985   5.204   4.250   1.139  1.1907 -1.0255  1.7492
11190TIP3    H254986   5.119   4.144   1.205 -0.2139 -1.1397 -0.1943
11191TIP3   OH254987   6.288   0.644   4.573 -0.1791  0.1060  0.3303
11191TIP3    H154988   6.284   0.549   4.561 -1.0228  0.1734  0.0085
11191TIP3    H254989   6.209   0.676   4.529  1.2396  1.1445 -1.5003
11192TIP3   OH254990   4.047   4.304   4.305 -0.4273  0.3866  0.0564
11192TIP3    H154991   4.133   4.319   4.344 -0.1254  0.7909 -0.7545
11192TIP3    H254992   4.003   4.246   4.367  0.7912 -0.6280 -0.0136
11193TIP3   OH254993   6.509   6.582   6.164  0.0470  0.1494 -0.0853
11193TIP3    H154994   6.517   6.517   6.094  0.8645 -0.9821  1.0360
11193TIP3    H254995   6.442   6.643   6.132  2.0114  0.9417 -2.8437
11194TIP3   OH254996   0.646   1.548   2.905 -0.1971  0.1634  0.5735
11194TIP3    H154997   0.596   1.515   2.831  1.7257  1.1410 -1.2286
11194TIP3    H254998   0.627   1.642   2.908 -0.8629  0.0053  1.8318
11195TIP3   OH254999   1.020   2.570  16.480 -0.3486  0.4580  0.0136
11195TIP3    H155000   0.951   2.579  16.415  0.6794  0.1227 -1.1380
11195TIP3    H255001   1.073   2.497  16.449  0.0464  0.1827  1.3206
11196TIP3   OH255002   4.175   2.115  12.216  0.6298 -0.2616 -0.1327
11196TIP3    H155003   4.177   2.147  12.306 -2.3457  0.1822 -0.1540
11196TIP3    H255004   4.194   2.022  12.222  2.0123  0.0718  0.7640
11197TIP3   OH255005   3.930   6.225   0.017  0.0636 -0.0146 -0.2849
11197TIP3    H155006   3.955   6.298   0.073 -0.4681 -0.2334  0.2505
11197TIP3    H255007   3.834   6.226   0.018  0.0323  0.7534 -2.2166
11198TIP3   OH255008   0.642   0.422  11.345  0.4121  0.4349 -0.1125
11198TIP3    H155009   0.599   0.368  11.279  0.6923  0.1276 -0.0461
11198TIP3    H255010   0.672   0.499  11.297  1.5221 -0.2560 -0.5670
11199TIP3   OH255011   4.872   1.993   5.838  0.1813 -0.0739 -0.6123
11199TIP3    H155012   4.931   2.031   5.772 -0.0284 -0.7361 -1.1788
11199TIP3    H255013   4.856   1.904   5.808 -1.1588  0.1173 -0.4776
11200TIP3   OH255014   4.772   5.020  11.218 -0.1850 -0.4564 -0.0458
11200TIP3    H155015   4.795   4.942  11.167  0.9122  0.0057 -0.2826
11200TIP3    H255016   4.850   5.037  11.271 -0.6842  0.0648  0.5139
11201TIP3   OH255017   1.294   3.241  13.667  0.1577 -0.2461 -0.1519
11201TIP3    H155018   1.226   3.281  13.612  2.7094  0.4836 -2.9348
11201TIP3    H255019   1.262   3.152  13.684 -1.5868  0.1533 -1.2124
11202TIP3   OH255020   1.894   4.882  13.436 -0.0606  0.0595 -0.2589
11202TIP3    H155021   1.951   4.810  13.410  1.9488  1.7436 -0.6086
11202TIP3    H255022   1.948   4.960  13.428 -2.0338  1.5690  0.6515
11203TIP3   OH255023   3.112   0.702   2.655  0.6042  0.3593  0.1935
11203TIP3    H155024   3.189   0.696   2.600  0.9352  3.9567  0.1285
11203TIP3    H255025   3.041   0.726   2.595 -1.1482 -4.9343 -0.1051
11204TIP3   OH255026   1.030   3.140   1.630  0.0640  0.6967 -0.2957
11204TIP3    H155027   1.012   3.052   1.598 -0.5555  1.1934 -1.3271
11204TIP3    H255028   0.962   3.195   1.590 -0.8471  1.3123  1.9732
11205TIP3   OH255029   5.203   2.790   6.452  0.6784  0.6693 -0.5691
11205TIP3    H155030   5.244   2.867   6.490  0.0645  0.0786  1.3322
11205TIP3    H255031   5.264   2.718   6.472  0.0460  0.2508 -0.1188
11206TIP3   OH255032   5.160   4.184   4.038  0.2757  0.0430  0.0121
11206TIP3    H155033   5.089   4.162   3.979  0.6630 -1.0722 -0.0519
11206TIP3    H255034   5.146   4.129   4.116  1.2735 -0.5005 -0.1704
11207TIP3   OH255035   0.685   0.375   1.494 -0.4893  0.0509  0.3030
11207TIP3    H155036   0.694   0.365   1.399 -0.6229  0.2486  0.2708
11207TIP3    H255037   0.730   0.457   1.514  0.8041 -0.7188  0.6028
11208TIP3   OH255038   2.286   4.373   3.258 -0.2022  0.4923  0.3421
11208TIP3    H155039   2.248   4.456   3.230 -0.2924  0.3021 -0.0985
11208TIP3    H255040   2.211   4.321   3.287 -0.3474 -0.0836 -1.0407
11209TIP3   OH255041   1.379   1.530  11.059  0.2380 -0.1098  0.3841
11209TIP3    H155042   1.356   1.475  10.984  2.0883  0.7270 -0.8432
11209TIP3    H255043   1.444   1.480  11.108  3.5358  1.7484 -1.9019
11210TIP3   OH255044   1.713   0.392  16.976 -0.4249  1.0173  0.6731
11210TIP3    H155045   1.730   0.451  16.903  1.8327 -0.5692 -0.0998
11210TIP3    H255046   1.633   0.346  16.952  0.0768  0.8113 -0.6059
11211TIP3   OH255047   6.271   3.581  14.294 -0.2067  0.0809 -0.9512
11211TIP3    H155048   6.242   3.518  14.227  1.5867 -0.8859 -0.8570
11211TIP3    H255049   6.227   3.662  14.271 -1.4848 -0.8547 -1.9029
11212TIP3   OH255050   4.625   5.618   3.732 -1.1372  0.0345  0.2058
11212TIP3    H155051   4.611   5.638   3.639 -0.3879 -0.3028  0.0177
11212TIP3    H255052   4.697   5.555   3.732 -0.8822  0.3269  1.0405
11213TIP3   OH255053   6.033   6.607  10.468 -0.0423  0.4486  0.5456
11213TIP3    H155054   6.118   6.649  10.480  0.1504 -0.4576  2.4853
11213TIP3    H255055   6.030   6.585  10.375  1.8863  0.4187  0.4786
11214TIP3   OH255056   2.401   4.613  13.344 -0.3752 -0.3566  0.4430
11214TIP3    H155057   2.453   4.693  13.342 -1.8383  0.5444 -2.0019
11214TIP3    H255058   2.458   4.547  13.305 -0.2349  0.1119 -0.1382
11215TIP3   OH255059   1.839   4.973   1.339  0.0771 -0.4322 -0.3602
11215TIP3    H155060   1.844   4.980   1.435 -1.6658  0.6412 -0.3309
11215TIP3    H255061   1.858   5.062   1.308 -2.3446 -0.0684 -0.8725
11216TIP3   OH255062   1.257   3.143   1.763  0.0125 -0.5699  0.1149
11216TIP3    H155063   1.225   3.151   1.853 -0.3336  0.2854 -0.0779
11216TIP3    H255064   1.177   3.136   1.710  0.1401  0.9551 -0.3072
11217TIP3   OH255065   6.291   1.398   0.261  0.3846  0.3762 -0.1630
11217TIP3    H155066   6.378   1.438   0.259  0.0074  1.1811 -0.4405
11217TIP3    H255067   6.234   1.461   0.218 -0.3822 -0.0497  0.2153
11218TIP3   OH255068   5.748   4.765  17.108  0.3133 -0.4264 -0.2936
11218TIP3    H155069   5.794   4.798  17.031  0.1648 -0.5396 -0.4332
11218TIP3    H255070   5.811   4.775  17.180  1.0764 -1.9100 -0.7411
11219TIP3   OH255071   6.680   3.459  12.332 -0.2846 -0.2665  0.0210
11219TIP3    H155072   6.756   3.508  12.301 -1.0153  0.4069 -0.7203
11219TIP3    H255073   6.704   3.430  12.420  0.8855 -0.1874 -0.2675
11220TIP3   OH255074   0.957   3.991   5.057 -0.6470  0.2430 -0.1530
11220TIP3    H155075   0.912   4.059   5.109 -0.2360  0.5445 -0.1925
11220TIP3    H255076   1.050   4.012   5.065 -0.6394  1.0243 -2.0367
11221TIP3   OH255077   0.497   5.029  15.349  0.0534  0.3361  0.5005
11221TIP3    H155078   0.441   5.100  15.318  0.2190 -0.2944 -1.3233
11221TIP3    H255079   0.579   5.071  15.374 -0.5947  1.0402  1.5045
11222TIP3   OH255080   0.859   5.769   5.337 -0.5813  0.4882  0.3191
11222TIP3    H155081   0.881   5.694   5.392 -3.6340  1.4633  3.0389
11222TIP3    H255082   0.932   5.777   5.276  0.1493 -4.2308  0.4264
11223TIP3   OH255083   3.143   0.744  13.445  0.0897 -0.0513 -0.7579
11223TIP3    H155084   3.138   0.669  13.386  1.0857  1.2098 -2.4779
11223TIP3    H255085   3.217   0.796  13.412  1.1284  0.3204  2.0246
11224TIP3   OH255086   3.942   3.079   0.709 -0.3851  0.0496  0.0824
11224TIP3    H155087   4.034   3.070   0.735  0.1198  1.2653 -1.2126
11224TIP3    H255088   3.945   3.132   0.629 -2.4121  2.4769  1.5604
11225TIP3   OH255089   3.882   5.313  14.941 -0.5499 -0.6718  0.0694
11225TIP3    H155090   3.895   5.317  14.846 -0.5458 -1.8876  0.0153
11225TIP3    H255091   3.926   5.392  14.974 -0.6095 -0.2061 -0.9383
11226TIP3   OH255092   4.851   1.287  15.150 -0.1141  0.0843 -0.1584
11226TIP3    H155093   4.865   1.376  15.184 -2.1417  0.2127  0.3791
11226TIP3    H255094   4.775   1.295  15.092 -0.0203 -1.2246 -0.4672
11227TIP3   OH255095   3.338   1.731  12.911 -0.3892 -0.1068 -0.0135
11227TIP3    H155096   3.336   1.691  12.998 -0.4887 -1.1421 -0.4904
11227TIP3    H255097   3.429   1.724  12.883 -0.4867 -0.3727 -0.2678
11228TIP3   OH255098   4.835   1.568  14.904  0.7047 -0.1114 -0.7665
11228TIP3    H155099   4.741   1.579  14.885  0.2967 -0.6649  0.8752
11228TIP3    H255100   4.879   1.616  14.833 -0.8006 -0.1799 -1.7799
11229TIP3   OH255101   1.766   6.479  11.794  0.0519 -0.4794 -0.4068
11229TIP3    H155102   1.739   6.389  11.775  0.3314 -0.6950  0.2119
11229TIP3    H255103   1.861   6.477  11.789  0.1202 -0.5136  0.9043
11230TIP3   OH255104   0.349   1.457   1.277 -0.0030  0.5594 -0.0718
11230TIP3    H155105   0.390   1.380   1.316 -1.9955 -1.6559 -2.1609
11230TIP3    H255106   0.399   1.472   1.197  0.4944  1.5719  0.4238
11231TIP3   OH255107   3.864   4.576  16.550  0.2746 -0.4267  0.4659
11231TIP3    H155108   3.876   4.535  16.636 -1.9451 -0.7348  0.6585
11231TIP3    H255109   3.805   4.649  16.567  0.2745 -0.1385 -0.7209
11232TIP3   OH255110   6.220   4.882   1.839 -0.4291 -0.4153 -0.0678
11232TIP3    H155111   6.216   4.969   1.878 -0.0791 -0.7401  0.7033
11232TIP3    H255112   6.227   4.898   1.744  2.5652  0.4648  0.2425
11233TIP3   OH255113   3.520   4.586   2.205 -0.5065 -0.6216 -0.7116
11233TIP3    H155114   3.553   4.621   2.288 -0.0409 -0.5457 -0.9226
11233TIP3    H255115   3.559   4.643   2.138 -2.4265  0.5041 -0.8958
11234TIP3   OH255116   4.588   4.597   0.583  0.0575  0.0679 -0.4079
11234TIP3    H155117   4.639   4.537   0.529 -0.5905 -0.3001 -0.6233
11234TIP3    H255118   4.647   4.669   0.602 -0.4678  1.4754 -3.7679
11235TIP3   OH255119   5.661   2.784  15.944 -0.2814  0.3973  0.6334
11235TIP3    H155120   5.754   2.779  15.923 -0.2952  2.4242 -0.0355
11235TIP3    H255121   5.617   2.758  15.862 -0.3080  1.7933  0.1990
11236TIP3   OH255122   6.353   4.569   5.780 -0.1681  0.0924 -0.4230
11236TIP3    H155123   6.316   4.523   5.856  2.5284 -1.6749 -0.1124
11236TIP3    H255124   6.410   4.636   5.818  0.7617 -0.4436 -0.8571
11237TIP3   OH255125   4.177   3.099   5.777 -0.4897  0.2210 -0.6872
11237TIP3    H155126   4.228   3.151   5.839  0.0700  0.6469 -1.4956
11237TIP3    H255127   4.203   3.009   5.794 -0.1480  0.3584 -0.4799
11238TIP3   OH255128   4.085   1.621  15.633  0.5881  0.0511  0.5355
11238TIP3    H155129   4.091   1.561  15.708 -1.0292  1.1418  1.5579
11238TIP3    H255130   4.137   1.697  15.660  1.2309 -0.1661 -0.0702
11239TIP3   OH255131   6.657   5.339  11.811  0.7490  0.2964  0.1694
11239TIP3    H155132   6.575   5.387  11.799  1.4621  1.9871  2.0023
11239TIP3    H255133   6.684   5.317  11.721 -0.4282  1.8560 -0.5938
11240TIP3   OH255134   2.476   1.563  11.080 -0.3506  0.3685  0.4462
11240TIP3    H155135   2.443   1.641  11.036  0.6736  0.2437 -0.5694
11240TIP3    H255136   2.566   1.554  11.048 -0.2346 -0.8266  1.0882
11241TIP3   OH255137   6.676   3.561   4.844 -0.1817 -0.0280  0.2654
11241TIP3    H155138   6.606   3.604   4.794 -0.3298  0.5223  0.9238
11241TIP3    H255139   6.631   3.521   4.919  0.3900  1.7529  1.6025
11242TIP3   OH255140   4.836   3.606  10.903 -0.4699  0.1050 -0.0626
11242TIP3    H155141   4.931   3.620  10.897 -0.6338  0.4582 -2.6407
11242TIP3    H255142   4.808   3.661  10.975  0.7097  3.4128 -1.9897
11243TIP3   OH255143   0.343   4.393  12.598  0.2241 -0.1627 -0.1313
11243TIP3    H155144   0.314   4.322  12.656 -2.5951 -0.3487 -1.6660
11243TIP3    H255145   0.376   4.460  12.658  1.4452 -2.0841  1.4385
11244TIP3   OH255146   4.480   4.904  16.696 -0.0212  0.6256 -0.5405
11244TIP3    H155147   4.414   4.870  16.756  0.1688  0.1743 -0.5840
11244TIP3    H255148   4.550   4.838  16.698  0.3006  0.9635 -0.7076
11245TIP3   OH255149   0.807   6.492   4.696  0.6502  0.1087  0.2656
11245TIP3    H155150   0.750   6.414   4.696  2.7774 -1.6656  4.9735
11245TIP3    H255151   0.887   6.463   4.652  1.0114 -0.0093  0.9996
11246TIP3   OH255152   2.031   1.445  13.850  0.6214  0.6552  0.4858
11246TIP3    H155153   2.093   1.416  13.916  1.6878  3.4105  0.7683
11246TIP3    H255154   1.946   1.445  13.894  0.8031 -0.6015  0.8661
11247TIP3   OH255155   4.280   2.658   1.243  0.2148  0.5594 -0.3262
11247TIP3    H155156   4.197   2.627   1.208 -0.0668  0.6697  0.2294
11247TIP3    H255157   4.346   2.600   1.205 -0.2849 -0.5955  0.5492
11248TIP3   OH255158   1.950   0.258   2.575 -0.2468  0.2646 -0.3750
11248TIP3    H155159   1.876   0.205   2.606 -0.2822  0.0133 -0.8852
11248TIP3    H255160   2.010   0.195   2.537 -0.6042  0.6625 -1.6106
11249TIP3   OH255161   5.967   6.480  16.743  0.2033  0.7540  0.1900
11249TIP3    H155162   5.954   6.536  16.666  1.6927  1.0673  0.1524
11249TIP3    H255163   6.061   6.484  16.760  0.0743 -0.3562  1.2458
11250TIP3   OH255164   4.701   0.780   5.219  0.1670 -0.4622 -0.2147
11250TIP3    H155165   4.690   0.848   5.286 -0.2650  0.0647 -0.8096
11250TIP3    H255166   4.614   0.739   5.213 -0.3902  0.9188 -1.9624
11251TIP3   OH255167   2.957   4.717  12.716  0.0529 -0.2082 -0.3989
11251TIP3    H155168   2.935   4.799  12.672  0.5779 -0.7042 -1.6048
11251TIP3    H255169   2.913   4.650  12.663 -1.2324 -0.6368  1.1612
11252TIP3   OH255170   5.373   1.278  14.737 -0.2696  0.2020 -0.1779
11252TIP3    H155171   5.329   1.210  14.788  0.4189 -0.7918 -0.8805
11252TIP3    H255172   5.429   1.324  14.800  0.7035 -1.1230 -0.0477
11253TIP3   OH255173   1.015   6.035   4.145 -0.2549 -0.6085 -0.5554
11253TIP3    H155174   1.081   6.055   4.079  0.6549  0.9541  0.8058
11253TIP3    H255175   0.932   6.055   4.101  0.1583 -2.1331 -2.1077
11254TIP3   OH255176   6.039   3.554  16.561  0.4548 -0.2720  0.0820
11254TIP3    H155177   6.035   3.464  16.593  0.9816 -0.1320  0.5464
11254TIP3    H255178   5.970   3.559  16.495  0.3212 -0.9728  0.1640
11255TIP3   OH255179   3.988   6.367   5.949 -0.1725  0.3562  0.2752
11255TIP3    H155180   3.911   6.312   5.937  0.1575 -0.3242  1.2412
11255TIP3    H255181   3.953   6.456   5.955 -0.7168  0.2617 -1.1398
11256TIP3   OH255182   6.082   6.682  13.097 -0.1571 -0.5199 -0.4751
11256TIP3    H155183   6.134   6.618  13.146 -0.2454  0.2346  0.6097
11256TIP3    H255184   6.119   6.679  13.008 -0.1489 -2.0559 -0.4369
11257TIP3   OH255185   4.816   0.149   5.788  0.2252 -0.0663 -0.2088
11257TIP3    H155186   4.902   0.120   5.817  0.4207 -1.1656 -1.8455
11257TIP3    H255187   4.764   0.154   5.869  1.6367  0.0421  0.7147
11258TIP3   OH255188   4.508   5.963   5.750 -0.4464 -0.4411 -0.3182
11258TIP3    H155189   4.454   5.963   5.829 -0.4126  1.5226 -0.2853
11258TIP3    H255190   4.577   5.898   5.768 -1.0317 -0.7500  0.8333
11259TIP3   OH255191   0.931   4.536  15.171 -0.7596  0.4589 -0.3951
11259TIP3    H155192   0.839   4.527  15.196 -0.4679  4.0166  2.2508
11259TIP3    H255193   0.933   4.613  15.115  0.4919 -0.2335 -1.3305
11260TIP3   OH255194   1.568   3.450   0.616  0.0088  0.1884 -0.1485
11260TIP3    H155195   1.559   3.428   0.523 -1.1121  0.2874 -0.0732
11260TIP3    H255196   1.558   3.366   0.661 -0.6578  0.3122 -0.0574
11261TIP3   OH255197   3.071   3.297  11.259  0.3378 -0.4334 -0.2698
11261TIP3    H155198   2.980   3.273  11.273 -0.0042  0.1591 -1.4111
11261TIP3    H255199   3.103   3.233  11.195  0.6771 -0.5216 -0.0173
11262TIP3   OH255200   0.571   2.516  13.983  0.1928 -0.2528 -0.7656
11262TIP3    H155201   0.559   2.528  13.889  0.1059  1.5021 -0.5506
11262TIP3    H255202   0.662   2.539  13.999  0.3337 -0.9965 -0.4876
11263TIP3   OH255203   0.460   0.000  13.290  0.5461  0.6542  0.1184
11263TIP3    H155204   0.549  -0.033  13.274  0.0627  0.7647 -3.0840
11263TIP3    H255205   0.408  -0.078  13.307  1.1721  0.5580  1.6456
11264TIP3   OH255206   0.989   2.276  16.662  0.1175 -0.1354  0.1362
11264TIP3    H155207   0.911   2.222  16.676  0.2306 -0.3287  0.0188
11264TIP3    H255208   0.993   2.333  16.739 -1.5198  1.5747 -0.9820
11265TIP3   OH255209   6.717   2.379  12.537  0.1803  0.6676  0.0651
11265TIP3    H155210   6.635   2.341  12.569  0.6852 -1.4194 -1.0229
11265TIP3    H255211   6.785   2.329  12.582  0.8653  0.5141 -1.1372
11266TIP3   OH255212   5.335   1.179   2.029 -0.1805  0.3882 -0.1004
11266TIP3    H155213   5.258   1.236   2.032  0.0005  0.5881  1.7642
11266TIP3    H255214   5.299   1.090   2.029 -0.4291  0.4809 -1.1119
11267TIP3   OH255215   3.204   2.246   1.702 -0.3346 -0.1785 -0.1204
11267TIP3    H155216   3.127   2.293   1.670 -0.2294  0.8503  1.0723
11267TIP3    H255217   3.176   2.212   1.787  0.5323  0.2347  0.3308
11268TIP3   OH255218   3.900   6.289  13.285 -0.1372  0.2112 -0.3098
11268TIP3    H155219   3.981   6.247  13.255 -0.1466  0.3320 -0.5032
11268TIP3    H255220   3.831   6.247  13.235 -0.3428 -0.8927  0.8700
11269TIP3   OH255221   4.288   4.590  14.733  0.1394  0.0572 -0.1648
11269TIP3    H155222   4.205   4.581  14.687 -0.5969  0.5898  1.0126
11269TIP3    H255223   4.355   4.593  14.664 -0.8652  0.1040 -1.1384
11270TIP3   OH255224   2.102   5.461  16.679 -0.0695 -0.1556 -0.1398
11270TIP3    H155225   2.023   5.474  16.627 -0.8926  0.4668  1.2381
11270TIP3    H255226   2.092   5.373  16.716  0.4028 -0.5053 -0.8350
11271TIP3   OH255227   3.794   2.765   2.815 -0.0417 -0.0213  0.1840
11271TIP3    H155228   3.858   2.723   2.757 -1.5026 -1.6843 -0.2908
11271TIP3    H255229   3.830   2.852   2.833  2.1739 -0.8017 -0.3287
11272TIP3   OH255230   5.228   2.052  11.387  0.0592  0.0978  0.2600
11272TIP3    H155231   5.302   2.009  11.429 -0.2299 -0.4010  0.2559
11272TIP3    H255232   5.262   2.079  11.302  0.4897  0.6410  0.5985
11273TIP3   OH255233   4.667   5.361   1.859 -0.1494  0.3795 -0.6104
11273TIP3    H155234   4.743   5.343   1.803 -0.3610 -0.5437 -0.6085
11273TIP3    H255235   4.592   5.361   1.800 -0.0715  2.1798 -0.7570
11274TIP3   OH255236   0.869   3.310   2.734  0.2436  0.3842 -0.0284
11274TIP3    H155237   0.920   3.391   2.741 -0.3189  0.6237  1.4637
11274TIP3    H255238   0.845   3.289   2.824  0.1710 -1.3190 -0.4204
11275TIP3   OH255239   0.264   0.111  13.957 -0.0467 -0.2618  0.1866
11275TIP3    H155240   0.355   0.111  13.986  0.1472 -2.9789 -0.2214
11275TIP3    H255241   0.214   0.136  14.034  0.8520 -1.8810  1.3181
11276TIP3   OH255242   6.016   3.803   4.949 -0.5862 -0.0447  0.3284
11276TIP3    H155243   6.020   3.876   4.888  0.1953 -0.3457  0.0022
11276TIP3    H255244   5.941   3.751   4.920  0.6152 -0.9297 -1.2461
11277TIP3   OH255245   5.569   5.650   4.226 -0.2498  0.0791  0.5913
11277TIP3    H155246   5.532   5.699   4.152  0.5947  1.5670  1.1197
11277TIP3    H255247   5.642   5.601   4.187 -0.5225 -0.0369  0.2231
11278TIP3   OH255248   4.311   2.861   2.095 -0.2322 -0.7491 -0.6275
11278TIP3    H155249   4.330   2.817   2.178  0.7394 -0.4460 -0.6780
11278TIP3    H255250   4.381   2.926   2.086 -1.8701  1.0949 -0.3603
11279TIP3   OH255251   4.659   0.015  11.318 -0.1571  0.2680  0.3068
11279TIP3    H155252   4.628   0.105  11.312  0.9049  0.6943  1.0008
11279TIP3    H255253   4.732   0.011  11.256  0.7841  0.3327  1.3820
11280TIP3   OH255254   3.915   2.540  16.039 -0.0349  0.2614  0.2404
11280TIP3    H155255   3.953   2.612  15.990  0.5501 -0.7859 -0.8878
11280TIP3    H255256   3.978   2.521  16.109  0.9390 -0.6397 -0.8545
11281TIP3   OH255257   0.404   6.306   2.593 -0.1298 -0.0740 -0.1911
11281TIP3    H155258   0.321   6.322   2.547 -0.8573  0.9896  1.4462
11281TIP3    H255259   0.441   6.393   2.607  1.4473 -0.5606 -1.1921
11282TIP3   OH255260   2.637   1.321  11.898 -0.0371 -0.1327  0.5860
11282TIP3    H155261   2.720   1.308  11.851  0.3062  0.6955  0.9430
11282TIP3    H255262   2.624   1.416  11.896 -1.7485 -0.3813 -0.7706
11283TIP3   OH255263   0.408   3.701   6.416 -0.2804 -0.6283 -0.1461
11283TIP3    H155264   0.469   3.761   6.458 -0.6001 -0.7001  0.4291
11283TIP3    H255265   0.382   3.640   6.485  1.5370 -2.6557 -1.2085
11284TIP3   OH255266   2.658   6.726  16.301 -0.6397  0.0362  0.1565
11284TIP3    H155267   2.669   6.745  16.208 -2.5260 -0.0602 -0.1228
11284TIP3    H255268   2.640   6.632  16.304  0.5535 -0.1772  0.7340
11285TIP3   OH255269   0.516   3.871  12.313 -0.3500 -0.0522 -0.7642
11285TIP3    H155270   0.486   3.958  12.287  2.1344  0.5513 -1.6612
11285TIP3    H255271   0.515   3.819  12.233 -0.6876 -0.5277 -0.4581
11286TIP3   OH255272   2.646   6.677  13.758  0.7782  0.9508  0.2768
11286TIP3    H155273   2.596   6.603  13.725  3.6546 -1.5854  1.2691
11286TIP3    H255274   2.605   6.698  13.842  0.1339  0.2490  0.1423
11287TIP3   OH255275   0.527   4.094   5.510  0.2363  0.0075  0.2091
11287TIP3    H155276   0.447   4.119   5.463  0.4527  0.9939  0.3359
11287TIP3    H255277   0.568   4.028   5.454  0.5272  1.2212 -1.0556
11288TIP3   OH255278   3.205   3.477  12.994 -0.5654 -0.4936  0.1602
11288TIP3    H155279   3.112   3.460  12.983 -0.1142 -1.9480 -1.8373
11288TIP3    H255280   3.247   3.429  12.922  1.6571  0.8240  0.5172
11289TIP3   OH255281   5.835   5.759  14.150 -0.0677 -0.1028  0.0302
11289TIP3    H155282   5.860   5.695  14.084  2.2710  0.5107  0.2759
11289TIP3    H255283   5.770   5.715  14.204 -2.3356 -0.4903 -2.8893
11290TIP3   OH255284   5.567   3.594   2.001  0.1493 -0.0925 -0.3277
11290TIP3    H155285   5.594   3.526   1.939 -1.6584 -0.4925 -0.7177
11290TIP3    H255286   5.618   3.671   1.977  1.2217 -0.9413 -0.7642
11291TIP3   OH255287   3.810   5.746   5.692  0.4878  0.1069 -0.3397
11291TIP3    H155288   3.826   5.813   5.758  0.3297 -1.2458  1.0977
11291TIP3    H255289   3.758   5.790   5.625  0.1375  1.3339  0.7181
11292TIP3   OH255290   5.872   1.049   2.520  0.6950  0.7595  0.2589
11292TIP3    H155291   5.860   1.116   2.588  1.9876  0.7126  0.5333
11292TIP3    H255292   5.918   1.095   2.450  0.7210  0.3995  0.0409
11293TIP3   OH255293   0.511   3.408   0.678  0.5025  0.7676 -0.4039
11293TIP3    H155294   0.416   3.415   0.674  0.4330  0.8195  1.0728
11293TIP3    H255295   0.530   3.319   0.647  0.0385  1.0059 -1.3949
11294TIP3   OH255296   0.240   5.191   0.999 -0.4541 -0.0939 -0.6104
11294TIP3    H155297   0.173   5.204   0.932 -2.7692 -0.3451  1.6232
11294TIP3    H255298   0.239   5.098   1.018  0.5849 -0.1141 -0.6054
11295TIP3   OH255299   0.121   3.952  17.166  0.4123 -0.0083  0.2007
11295TIP3    H155300   0.125   4.047  17.174 -1.2474  0.2240 -1.5244
11295TIP3    H255301   0.084   3.936  17.079 -2.6965 -2.1737  1.8349
11296TIP3   OH255302   1.430   0.138  16.475 -0.3159  0.1049  0.1304
11296TIP3    H155303   1.481   0.187  16.412 -0.2556  0.6329  0.5882
11296TIP3    H255304   1.365   0.200  16.508 -0.5912 -0.2714  0.3065
11297TIP3   OH255305   6.311   5.963  15.265 -0.4899 -0.5214 -0.0919
11297TIP3    H155306   6.343   5.982  15.177  0.2886  0.5955  0.4261
11297TIP3    H255307   6.385   5.982  15.323 -1.6592  0.8314  1.0012
11298TIP3   OH255308   2.616   4.628   6.166  0.1340 -0.3527 -0.1451
11298TIP3    H155309   2.588   4.715   6.137  0.9365 -0.8982 -2.6497
11298TIP3    H255310   2.614   4.633   6.262  0.0792  2.3933 -0.2542
11299TIP3   OH255311   6.741   6.735   4.723  0.1780 -0.1060 -0.3271
11299TIP3    H155312   6.702   6.649   4.742  0.9521 -0.0767  1.5367
11299TIP3    H255313   6.765   6.730   4.630 -0.9580 -1.4195 -0.5812
11300TIP3   OH255314   4.201   2.629  12.228 -0.5112  0.3769  0.2795
11300TIP3    H155315   4.118   2.602  12.190  0.4337 -1.7503 -0.3691
11300TIP3    H255316   4.196   2.602  12.320 -1.3525  2.2190  0.8111
11301TIP3   OH255317   3.751   5.508  11.402  0.0542  0.1075 -0.0910
11301TIP3    H155318   3.670   5.543  11.366  2.0149  2.5430 -2.2635
11301TIP3    H255319   3.762   5.424  11.358 -1.2769 -0.2710  0.2601
11302TIP3   OH255320   0.780   2.493  11.834  0.0570  0.1451 -0.1317
11302TIP3    H155321   0.807   2.402  11.849  0.6491 -0.0426 -2.1454
11302TIP3    H255322   0.838   2.545  11.889  0.9825 -0.5965 -0.3939
11303TIP3   OH255323   5.517   5.640  11.604 -0.2397  0.3084 -0.6077
11303TIP3    H155324   5.522   5.628  11.510 -0.1841  2.2212 -0.8693
11303TIP3    H255325   5.488   5.730  11.616  2.3163  0.9889  1.2023
11304TIP3   OH255326   0.535   2.614  11.392  0.2142  0.3016 -0.6263
11304TIP3    H155327   0.571   2.582  11.310 -0.0586  2.4594 -1.6001
11304TIP3    H255328   0.472   2.546  11.418  2.9041 -2.1942 -0.2534
11305TIP3   OH255329   5.134   5.525   1.241  0.4891 -0.1216  0.4815
11305TIP3    H155330   5.089   5.552   1.321  2.4318  1.6747  0.9793
11305TIP3    H255331   5.094   5.578   1.172 -0.0971 -0.5673  0.4641
11306TIP3   OH255332   1.791   4.809   1.746 -0.3328  0.2747  0.4990
11306TIP3    H155333   1.807   4.893   1.703  0.2933 -0.1060 -0.0168
11306TIP3    H255334   1.774   4.748   1.674 -1.6495  0.1323  0.9124
11307TIP3   OH255335   4.948   2.607   1.300 -0.0353  0.1089 -0.0530
11307TIP3    H155336   4.947   2.533   1.238  0.8595 -0.4614  0.6076
11307TIP3    H255337   4.856   2.633   1.307 -0.2570 -0.4144 -0.9268
11308TIP3   OH255338   4.503   6.074   1.073  0.1758  0.1220  0.5548
11308TIP3    H155339   4.476   6.128   1.148 -0.7568  1.0368 -0.4245
11308TIP3    H255340   4.422   6.039   1.038  0.6255 -0.4221  0.0463
11309TIP3   OH255341   1.915   0.963   3.942 -0.6658  0.3011  0.4577
11309TIP3    H155342   1.905   0.949   4.036  1.7254 -1.2990  0.5118
11309TIP3    H255343   1.967   1.043   3.935  0.4857 -0.4361  0.5386
11310TIP3   OH255344   0.144   4.630   1.550  0.1494 -0.4345  0.4222
11310TIP3    H155345   0.105   4.683   1.481  1.2932  0.6352  0.5798
11310TIP3    H255346   0.230   4.668   1.564  0.3079 -1.2462  1.7675
11311TIP3   OH255347   4.063   4.160   1.049  0.4536  0.3744  0.2416
11311TIP3    H155348   4.116   4.095   1.004  1.3232  0.7492  0.7005
11311TIP3    H255349   4.108   4.174   1.132  0.2940  1.5699  0.1376
11312TIP3   OH255350   3.797   6.500   0.610 -0.0965 -0.6033 -0.1003
11312TIP3    H155351   3.847   6.528   0.687 -1.6927  0.0105  0.7624
11312TIP3    H255352   3.743   6.428   0.643  0.2429 -1.2774 -1.0159
11313TIP3   OH255353   1.995   3.453   1.310  0.0964  0.0528  0.4712
11313TIP3    H155354   2.008   3.363   1.337 -0.4411 -0.3650 -0.6265
11313TIP3    H255355   1.911   3.478   1.349 -0.1287 -0.1738  0.1290
11314TIP3   OH255356   2.456   1.487   5.652 -0.2253 -0.1174  0.1811
11314TIP3    H155357   2.470   1.454   5.563 -1.4313 -0.1887  0.0070
11314TIP3    H255358   2.362   1.478   5.666 -0.1382  0.5289  1.2161
11315TIP3   OH255359   6.359   5.955  14.395  0.7041  0.2836 -0.1388
11315TIP3    H155360   6.298   5.890  14.430  0.3504  0.2678 -0.7767
11315TIP3    H255361   6.343   5.954  14.300 -0.5674  2.5825  0.0183
11316TIP3   OH255362   0.764   6.771   2.217  0.1797 -0.2040  0.2947
11316TIP3    H155363   0.724   6.844   2.170 -0.9966 -0.0860  1.4460
11316TIP3    H255364   0.733   6.693   2.171 -1.2540 -0.1046  1.0842
11317TIP3   OH255365   1.635   1.397  12.085 -0.2003  0.2488 -0.6344
11317TIP3    H155366   1.573   1.454  12.040 -0.0921  0.5018 -0.4710
11317TIP3    H255367   1.618   1.310  12.051 -0.9866  0.2365 -0.2270
11318TIP3   OH255368   4.583   6.131  12.824  0.7458 -0.1423  0.1063
11318TIP3    H155369   4.522   6.058  12.823 -0.4697  0.8715 -0.5137
11318TIP3    H255370   4.607   6.142  12.916  0.1548 -0.6790  0.3223
11319TIP3   OH255371   5.398   0.021  14.596  0.3600  0.3627 -0.0832
11319TIP3    H155372   5.479   0.002  14.548  0.3953 -0.9740  0.4785
11319TIP3    H255373   5.349   0.078  14.537  1.4492  0.7101 -0.6828
11320TIP3   OH255374   6.082   5.865   3.378  0.4245 -0.2261 -0.1676
11320TIP3    H155375   6.019   5.937   3.372  0.9985  0.4100  1.3348
11320TIP3    H255376   6.097   5.839   3.287  0.4897  1.7791 -0.7445
11321TIP3   OH255377   4.363   6.116  14.494  0.9212  0.6285 -0.4764
11321TIP3    H155378   4.287   6.173  14.510  0.1915 -0.1342 -1.2164
11321TIP3    H255379   4.411   6.160  14.424  0.5481  0.5228 -0.8002
11322TIP3   OH255380   1.113   3.520   2.667  0.7778 -0.3965  0.0751
11322TIP3    H155381   1.098   3.505   2.574  0.0773 -0.7196  0.2330
11322TIP3    H255382   1.200   3.484   2.684  0.7958 -0.5778 -0.4043
11323TIP3   OH255383   2.913   5.089  12.098 -0.2470 -0.2435 -0.0528
11323TIP3    H155384   2.920   4.995  12.083  2.6550 -0.0423 -0.2990
11323TIP3    H255385   2.833   5.099  12.150 -1.0831 -2.7259 -0.7694
11324TIP3   OH255386   2.249   4.244  12.375  0.4207  0.0155  0.2939
11324TIP3    H155387   2.198   4.180  12.425 -1.7139  1.1356 -0.3746
11324TIP3    H255388   2.291   4.193  12.306 -1.9497 -0.5775 -0.7643
11325TIP3   OH255389   0.522   2.500   5.161 -0.2166 -0.5000 -0.1586
11325TIP3    H155390   0.511   2.500   5.256 -3.1722 -1.0642 -0.4632
11325TIP3    H255391   0.502   2.590   5.135  1.8292 -0.0175 -0.1565
11326TIP3   OH255392   0.637   3.272  12.147 -0.0650  0.0279 -0.3334
11326TIP3    H155393   0.720   3.236  12.178  0.0685 -1.6780 -2.5089
11326TIP3    H255394   0.598   3.200  12.097 -2.1122  1.3523 -0.6862
11327TIP3   OH255395   0.318   4.333   5.611 -0.0169 -0.5282 -0.0049
11327TIP3    H155396   0.242   4.275   5.620 -1.1778  0.7850 -1.2157
11327TIP3    H255397   0.393   4.274   5.605 -0.8919 -1.8308  1.5721
11328TIP3   OH255398   4.876   4.848  16.751  0.0966  0.0615 -0.0578
11328TIP3    H155399   4.944   4.909  16.723  0.6706 -0.0679  1.0320
11328TIP3    H255400   4.876   4.779  16.685  1.8691 -0.5693  0.5639
11329TIP3   OH255401   3.251   3.448   2.458 -0.3338 -0.7011 -0.1990
11329TIP3    H155402   3.247   3.416   2.368 -0.3504  0.1548 -0.5111
11329TIP3    H255403   3.229   3.541   2.451  1.7733 -0.1289  0.4001
11330TIP3   OH255404   5.658   5.964   1.600 -0.6260 -0.3422 -0.2275
11330TIP3    H155405   5.618   5.904   1.663  1.8302 -1.6304  0.1597
11330TIP3    H255406   5.681   5.908   1.525  1.0909  0.2457 -0.1365
11331TIP3   OH255407   2.407   3.604  15.027 -0.1283  0.3992 -0.2284
11331TIP3    H155408   2.458   3.676  14.992  1.4618 -0.5381  0.0978
11331TIP3    H255409   2.321   3.641  15.046  0.8248  2.3237  0.3963
11332TIP3   OH255410   1.294   1.070   6.395 -0.1907 -0.2331 -0.2601
11332TIP3    H155411   1.258   1.019   6.468 -3.1911 -1.9198 -2.7826
11332TIP3    H255412   1.226   1.133   6.373 -0.2759 -1.2131 -2.9751
11333TIP3   OH255413   1.815   4.263   3.639  0.4756  0.5066 -0.5203
11333TIP3    H155414   1.899   4.218   3.639  0.2513  0.0695  1.0015
11333TIP3    H255415   1.836   4.354   3.662  0.3524  0.0085  1.6510
11334TIP3   OH255416   2.311   6.609  15.421  0.1577  0.1312 -0.4038
11334TIP3    H155417   2.375   6.633  15.489  0.0658  0.7297 -0.5304
11334TIP3    H255418   2.335   6.519  15.398  1.4131  0.5942 -0.9623
11335TIP3   OH255419   3.837   1.994   3.598 -0.2963  0.9571  0.2454
11335TIP3    H155420   3.874   1.992   3.687  0.7326 -0.3894 -0.1877
11335TIP3    H255421   3.840   1.903   3.570  1.0063  1.6189 -1.8357
11336TIP3   OH255422   5.142   4.467   3.588 -0.1188 -0.0599  0.0881
11336TIP3    H155423   5.216   4.414   3.618 -0.1625  0.6885  1.5472
11336TIP3    H255424   5.104   4.416   3.516  1.1125 -1.0010  0.0897
11337TIP3   OH255425   1.753   0.428   3.836  1.1067 -0.5932 -0.5275
11337TIP3    H155426   1.820   0.365   3.810  0.5248 -1.7238  0.6705
11337TIP3    H255427   1.686   0.376   3.880 -0.2734  0.6115 -1.1627
11338TIP3   OH255428   3.244   6.502  13.129 -0.2387  0.0905  0.1182
11338TIP3    H155429   3.178   6.567  13.104  0.0344 -0.1528 -1.2487
11338TIP3    H255430   3.308   6.552  13.179 -0.4305  0.7240 -0.2605
11339TIP3   OH255431   0.433   2.331  13.151 -0.2376 -0.4546  0.0435
11339TIP3    H155432   0.475   2.413  13.177  0.7148 -0.7683 -0.4697
11339TIP3    H255433   0.373   2.356  13.081 -1.2233  0.0606  1.0614
11340TIP3   OH255434   0.498   3.234  11.754  0.3810 -0.2046  0.2825
11340TIP3    H155435   0.424   3.209  11.698 -0.0732  1.9661 -0.1261
11340TIP3    H255436   0.461   3.295  11.817  2.1571  2.3344 -1.0565
11341TIP3   OH255437   4.672   0.490   6.209 -0.0074 -0.6192 -0.2230
11341TIP3    H155438   4.647   0.571   6.164 -1.9738 -0.4261  1.1515
11341TIP3    H255439   4.589   0.446   6.227  1.0085 -2.6412 -0.3800
11342TIP3   OH255440   5.562   2.987  15.110 -0.2194 -0.6903  0.2146
11342TIP3    H155441   5.493   2.953  15.054  0.6097 -2.3145  0.1468
11342TIP3    H255442   5.517   3.038  15.177 -1.2794  0.5300 -1.4056
11343TIP3   OH255443   5.250   3.335  16.309 -0.5545  0.0573 -0.0955
11343TIP3    H155444   5.294   3.262  16.266 -0.3267  0.0662  0.1246
11343TIP3    H255445   5.226   3.301  16.396 -0.4892  0.2321 -0.0107
11344TIP3   OH255446   3.456   3.520   3.614 -0.1464 -0.1675 -0.4439
11344TIP3    H155447   3.419   3.559   3.693  0.6611  1.3423 -0.7725
11344TIP3    H255448   3.549   3.506   3.636 -0.4740 -2.1476 -0.2596
11345TIP3   OH255449   4.746   0.991  13.803 -0.8779  0.0952 -0.0621
11345TIP3    H155450   4.762   0.948  13.887 -4.1298  1.1461  1.1509
11345TIP3    H255451   4.803   0.944  13.741  1.8792 -0.4249  2.7388
11346TIP3   OH255452   6.738   5.154   2.545 -0.4325  0.0480  0.0239
11346TIP3    H155453   6.772   5.199   2.622 -0.4813  1.1851 -0.6059
11346TIP3    H255454   6.644   5.144   2.563 -0.5236  0.7125 -0.0827
11347TIP3   OH255455   0.731   4.440   1.491 -0.5841  0.2997  0.4964
11347TIP3    H155456   0.788   4.365   1.473 -1.6458 -0.4427  0.1749
11347TIP3    H255457   0.642   4.404   1.489 -1.0297  1.2773  1.8629
11348TIP3   OH255458   2.419   2.578  11.703  0.4410 -0.2080  0.0015
11348TIP3    H155459   2.455   2.515  11.765 -0.9983 -1.3647 -0.3035
11348TIP3    H255460   2.491   2.598  11.644  1.3105 -0.4764  0.9667
11349TIP3   OH255461   5.302   2.888   5.804 -0.0665  0.2469 -0.7882
11349TIP3    H155462   5.340   2.907   5.889  2.0000 -2.3763 -1.0426
11349TIP3    H255463   5.301   2.972   5.758 -0.2449  1.4834  1.4373
11350TIP3   OH255464   1.401   6.368   3.523  0.4101  0.2434  0.6402
11350TIP3    H155465   1.345   6.292   3.507 -0.4786  1.1857 -0.8985
11350TIP3    H255466   1.482   6.349   3.476  0.2014  0.2293  0.2837
11351TIP3   OH255467   2.346   1.724  15.609  0.1868  0.3594 -0.8957
11351TIP3    H155468   2.365   1.681  15.525  0.8078  0.0919 -0.6218
11351TIP3    H255469   2.431   1.728  15.654 -0.8133 -3.4231  1.5587
11352TIP3   OH255470   4.542   4.286   3.083 -0.3117  0.4227  0.5651
11352TIP3    H155471   4.587   4.370   3.094  0.4622 -0.0034  0.6848
11352TIP3    H255472   4.452   4.304   3.110 -0.2050  1.2712  0.3827
11353TIP3   OH255473   1.609   4.699  14.553  0.1443 -0.0339 -0.0767
11353TIP3    H155474   1.585   4.755  14.479 -0.9308  0.6900  0.8111
11353TIP3    H255475   1.579   4.612  14.528 -1.1171  0.3941 -0.0687
11354TIP3   OH255476   2.299   0.017  13.734 -0.1710  0.1145  0.2782
11354TIP3    H155477   2.284  -0.073  13.703 -3.5098  1.3830 -2.0354
11354TIP3    H255478   2.246   0.072  13.676  0.2905  3.4417  2.8445
11355TIP3   OH255479   4.724   5.152  10.420 -0.0266 -0.2442 -0.3224
11355TIP3    H155480   4.637   5.188  10.403 -0.4757 -1.6531 -1.0746
11355TIP3    H255481   4.772   5.161  10.338 -0.2638 -1.6546 -0.6354
11356TIP3   OH255482   0.796   4.007   0.143  0.4472  0.6253  0.4327
11356TIP3    H155483   0.745   4.088   0.146 -1.0595 -0.2369 -1.2355
11356TIP3    H255484   0.825   3.999   0.053 -0.4824 -1.3154  0.2698
11357TIP3   OH255485   5.504   6.012   4.394  1.0276  0.4636  0.0400
11357TIP3    H155486   5.594   6.015   4.362  1.5776 -0.4355  1.4603
11357TIP3    H255487   5.505   6.065   4.473 -0.2846  2.5231 -1.2665
11358TIP3   OH255488   0.555   2.680   3.018  0.1603  0.2015  0.4498
11358TIP3    H155489   0.555   2.751   3.083 -1.0722  0.5871  0.0392
11358TIP3    H255490   0.639   2.690   2.972  0.3747  0.8641  0.9725
11359TIP3   OH255491   3.309   6.012   2.238 -0.5245  0.3762 -0.0710
11359TIP3    H155492   3.352   5.950   2.179 -0.1377  0.2145  0.3677
11359TIP3    H255493   3.252   5.957   2.292  0.0674  0.3502  0.5405
11360TIP3   OH255494   3.037   6.702  11.509  0.4904  0.1620  0.8233
11360TIP3    H155495   3.114   6.759  11.502  0.5982 -0.1988 -1.1984
11360TIP3    H255496   3.059   6.626  11.455 -1.4383  0.2350 -0.0923
11361TIP3   OH255497   6.566   1.125  14.593 -0.1433  0.5098  0.0876
11361TIP3    H155498   6.661   1.134  14.582  0.0772  0.2443  1.5872
11361TIP3    H255499   6.528   1.195  14.540  0.9283  1.1152  0.1047
11362TIP3   OH255500   4.210   2.441  12.761  0.3556 -0.5004  0.2259
11362TIP3    H155501   4.265   2.470  12.834  0.6099  1.1164 -0.5961
11362TIP3    H255502   4.121   2.466  12.785  0.5005  0.4590 -0.2226
11363TIP3   OH255503   2.405   3.825  16.833 -0.0146  0.5432 -0.1158
11363TIP3    H155504   2.430   3.796  16.920  0.4431  0.1873 -0.3638
11363TIP3    H255505   2.388   3.919  16.842  1.0439  0.7113  0.1276
11364TIP3   OH255506   5.209   6.038   5.768  0.1042 -0.1649  0.0674
11364TIP3    H155507   5.161   6.121   5.767 -1.2479 -0.9196  0.5027
11364TIP3    H255508   5.141   5.971   5.768  1.1279 -1.2643  1.7677
11365TIP3   OH255509   1.540   1.508  13.985 -0.2608 -0.5583 -0.3765
11365TIP3    H155510   1.526   1.416  13.963 -0.8315 -0.9045  1.3817
11365TIP3    H255511   1.491   1.522  14.066  0.6204  1.0373 -0.0856
11366TIP3   OH255512   1.674   5.512   0.201 -0.1534  0.3695 -0.3028
11366TIP3    H155513   1.671   5.453   0.277 -0.9747 -1.9404 -2.0596
11366TIP3    H255514   1.768   5.520   0.181  0.1207  1.6510  1.4228
11367TIP3   OH255515   1.321   0.543   2.753  0.3039  0.7538  0.2848
11367TIP3    H155516   1.238   0.538   2.705  0.7784  0.3954 -0.5139
11367TIP3    H255517   1.307   0.613   2.816 -1.4112 -0.8277  1.7385
11368TIP3   OH255518   5.704   3.376  14.839 -0.1635  0.3232 -0.2667
11368TIP3    H155519   5.675   3.457  14.882 -1.3557  0.3460 -1.0995
11368TIP3    H255520   5.625   3.341  14.798  0.8705  0.0674 -2.0612
11369TIP3   OH255521   6.312   2.655  11.923 -0.4115  0.2902  0.1992
11369TIP3    H155522   6.280   2.676  11.835 -2.0927  0.4639  0.8385
11369TIP3    H255523   6.233   2.633  11.973  0.5029  0.4462  1.7426
11370TIP3   OH255524   5.716   6.289   0.677  0.4758 -0.3242  0.4714
11370TIP3    H155525   5.788   6.246   0.722 -0.8767 -2.0068  1.1071
11370TIP3    H255526   5.645   6.289   0.741 -1.0496 -1.5014 -1.1681
11371TIP3   OH255527   3.116   4.205   3.303  0.6924 -0.0507 -0.2470
11371TIP3    H155528   3.129   4.300   3.307 -0.1037  0.0160  1.1821
11371TIP3    H255529   3.205   4.169   3.309  1.0354  0.6035 -1.2360
11372TIP3   OH255530   3.844   5.660   4.173  0.0858 -0.2105  0.2188
11372TIP3    H155531   3.822   5.633   4.084 -0.4724 -0.6659  0.4931
11372TIP3    H255532   3.763   5.646   4.223  0.2188  0.5924  0.6739
11373TIP3   OH255533   2.914   3.128  16.121  0.1927 -0.4164  0.3252
11373TIP3    H155534   2.821   3.154  16.124  0.6721  1.4008  0.3809
11373TIP3    H255535   2.944   3.157  16.035  0.9275 -0.1512  0.6645
11374TIP3   OH255536   1.612   0.614   5.008  0.3738 -0.0473 -0.6423
11374TIP3    H155537   1.680   0.557   5.043  0.4070 -0.0769 -0.7579
11374TIP3    H255538   1.530   0.568   5.027  0.3056  0.5839  0.6512
11375TIP3   OH255539   1.071   5.945   1.175  0.4106  0.3772 -0.7999
11375TIP3    H155540   0.982   5.925   1.202  0.2659 -0.2174 -1.7150
11375TIP3    H255541   1.098   5.870   1.123  1.4750  0.5247 -0.4690
11376TIP3   OH255542   5.525   2.605  14.266  0.6422 -0.0240 -0.3448
11376TIP3    H155543   5.595   2.590  14.203 -1.3478  0.6151 -2.7916
11376TIP3    H255544   5.555   2.679  14.319  2.2779 -0.4640 -0.6586
11377TIP3   OH255545   5.832   3.151   5.938  0.5893 -0.1311 -0.1388
11377TIP3    H155546   5.872   3.077   5.892 -1.9536 -0.7085 -1.5003
11377TIP3    H255547   5.860   3.228   5.890 -1.4013 -0.6719 -2.2116
11378TIP3   OH255548   0.432   1.252   1.542 -0.5444 -0.2811  0.2938
11378TIP3    H155549   0.506   1.303   1.509 -0.5026 -0.7639 -0.3848
11378TIP3    H255550   0.389   1.309   1.605 -0.3356  0.4848 -0.2465
11379TIP3   OH255551   3.738   4.154   6.064  0.0862 -0.0293 -0.6288
11379TIP3    H155552   3.719   4.194   6.149 -0.4210 -0.4885 -0.5270
11379TIP3    H255553   3.652   4.126   6.031  0.3929 -0.6385 -0.9014
11380TIP3   OH255554   5.574   4.666   5.842 -0.2824 -0.4765  0.0379
11380TIP3    H155555   5.616   4.645   5.925 -1.2377  0.0579  0.6657
11380TIP3    H255556   5.529   4.586   5.816 -2.0662  0.0887  1.3058
11381TIP3   OH255557   0.413   5.837  14.902 -0.0300  0.2480 -0.0794
11381TIP3    H155558   0.358   5.877  14.835 -0.3118 -1.0581 -0.6405
11381TIP3    H255559   0.501   5.839  14.866  0.0943  1.1707  0.2729
11382TIP3   OH255560   1.998   2.921   5.029 -0.0633 -0.0291 -0.3985
11382TIP3    H155561   2.092   2.926   5.047 -0.6453 -0.1146  3.0199
11382TIP3    H255562   1.976   3.008   4.994  1.0412  0.5198  0.2202
11383TIP3   OH255563   1.118   1.517   2.917  0.0597 -0.6622 -0.0344
11383TIP3    H155564   1.031   1.482   2.937 -0.1779 -0.6686 -1.0583
11383TIP3    H255565   1.176   1.477   2.982 -0.4957 -1.6295 -0.1287
11384TIP3   OH255566   5.749   0.394  12.050  0.3119 -0.2225 -0.3594
11384TIP3    H155567   5.841   0.370  12.041  0.7190 -0.1835  2.9226
11384TIP3    H255568   5.749   0.489  12.056  0.0230 -0.1957 -0.7949
11385TIP3   OH255569   6.115   5.849   6.134 -0.2035  0.4836 -0.0746
11385TIP3    H155570   6.135   5.756   6.141 -0.6447  0.4334  0.5630
11385TIP3    H255571   6.192   5.887   6.093  0.0225 -0.1474 -0.2415
11386TIP3   OH255572   5.007   0.974   4.894 -0.6461  1.0782 -0.9387
11386TIP3    H155573   5.024   1.061   4.932 -1.0928  1.1284 -0.8492
11386TIP3    H255574   4.919   0.951   4.925  0.2086 -0.2314  0.5806
11387TIP3   OH255575   3.655   5.459   1.778  0.5268 -0.2558  0.7285
11387TIP3    H155576   3.571   5.493   1.747  0.5522 -0.5603  0.3241
11387TIP3    H255577   3.656   5.367   1.752  0.9303 -0.2906  0.8499
11388TIP3   OH255578   5.902   6.008  12.136  0.5640  0.0484 -0.1752
11388TIP3    H155579   5.985   5.968  12.162  0.5790  0.6378  0.7157
11388TIP3    H255580   5.836   5.944  12.164  0.6580  0.0864  0.1397
11389TIP3   OH255581   2.972   0.862   4.475 -0.1637  0.0509 -0.0178
11389TIP3    H155582   3.027   0.823   4.407  2.4530  0.0225  1.9997
11389TIP3    H255583   2.994   0.955   4.473  1.9691 -0.3083  2.4276
11390TIP3   OH255584   5.762   6.082   4.823  0.1184  0.1343 -0.4144
11390TIP3    H155585   5.779   6.102   4.915 -0.1510  1.7044 -0.6966
11390TIP3    H255586   5.715   5.999   4.826  0.6007 -0.1087  0.8332
11391TIP3   OH255587   6.098   3.459   4.386  0.1397 -0.6012 -0.4295
11391TIP3    H155588   6.173   3.491   4.336 -1.4521 -0.8670 -3.0742
11391TIP3    H255589   6.109   3.364   4.387 -0.5671 -0.6960 -1.4923
11392TIP3   OH255590   5.703   0.291   1.470  0.2728  0.4582  0.3059
11392TIP3    H155591   5.684   0.214   1.524 -0.9787 -0.2570 -1.1039
11392TIP3    H255592   5.784   0.327   1.505  0.6052 -1.2323  1.2767
11393TIP3   OH255593   2.846   4.924  13.742 -0.2126 -0.2618  0.0555
11393TIP3    H155594   2.795   4.882  13.672 -0.0082 -0.9036  0.2849
11393TIP3    H255595   2.910   4.978  13.695  0.9738 -1.9361 -0.2909
11394TIP3   OH255596   3.873   4.138  11.299  0.7669 -0.1972 -0.3369
11394TIP3    H155597   3.905   4.090  11.223  1.9826 -0.2779  0.2192
11394TIP3    H255598   3.863   4.071  11.367 -0.3688 -0.1375 -0.4300
11395TIP3   OH255599   0.513   3.088  14.089 -0.2105  0.0781 -0.0333
11395TIP3    H155600   0.530   3.032  14.165  1.5929  0.6476  0.0158
11395TIP3    H255601   0.419   3.081  14.074 -0.6408  0.1912  2.4374
11396TIP3   OH255602   5.874   5.279  14.422 -0.4109  0.3185  0.6828
11396TIP3    H155603   5.923   5.262  14.342 -1.4319  0.2198  0.0624
11396TIP3    H255604   5.932   5.332  14.476  1.1770 -1.5661  0.8527
11397TIP3   OH255605   3.737   0.186  17.030  0.0522 -0.2427 -0.1830
11397TIP3    H155606   3.743   0.281  17.040  1.1046 -0.5902  2.9278
11397TIP3    H255607   3.644   0.167  17.042 -0.0565  0.3298 -0.0747
11398TIP3   OH255608   0.452   0.458   2.248  0.5502 -0.4837 -0.2382
11398TIP3    H155609   0.461   0.369   2.213  1.3307 -0.3094 -0.4979
11398TIP3    H255610   0.416   0.446   2.336 -0.4829 -0.9873 -0.7129
11399TIP3   OH255611   0.859   2.524  13.217  0.3511  0.4331 -0.2621
11399TIP3    H155612   0.818   2.454  13.166  0.9300 -0.5262  0.5555
11399TIP3    H255613   0.934   2.552  13.165  0.2269  0.3063 -0.5057
11400TIP3   OH255614   0.960   5.177  16.341  0.2859 -0.1904 -0.0318
11400TIP3    H155615   0.880   5.156  16.293 -0.0744 -2.3692  1.4345
11400TIP3    H255616   0.944   5.145  16.430  3.9489 -3.8314 -0.5026
11401TIP3   OH255617   5.457   4.386   5.907 -0.0883  0.1251 -0.2427
11401TIP3    H155618   5.499   4.300   5.903 -1.5333 -0.5892 -0.4594
11401TIP3    H255619   5.422   4.392   5.996 -0.8462  0.0544 -0.5278
11402TIP3   OH255620   0.114   2.407   2.530 -0.1405  0.0898  0.3441
11402TIP3    H155621   0.182   2.368   2.475  0.4970  3.3541 -1.2925
11402TIP3    H255622   0.162   2.444   2.605 -0.0215  2.3277 -0.7744
11403TIP3   OH255623   2.672   6.186  11.962  0.3216  0.2923  0.0459
11403TIP3    H155624   2.721   6.252  11.913 -0.9227 -0.2282 -1.9100
11403TIP3    H255625   2.674   6.218  12.053  0.9040  2.2936 -0.6479
11404TIP3   OH255626   1.646   5.616   3.747  0.6086 -0.3257 -0.6107
11404TIP3    H155627   1.696   5.688   3.708  0.7338  0.6412  1.2942
11404TIP3    H255628   1.563   5.616   3.699  1.0062  0.4312 -1.3009
11405TIP3   OH255629   2.146   6.313   0.078  0.2158  0.0782  0.0490
11405TIP3    H155630   2.190   6.263   0.009  1.4838  1.2260 -0.0105
11405TIP3    H255631   2.207   6.385   0.098 -0.5874  0.3380  1.6591
11406TIP3   OH255632   1.143   0.519  14.166 -0.3963  0.0982  0.4850
11406TIP3    H155633   1.194   0.439  14.157 -0.0997  0.3383 -0.0300
11406TIP3    H255634   1.160   0.567  14.084 -1.8042 -0.0309  0.1116
11407TIP3   OH255635   3.586   5.721   5.123  0.3410 -0.1971 -0.5366
11407TIP3    H155636   3.606   5.811   5.147  3.2816 -0.9721  0.0598
11407TIP3    H255637   3.582   5.674   5.207 -2.6862 -0.3676 -0.7305
11408TIP3   OH255638   0.886   3.410   3.303 -0.3771  0.4760 -0.1998
11408TIP3    H155639   0.893   3.317   3.280 -0.0151  0.2212  0.9360
11408TIP3    H255640   0.958   3.426   3.364 -1.1676  1.2182  0.5552
11409TIP3   OH255641   2.741   1.906   0.399  0.2569 -0.3709 -0.0069
11409TIP3    H155642   2.729   1.909   0.304  0.8413  0.2987 -0.0645
11409TIP3    H255643   2.673   1.965   0.432  0.5720  0.0300 -0.0651
11410TIP3   OH255644   6.073   3.780   0.823 -0.1024  0.3108 -0.5520
11410TIP3    H155645   6.011   3.803   0.754 -2.7425 -0.3040  1.5573
11410TIP3    H255646   6.107   3.695   0.798 -0.2610  0.5575 -1.6189
11411TIP3   OH255647   1.777   3.319   2.049 -0.4831  0.2185  0.1003
11411TIP3    H155648   1.768   3.404   2.006  0.4122 -0.6112 -1.7742
11411TIP3    H255649   1.702   3.314   2.109 -1.2000  1.8170 -0.6432
11412TIP3   OH255650   6.237   1.844   3.931 -0.2630  0.2736 -0.1251
11412TIP3    H155651   6.313   1.859   3.875 -0.5892 -2.2124 -1.2852
11412TIP3    H255652   6.163   1.878   3.881 -0.1694  0.9652  0.1950
11413TIP3   OH255653   5.328   6.214   4.286 -0.2562  0.3474  0.3719
11413TIP3    H155654   5.369   6.262   4.215 -1.4333  0.5342 -0.1977
11413TIP3    H255655   5.397   6.158   4.321  0.0390 -0.6047 -1.6615
11414TIP3   OH255656   2.829   4.258   0.663  1.3848 -0.5572  0.4140
11414TIP3    H155657   2.756   4.197   0.671  1.4835 -0.8298 -0.6266
11414TIP3    H255658   2.813   4.302   0.579  0.6597  1.7065  1.6904
11415TIP3   OH255659   5.462   2.595  13.768 -0.0541 -0.0283  0.2516
11415TIP3    H155660   5.506   2.530  13.714 -2.3901 -0.3362 -1.3474
11415TIP3    H255661   5.431   2.546  13.844 -0.6697 -0.5166 -0.3144
11416TIP3   OH255662   1.359   6.360  14.269  0.2905 -0.4298 -0.2523
11416TIP3    H155663   1.275   6.384  14.230 -1.2656  0.0385  3.1970
11416TIP3    H255664   1.418   6.432  14.245 -1.1504  0.8538 -0.0617
11417TIP3   OH255665   5.290   3.566  13.658  0.1474 -0.7284  0.6254
11417TIP3    H155666   5.269   3.604  13.573  0.3939  0.0216  0.8937
11417TIP3    H255667   5.302   3.641  13.716  1.0250 -1.2069  1.0807
11418TIP3   OH255668   5.355   4.920   3.533  0.0728  0.3728  0.4523
11418TIP3    H155669   5.422   4.852   3.537  0.1071  0.3111 -1.0141
11418TIP3    H255670   5.350   4.955   3.622  0.4957 -1.1240  1.0654
11419TIP3   OH255671   0.030   1.294   1.723 -0.0345 -0.4687 -0.4706
11419TIP3    H155672   0.047   1.238   1.798 -1.3731 -1.9837 -1.2745
11419TIP3    H255673  -0.057   1.269   1.693  0.0606  0.8249 -1.9000
11420TIP3   OH255674   0.559   1.768   0.445  0.0574  0.3883  0.1048
11420TIP3    H155675   0.464   1.758   0.433 -0.1785 -1.0218  2.7514
11420TIP3    H255676   0.573   1.863   0.441 -1.3725  0.5716 -0.9103
11421TIP3   OH255677   6.651   4.082   1.198 -0.3234 -0.0601  0.0550
11421TIP3    H155678   6.723   4.092   1.260  1.0714 -2.0566 -1.1831
11421TIP3    H255679   6.671   4.144   1.127 -0.9591  0.9001  0.6968
11422TIP3   OH255680   5.967   5.289   4.073 -0.4722 -0.6548  0.0980
11422TIP3    H155681   6.006   5.297   4.160  1.8738 -3.7008 -0.5899
11422TIP3    H255682   5.955   5.194   4.060 -0.4037 -0.3097 -3.0069
11423TIP3   OH255683   5.816   3.062  13.566  0.3764 -0.2022  0.1424
11423TIP3    H155684   5.882   3.100  13.507  1.3488  0.5189  1.6808
11423TIP3    H255685   5.860   3.056  13.650 -1.8659  1.3058  1.4697
11424TIP3   OH255686   5.078   0.288   4.813 -0.3214  0.1993  0.0123
11424TIP3    H155687   5.171   0.295   4.833 -0.6286  2.4338  0.7692
11424TIP3    H255688   5.036   0.278   4.899 -0.9440  1.4013 -0.1364
11425TIP3   OH255689   0.457   0.326  13.824 -0.2521  0.0736  0.5513
11425TIP3    H155690   0.410   0.351  13.904 -0.0103  0.8029  0.4708
11425TIP3    H255691   0.393   0.341  13.754  0.3203  1.7989  0.3615
11426TIP3   OH255692   1.258   5.949   5.565 -0.3424 -0.1833 -0.5107
11426TIP3    H155693   1.293   5.860   5.561  1.3567  0.4312  0.3298
11426TIP3    H255694   1.300   5.995   5.492  0.3670  0.4726  0.3010
11427TIP3   OH255695   3.440   5.194  14.763 -0.4107  0.3875  0.1493
11427TIP3    H155696   3.440   5.260  14.833 -1.3229  2.3775 -1.6889
11427TIP3    H255697   3.402   5.117  14.804  0.9272  0.8717  2.4354
11428TIP3   OH255698   1.845   5.314   5.397  0.1711 -0.2167  0.0991
11428TIP3    H155699   1.770   5.348   5.446  1.2593  2.1305  0.1934
11428TIP3    H255700   1.857   5.225   5.430 -2.0794 -0.3596  0.6377
11429TIP3   OH255701   5.405   3.310  13.040  0.7750  0.0902 -0.3769
11429TIP3    H155702   5.366   3.223  13.049 -0.2306  0.6342  0.7518
11429TIP3    H255703   5.497   3.293  13.020  0.5116 -1.2259 -0.5463
11430TIP3   OH255704   1.044   2.004   4.594  0.1695  0.2131 -0.0172
11430TIP3    H155705   1.022   1.944   4.523 -0.9628  0.1292  0.3901
11430TIP3    H255706   1.133   2.034   4.574 -0.0151 -0.0645 -1.2746
11431TIP3   OH255707   1.006   5.103   1.795  0.3413  0.9315 -0.0718
11431TIP3    H155708   1.008   5.116   1.700 -2.3968 -1.7972 -0.5710
11431TIP3    H255709   0.963   5.019   1.807  2.8640  0.0628  3.5469
11432TIP3   OH255710   0.910   1.227  15.514  0.0672  0.3979  0.2148
11432TIP3    H155711   0.898   1.135  15.492 -3.2517  0.9421 -0.6113
11432TIP3    H255712   0.875   1.235  15.603  0.4080  0.8386  0.3115
11433TIP3   OH255713   3.215   5.115  15.738 -0.0627 -0.4921  0.2117
11433TIP3    H155714   3.288   5.108  15.676 -0.3746  0.6257 -0.2941
11433TIP3    H255715   3.211   5.208  15.760 -0.1678 -0.8278  1.6639
11434TIP3   OH255716   0.513   1.445  11.208 -0.3564 -0.3686 -0.0813
11434TIP3    H155717   0.607   1.451  11.194 -0.6623 -0.2626 -2.3054
11434TIP3    H255718   0.484   1.535  11.218 -0.0881 -0.4636  1.8010
11435TIP3   OH255719   4.680   2.363   2.521  0.2138 -0.3411  0.1359
11435TIP3    H155720   4.762   2.360   2.471 -0.8979 -0.4284 -1.7162
11435TIP3    H255721   4.667   2.274   2.552  1.9550  0.1266  2.3707
11436TIP3   OH255722   3.201   0.934   5.509 -0.0253  0.0851 -0.1921
11436TIP3    H155723   3.137   0.889   5.455  0.5726 -0.4946 -0.4136
11436TIP3    H255724   3.246   0.865   5.557  0.7377  0.4481 -0.3680
11437TIP3   OH255725   1.226   3.212   2.745  0.2777 -0.1828  0.2792
11437TIP3    H155726   1.262   3.268   2.676  0.0603  1.8848  1.7939
11437TIP3    H255727   1.166   3.268   2.793 -0.5663 -1.9624  1.3786
11438TIP3   OH255728   3.756   1.179  17.096  0.4259 -0.7277 -0.1187
11438TIP3    H155729   3.754   1.212  17.007  0.2115  1.2116  0.5849
11438TIP3    H255730   3.696   1.236  17.144  2.7574  0.1381  1.8788
11439TIP3   OH255731   6.748   3.828   0.108  0.1472  0.1357 -0.1334
11439TIP3    H155732   6.734   3.740   0.073 -0.7909  0.3953 -0.4301
11439TIP3    H255733   6.806   3.870   0.044 -0.3992  0.1312 -0.6457
11440TIP3   OH255734   2.398   0.427   5.074 -0.0335  0.1606  0.1302
11440TIP3    H155735   2.385   0.512   5.115 -1.1004 -0.5289  1.2392
11440TIP3    H255736   2.493   0.417   5.069  0.0943  1.5464 -0.2975
11441TIP3   OH255737   2.541   0.781  12.461  0.0592  0.7089 -0.4879
11441TIP3    H155738   2.539   0.873  12.435 -0.7970  0.6132 -0.7924
11441TIP3    H255739   2.463   0.771  12.517  1.8624  0.9292  2.1738
11442TIP3   OH255740   1.981   3.986   4.325  0.2043 -0.4920 -0.5488
11442TIP3    H155741   2.048   4.021   4.384 -1.1927 -1.1858  1.5207
11442TIP3    H255742   1.914   4.055   4.320  0.4043 -0.3578 -1.4945
11443TIP3   OH255743   6.626   6.687   2.960 -0.5440  1.0356  0.0005
11443TIP3    H155744   6.623   6.777   2.929 -0.0125  0.8627 -0.5674
11443TIP3    H255745   6.596   6.692   3.051 -0.9234  1.7192 -0.1572
11444TIP3   OH255746   4.003   5.350  16.661  0.1798 -0.3636 -0.1977
11444TIP3    H155747   4.036   5.427  16.615 -0.4278  0.7780  1.2311
11444TIP3    H255748   4.080   5.296  16.677  0.6698  0.1350 -0.8883
11445TIP3   OH255749   6.232   0.514   1.389  0.1549 -0.8991 -0.1718
11445TIP3    H155750   6.182   0.595   1.393 -0.5552 -1.2137 -2.1746
11445TIP3    H255751   6.291   0.525   1.315  1.9616 -1.1652  1.1951
11446TIP3   OH255752   6.407   6.204  11.643 -0.4049  0.1068  0.3612
11446TIP3    H155753   6.423   6.281  11.699  0.6637 -0.0829  0.3280
11446TIP3    H255754   6.436   6.231  11.556  0.8273 -0.6417  0.5355
11447TIP3   OH255755   3.538   0.789   5.190 -0.3525 -0.1336  0.1901
11447TIP3    H155756   3.526   0.811   5.283 -0.0228 -2.6127  0.8536
11447TIP3    H255757   3.623   0.826   5.168 -0.3149  0.2507  0.9444
11448TIP3   OH255758   0.700   4.579  13.054 -0.1085  0.0973  0.1203
11448TIP3    H155759   0.795   4.579  13.041 -0.1122 -1.3920  0.0265
11448TIP3    H255760   0.669   4.649  12.997  1.0168  1.2470  0.8882
11449TIP3   OH255761   4.453   0.511  11.986 -0.6369  0.0156  0.1337
11449TIP3    H155762   4.487   0.561  12.059 -0.5372  2.1445 -1.3414
11449TIP3    H255763   4.530   0.487  11.934 -0.7698 -0.9051  0.3518
11450TIP3   OH255764   1.281   0.389  16.263 -0.0048  0.0025 -0.0563
11450TIP3    H155765   1.374   0.410  16.256 -0.1300  0.6633  0.2182
11450TIP3    H255766   1.279   0.294  16.275  0.7065  0.1543  1.4103
11451TIP3   OH255767   4.512   2.955   6.119  0.1051 -0.3665  0.2385
11451TIP3    H155768   4.562   2.891   6.169  1.5300  0.8093  0.3255
11451TIP3    H255769   4.475   3.014   6.185 -1.6417 -1.3637  0.1992
11452TIP3   OH255770   4.203   4.723  13.574 -0.0519  0.3825 -1.0290
11452TIP3    H155771   4.269   4.659  13.598  0.1796  0.4082 -1.5951
11452TIP3    H255772   4.119   4.680  13.595  0.1576  0.7661  0.7028
11453TIP3   OH255773   1.568   0.762  13.506 -0.1971  0.2449 -0.6769
11453TIP3    H155774   1.634   0.830  13.502 -0.4535  0.6198  0.9956
11453TIP3    H255775   1.491   0.805  13.544 -0.4947 -0.8643  0.0165
11454TIP3   OH255776   5.212   3.009   4.381 -0.1964  0.7711 -0.6529
11454TIP3    H155777   5.144   2.944   4.401 -0.5313  1.1489 -0.5648
11454TIP3    H255778   5.291   2.957   4.365  0.0074  0.4355  1.3221
11455TIP3   OH255779   0.142   4.262  15.283  0.8619  0.1766 -0.2777
11455TIP3    H155780   0.068   4.269  15.343 -1.0742 -2.7889 -2.1821
11455TIP3    H255781   0.206   4.207  15.329 -0.2794 -1.4235 -0.5491
11456TIP3   OH255782   2.251   5.683   3.521  0.0161 -0.3399 -0.3424
11456TIP3    H155783   2.192   5.691   3.446  1.4458  5.1910 -1.0937
11456TIP3    H255784   2.192   5.668   3.595 -2.2826  2.8798 -1.3809
11457TIP3   OH255785   1.434   1.501  16.211 -0.3343 -0.4008 -0.3314
11457TIP3    H155786   1.430   1.522  16.117 -0.6037  1.8420  0.1595
11457TIP3    H255787   1.513   1.546  16.242 -0.6745 -0.4892  0.6691
11458TIP3   OH255788   4.110   6.528   4.202  0.7870 -0.4531  0.6760
11458TIP3    H155789   4.125   6.441   4.166  0.7654 -0.4662  0.6982
11458TIP3    H255790   4.155   6.588   4.143 -1.1153 -0.2598 -0.6436
11459TIP3   OH255791   2.496   0.438  16.446 -0.3574 -0.2622  0.0020
11459TIP3    H155792   2.528   0.524  16.473  0.4461 -0.4592 -0.3123
11459TIP3    H255793   2.450   0.404  16.524  1.1247 -0.4274  0.8119
11460TIP3   OH255794   1.248   1.240   4.197  0.0640  0.3972 -0.3417
11460TIP3    H155795   1.236   1.330   4.227 -2.9575  0.2637 -0.8925
11460TIP3    H255796   1.282   1.248   4.108 -0.2304  1.0273 -0.3976
11461TIP3   OH255797   3.191   4.829  13.543  0.8598  0.6979 -0.5144
11461TIP3    H155798   3.284   4.840  13.562  0.0889 -0.5823  4.8163
11461TIP3    H255799   3.148   4.904  13.586 -0.6228  1.0711 -2.5755
11462TIP3   OH255800   0.293   1.923  14.120  0.0655  0.4597 -0.5133
11462TIP3    H155801   0.324   2.013  14.127 -2.4173  1.5197 -2.1636
11462TIP3    H255802   0.280   1.909  14.026 -2.8139 -0.4236 -0.0348
11463TIP3   OH255803   1.987   1.517  14.640  0.2900 -0.5740 -0.2909
11463TIP3    H155804   1.915   1.528  14.702 -0.6707 -0.8017 -1.3378
11463TIP3    H255805   2.063   1.556  14.683 -0.3647 -0.6958  1.0016
11464TIP3   OH255806   2.148   4.347   4.348  0.4725  0.5248 -0.2413
11464TIP3    H155807   2.059   4.312   4.340  0.2654  0.8536  0.5426
11464TIP3    H255808   2.180   4.313   4.432  0.4002  1.8951  0.3659
11465TIP3   OH255809   4.307   0.948   1.443 -0.6073 -0.3275 -0.6219
11465TIP3    H155810   4.350   0.938   1.359 -1.1683 -0.7344 -0.8687
11465TIP3    H255811   4.254   1.027   1.434  2.7064  2.1761  0.8403
11466TIP3   OH255812   3.566   2.348  15.947 -0.1409  0.0384  0.0070
11466TIP3    H155813   3.655   2.315  15.930  0.4302  0.6251  1.7346
11466TIP3    H255814   3.573   2.390  16.033 -2.2189 -0.3496  0.3715
11467TIP3   OH255815   3.951   4.101   4.128 -0.5204 -0.4630  0.1760
11467TIP3    H155816   4.018   4.139   4.186 -0.9753 -1.1989  1.2104
11467TIP3    H255817   3.955   4.153   4.049  1.3242 -0.5252  0.2073
11468TIP3   OH255818   6.354   0.389  14.414  0.1079  0.1577 -0.6325
11468TIP3    H155819   6.286   0.322  14.421 -0.5508  0.7221 -1.5979
11468TIP3    H255820   6.306   0.471  14.403  0.8896  0.9148  1.4399
11469TIP3   OH255821   5.286   2.514  14.887 -0.0291 -1.0245 -0.6141
11469TIP3    H155822   5.193   2.490  14.882 -0.1487 -0.6617 -0.1453
11469TIP3    H255823   5.332   2.431  14.896 -0.5829 -1.0081  3.2662
11470TIP3   OH255824   3.739   1.485  12.444 -0.2790 -0.1122 -0.1456
11470TIP3    H155825   3.659   1.449  12.406 -0.5136 -0.1280  0.3656
11470TIP3    H255826   3.798   1.496  12.369  0.1556 -2.5096 -0.2014
11471TIP3   OH255827   4.924   5.462  14.102  0.2309 -0.3893 -0.5931
11471TIP3    H155828   4.953   5.489  14.189  0.5276 -0.8763 -0.5415
11471TIP3    H255829   4.849   5.405  14.119 -0.2694  0.2286 -0.6966
11472TIP3   OH255830   2.596   0.483   0.992  0.1635 -0.3727  0.4388
11472TIP3    H155831   2.502   0.502   0.994  0.0553 -0.6796 -1.0517
11472TIP3    H255832   2.603   0.406   0.936  1.5128  0.8395 -1.0723
11473TIP3   OH255833   2.832   2.234  13.952 -0.1005 -0.3164  0.6090
11473TIP3    H155834   2.748   2.210  13.990 -0.5802 -1.4256 -1.0700
11473TIP3    H255835   2.822   2.216  13.858  1.5113  0.9371  0.1615
11474TIP3   OH255836   6.748   1.990  11.534  0.1032 -1.0103 -0.2931
11474TIP3    H155837   6.711   1.953  11.614  1.1789 -1.6813 -0.1037
11474TIP3    H255838   6.739   1.920  11.469  2.1550 -1.6391  0.0706
11475TIP3   OH255839   3.882   4.591  13.321 -0.1254  0.5663  0.5087
11475TIP3    H155840   3.824   4.667  13.331 -1.8344 -0.8345  1.5216
11475TIP3    H255841   3.839   4.536  13.256  1.3977  0.6959 -0.6438
11476TIP3   OH255842   3.926   1.661   6.223 -0.3826  0.0880  0.0304
11476TIP3    H155843   3.903   1.568   6.232 -1.3829  0.3157 -0.1187
11476TIP3    H255844   4.006   1.660   6.171  0.1737 -0.7416  0.8697
11477TIP3   OH255845   5.733   0.048  14.103 -0.1800  0.8118  0.0940
11477TIP3    H155846   5.691   0.124  14.144  0.1860  1.1420 -0.1383
11477TIP3    H255847   5.679  -0.026  14.129  0.4982  0.9040  1.8354
11478TIP3   OH255848   3.512   1.746   4.525 -0.3338  0.1820  0.1046
11478TIP3    H155849   3.462   1.664   4.537 -1.3854  0.6197 -1.1853
11478TIP3    H255850   3.487   1.799   4.601 -1.0559  0.0038 -0.0005
11479TIP3   OH255851   3.517   0.841   0.226  0.3327  0.7646  0.6834
11479TIP3    H155852   3.529   0.754   0.189  0.1349  0.1280  2.0997
11479TIP3    H255853   3.428   0.866   0.201  0.2452  0.3838  0.6203
11480TIP3   OH255854   6.143   2.458   0.903 -0.1600 -0.2327 -0.5260
11480TIP3    H155855   6.129   2.364   0.887  2.1283 -0.6046 -0.4754
11480TIP3    H255856   6.237   2.466   0.918 -0.4503  1.9746  0.2598
11481TIP3   OH255857   0.006   0.375   6.241  0.4995  0.4105  0.1863
11481TIP3    H155858   0.015   0.325   6.160 -0.0353  0.3322  0.1755
11481TIP3    H255859  -0.063   0.330   6.290  0.2031  0.9754  0.2939
11482TIP3   OH255860   1.025   5.898   6.139  0.6067  0.2194 -0.3465
11482TIP3    H155861   1.014   5.993   6.136 -0.9725  0.0109 -2.8950
11482TIP3    H255862   0.986   5.871   6.222 -1.4746  1.5287 -0.8701
11483TIP3   OH255863   5.706   6.136  11.864 -0.0904  0.0924 -0.0573
11483TIP3    H155864   5.750   6.052  11.850  0.0313  0.1224  0.1502
11483TIP3    H255865   5.613   6.115  11.864 -0.0832  0.0539 -0.6647
11484TIP3   OH255866   2.348   2.182  17.163 -0.1427  0.3402 -0.6304
11484TIP3    H155867   2.358   2.277  17.160  1.1943  0.1926 -1.3138
11484TIP3    H255868   2.255   2.168  17.178 -0.7337  1.7272 -2.8144
11485TIP3   OH255869   3.855   5.956  14.862 -0.4304 -0.2010  0.1329
11485TIP3    H155870   3.910   5.999  14.927  0.3159 -0.0518 -0.5791
11485TIP3    H255871   3.840   5.868  14.897  0.0007 -0.1355  0.4886
11486TIP3   OH255872   2.767   2.971  14.560 -0.1566  0.3557  0.4153
11486TIP3    H155873   2.772   3.027  14.483  0.6213  0.5823  0.6187
11486TIP3    H255874   2.735   2.888  14.527 -0.3503  0.6185 -0.0644
11487TIP3   OH255875   4.749   2.693  15.675 -0.8588 -0.1771  0.3319
11487TIP3    H155876   4.838   2.697  15.711 -0.8176 -0.6057  0.2838
11487TIP3    H255877   4.739   2.774  15.625 -0.1925 -0.5056 -0.3543
11488TIP3   OH255878   3.242   4.502   2.366  0.4405 -0.0771 -0.2986
11488TIP3    H155879   3.250   4.440   2.293 -0.7800 -1.4968  0.7446
11488TIP3    H255880   3.310   4.474   2.428 -0.2587 -0.5299  0.2722
11489TIP3   OH255881   1.481   1.129  15.681  0.2585  0.0031  0.0378
11489TIP3    H155882   1.555   1.188  15.693  0.6777 -0.1449 -1.6733
11489TIP3    H255883   1.415   1.159  15.744  2.1003 -0.4552  2.2361
11490TIP3   OH255884   0.804   3.176   1.130 -0.2241 -0.1524 -0.1298
11490TIP3    H155885   0.869   3.217   1.187 -1.2882 -0.0250  1.0137
11490TIP3    H255886   0.760   3.248   1.087  1.5370 -0.2799 -2.2558
11491TIP3   OH255887   5.341   4.070  14.953  0.0742  0.7648  0.3757
11491TIP3    H155888   5.345   4.153  15.001 -1.9680  0.2034  1.6052
11491TIP3    H255889   5.247   4.058  14.936  0.3517 -1.2962  0.2379
11492TIP3   OH255890   4.955   1.825  15.229 -0.5517  0.3160  0.3833
11492TIP3    H155891   4.941   1.888  15.158 -2.5524  0.5463  0.9660
11492TIP3    H255892   4.868   1.808  15.264  0.3798  0.0297  2.6507
11493TIP3   OH255893   4.188   4.470  15.183 -0.4984 -1.1844  0.0040
11493TIP3    H155894   4.112   4.444  15.235 -0.1789  0.3550  1.2659
11493TIP3    H255895   4.232   4.537  15.235  0.3781 -0.3035 -1.7980
11494TIP3   OH255896   4.357   1.306   6.293  0.5334  0.1325 -0.8987
11494TIP3    H155897   4.382   1.216   6.314 -1.7785 -1.1183 -3.2929
11494TIP3    H255898   4.336   1.345   6.377  0.7170 -1.8187  0.0844
11495TIP3   OH255899   2.647   4.066   5.683  0.0969 -0.4758  0.0822
11495TIP3    H155900   2.699   4.138   5.718  0.3640 -0.1035 -1.0966
11495TIP3    H255901   2.626   4.013   5.761  1.5604 -0.2143  0.6859
11496TIP3   OH255902   4.868   2.739  11.274  0.4524  0.1005 -0.1209
11496TIP3    H155903   4.922   2.693  11.210  0.0098 -0.6299  0.0309
11496TIP3    H255904   4.930   2.785  11.330  0.8456  0.8346 -1.1317
11497TIP3   OH255905   5.360   1.614   4.589  0.1165  0.0423 -0.1501
11497TIP3    H155906   5.448   1.649   4.602 -0.3843  2.0432 -1.9333
11497TIP3    H255907   5.304   1.690   4.576 -1.9755 -1.1780  1.2391
11498TIP3   OH255908   6.604   2.621   2.727  0.2090  0.0894  0.5622
11498TIP3    H155909   6.508   2.624   2.727  0.1703 -0.4246  2.5359
11498TIP3    H255910   6.628   2.609   2.635 -1.6034  0.4629  0.0240
11499TIP3   OH255911   4.482   2.797  14.132 -0.3142 -0.2753 -0.4363
11499TIP3    H155912   4.441   2.781  14.047 -1.4682 -1.1627  0.2570
11499TIP3    H255913   4.574   2.778  14.119 -0.5372 -0.7093 -1.4171
11500TIP3   OH255914   0.445   6.081   0.417  0.4278  0.1562 -0.2908
11500TIP3    H155915   0.453   6.133   0.338 -1.0621  0.5982 -0.1639
11500TIP3    H255916   0.438   6.145   0.488 -0.6601 -0.2072 -0.0574
11501TIP3   OH255917   3.284   4.952  14.781 -0.0345 -0.3692 -0.5995
11501TIP3    H155918   3.212   4.901  14.818  0.3369 -0.1085  0.5199
11501TIP3    H255919   3.245   5.001  14.709 -0.5955 -1.5243 -1.0910
11502TIP3   OH255920   0.760   0.122  11.303  0.0470  0.3720  0.6677
11502TIP3    H155921   0.684   0.175  11.280  0.1674 -0.0253 -0.7233
11502TIP3    H255922   0.814   0.123  11.224  0.9501 -0.2581  1.2711
11503TIP3   OH255923   4.566   0.171   0.771 -0.0421  0.5232  0.3319
11503TIP3    H155924   4.604   0.167   0.684 -0.0095 -0.8060  0.3926
11503TIP3    H255925   4.472   0.175   0.757 -0.0053  0.9615  0.2224
11504TIP3   OH255926   6.205   3.831  13.713 -0.2315  0.4711 -0.4361
11504TIP3    H155927   6.292   3.868  13.697 -0.9233  0.9144 -3.5457
11504TIP3    H255928   6.152   3.906  13.739  0.4293  0.0693  2.3071
11505TIP3   OH255929   6.173   6.577  15.333 -0.3491  0.1029 -0.3085
11505TIP3    H155930   6.191   6.650  15.394  0.1969  0.3771 -0.7969
11505TIP3    H255931   6.090   6.540  15.364 -0.7592  1.0894 -0.2015
11506TIP3   OH255932   6.374   1.003  14.357 -0.0238 -0.4173  0.0275
11506TIP3    H155933   6.312   1.075  14.349 -0.7027 -1.2145 -2.4798
11506TIP3    H255934   6.322   0.930  14.391  0.4317 -0.0012  1.6147
11507TIP3   OH255935   5.101   3.118   3.922  0.6033 -0.3244 -0.3223
11507TIP3    H155936   5.188   3.133   3.885  0.7407  3.9771  1.3778
11507TIP3    H255937   5.109   3.145   4.014 -2.4214 -0.0982 -0.0631
11508TIP3   OH255938   3.267   0.607   3.774 -0.5620 -0.0548 -0.1282
11508TIP3    H155939   3.207   0.533   3.772  1.4129 -1.7833  1.8440
11508TIP3    H255940   3.321   0.597   3.696  0.4687 -1.4206  0.7293
11509TIP3   OH255941   6.387   1.511   5.180  0.2895  0.2204 -0.1174
11509TIP3    H155942   6.406   1.483   5.091  1.2117  0.6755 -0.0689
11509TIP3    H255943   6.307   1.463   5.204  0.7870 -0.9131 -0.7025
11510TIP3   OH255944   0.156   6.051  13.093  0.7056 -0.2428 -0.4863
11510TIP3    H155945   0.169   5.962  13.126 -2.7387 -0.8313 -0.5147
11510TIP3    H255946   0.194   6.108  13.160  1.3385 -1.6709  0.3832
11511TIP3   OH255947   1.217   0.096   0.507  0.6909  0.3241 -0.1796
11511TIP3    H155948   1.222   0.013   0.460 -0.3590 -2.1266  3.7420
11511TIP3    H255949   1.308   0.121   0.521  1.0929 -1.3759  0.4620
11512TIP3   OH255950   0.370   0.526  12.701 -0.4067 -0.5681 -0.3039
11512TIP3    H155951   0.315   0.561  12.770  0.3658  0.9788 -0.4387
11512TIP3    H255952   0.357   0.431  12.705 -0.1860 -0.5244  2.1054
11513TIP3   OH255953   2.713   1.198  13.926 -0.2774 -0.4821 -0.0002
11513TIP3    H155954   2.678   1.228  13.842  1.7254  1.9804 -0.0092
11513TIP3    H255955   2.649   1.226  13.991  0.2875  1.5779 -0.2925
11514TIP3   OH255956   5.548   2.509   2.689  0.0417 -0.2068 -0.2773
11514TIP3    H155957   5.456   2.484   2.679  0.2941 -1.7663  1.1074
11514TIP3    H255958   5.573   2.477   2.776  2.3382 -1.2339 -1.2590
11515TIP3   OH255959   2.455   1.586   4.536 -0.3159  0.5631  0.1069
11515TIP3    H155960   2.494   1.672   4.553 -1.3642  0.8449  1.1130
11515TIP3    H255961   2.468   1.538   4.618  0.1416 -0.2051 -0.4047
11516TIP3   OH255962   0.278   3.166   4.994  0.0285 -0.0211 -0.5983
11516TIP3    H155963   0.243   3.167   4.904 -2.5888  1.4098  0.3888
11516TIP3    H255964   0.278   3.258   5.020 -2.3917 -0.7361  2.0510
11517TIP3   OH255965   3.369   0.976  16.206 -0.3253  0.1734  0.1265
11517TIP3    H155966   3.312   1.042  16.167 -0.4808 -1.0510 -1.7871
11517TIP3    H255967   3.310   0.905  16.231  0.0564 -0.0232  0.4691
11518TIP3   OH255968   3.953   0.296   3.707  0.0439  0.1514 -0.2381
11518TIP3    H155969   3.895   0.227   3.675 -1.5192  1.1032  0.5279
11518TIP3    H255970   3.922   0.315   3.795 -0.4973  2.8890 -0.9823
11519TIP3   OH255971   6.536   5.258   5.950  0.0294  0.5048 -0.3401
11519TIP3    H155972   6.446   5.287   5.941  0.1718  0.7150 -1.1204
11519TIP3    H255973   6.529   5.164   5.967 -0.3906  0.8205  1.2984
11520TIP3   OH255974   1.262   2.302  17.077  0.4222  0.2658  0.3548
11520TIP3    H155975   1.341   2.318  17.129  2.0116 -0.7688 -1.6828
11520TIP3    H255976   1.274   2.353  16.997 -1.4497  0.8885  0.4512
11521TIP3   OH255977   4.483   2.050  11.965  0.2109  0.0371 -0.0468
11521TIP3    H155978   4.543   2.094  11.905  0.3539  0.1147  0.1507
11521TIP3    H255979   4.424   2.119  11.995 -0.8391 -0.3064 -1.2796
11522TIP3   OH255980   6.007   4.779   4.754 -0.3001 -0.3588  0.1705
11522TIP3    H155981   5.950   4.705   4.773  0.2504 -0.9354 -0.3772
11522TIP3    H255982   6.093   4.751   4.785  0.1858 -0.5010 -1.2560
11523TIP3   OH255983   1.637   2.753   4.854 -0.4092  0.4735 -0.0157
11523TIP3    H155984   1.570   2.744   4.921 -1.1736 -1.2121 -0.9706
11523TIP3    H255985   1.596   2.718   4.774  2.0115 -1.7584 -0.3303
11524TIP3   OH255986   3.041   2.609   2.250  0.1106 -0.3972 -0.2028
11524TIP3    H155987   3.076   2.698   2.256  0.8705 -0.6434 -0.8571
11524TIP3    H255988   2.966   2.609   2.309  0.9079  0.2948  0.8380
11525TIP3   OH255989   3.638   5.706  13.799  0.3065 -0.3768 -0.0278
11525TIP3    H155990   3.586   5.783  13.820 -0.4612 -1.1092  0.8168
11525TIP3    H255991   3.635   5.652  13.878  2.0202 -0.6308 -0.1002
11526TIP3   OH255992   1.151   5.521   0.196  0.1900  0.4660  0.1441
11526TIP3    H155993   1.083   5.546   0.134  0.3873  1.2622  0.2502
11526TIP3    H255994   1.225   5.579   0.176 -0.0202  1.2697  1.6309
11527TIP3   OH255995   5.612   0.979   0.071  0.3474 -0.3145  0.3984
11527TIP3    H155996   5.566   1.063   0.061  1.6381  0.3397 -0.1724
11527TIP3    H255997   5.646   0.960  -0.016  1.4188 -0.6387  0.8839
11528TIP3   OH255998   6.115   6.335   5.378  0.0918  0.0450  0.1821
11528TIP3    H155999   6.118   6.419   5.332  0.6871 -0.4470 -0.6946
11528TIP3    H256000   6.041   6.343   5.438 -1.2251  0.3975 -1.4521
11529TIP3   OH256001   1.485   3.658  14.984 -0.3375 -0.0992  0.2502
11529TIP3    H156002   1.490   3.689  14.894  0.1453  2.9131  1.2568
11529TIP3    H256003   1.392   3.641  14.998 -0.3312 -1.2536 -0.9962
11530TIP3   OH256004   5.158   1.076   3.529 -0.2643  0.2460 -0.8546
11530TIP3    H156005   5.063   1.069   3.518 -0.3975  1.5006 -0.4981
11530TIP3    H256006   5.170   1.116   3.615  0.5900  0.3102 -0.9952
11531TIP3   OH256007   0.898   4.100   1.814  0.6399  0.2030  0.0411
11531TIP3    H156008   0.983   4.109   1.857  0.3103  0.7527  0.5892
11531TIP3    H256009   0.838   4.148   1.871  0.0780  0.3599 -0.6824
11532TIP3   OH256010   5.832   1.131  13.982  0.2904 -0.2032 -0.1185
11532TIP3    H156011   5.800   1.132  14.072  2.3888 -1.2381  0.6493
11532TIP3    H256012   5.800   1.048  13.946 -3.2085  1.5739 -1.3653
11533TIP3   OH256013   2.135   1.230  17.197  0.2076 -0.7095  0.2918
11533TIP3    H156014   2.134   1.304  17.137  0.0420 -1.0494 -0.1280
11533TIP3    H256015   2.104   1.265  17.280 -1.1216 -0.5953 -0.2500
11534TIP3   OH256016   6.338   6.177   4.333  0.1331 -0.5841  0.0691
11534TIP3    H156017   6.295   6.095   4.357 -0.4877 -0.3426 -0.1873
11534TIP3    H256018   6.431   6.155   4.325  0.0322 -1.1527  0.4621
11535TIP3   OH256019   2.045   3.846   5.778 -0.6735  1.1241 -0.2160
11535TIP3    H156020   2.073   3.936   5.794 -0.9641  1.0230  0.8589
11535TIP3    H256021   2.095   3.794   5.840 -0.7889  0.5854 -0.5731
11536TIP3   OH256022   0.311   6.114  14.514  1.0287  0.1534 -0.1885
11536TIP3    H156023   0.378   6.183  14.510 -0.2144  1.4275  0.7948
11536TIP3    H256024   0.241   6.145  14.457  1.0681 -0.9836 -0.8778
11537TIP3   OH256025   3.337   3.558   5.793 -0.3714 -1.4484  0.0617
11537TIP3    H156026   3.384   3.579   5.873 -0.7089 -0.7979  0.0883
11537TIP3    H256027   3.389   3.597   5.723 -0.0392 -2.0749 -0.0478
11538TIP3   OH256028   4.211   0.408  10.471  0.0813  0.0783 -0.5616
11538TIP3    H156029   4.229   0.342  10.404 -0.4187 -2.1625  1.4281
11538TIP3    H256030   4.288   0.464  10.472  1.3707 -1.6571 -0.9750
11539TIP3   OH256031   4.797   3.170  10.827 -0.0316  0.1841 -0.1227
11539TIP3    H156032   4.759   3.232  10.764  0.4415  1.0725  0.4653
11539TIP3    H256033   4.794   3.215  10.911 -0.6424 -0.9983  0.5030
11540TIP3   OH256034   1.879   2.631   3.647 -0.1442  0.3771 -0.1981
11540TIP3    H156035   1.903   2.624   3.740 -1.9235 -1.0257  0.1777
11540TIP3    H256036   1.843   2.719   3.637 -0.0725  0.4836  0.4751
11541TIP3   OH256037   4.117   3.195  11.499 -0.2012 -0.1267 -0.0568
11541TIP3    H156038   4.176   3.255  11.546 -0.2780 -0.7948  0.9092
11541TIP3    H256039   4.146   3.108  11.526 -0.2663 -0.5173 -1.2515
11542TIP3   OH256040   1.879   1.829  13.102 -0.0161 -0.3499  0.0106
11542TIP3    H156041   1.957   1.883  13.102 -1.3718  1.6387  0.7935
11542TIP3    H256042   1.809   1.886  13.133 -1.1209 -3.1017  2.8566
11543TIP3   OH256043   0.033   2.665  15.735  0.1737 -0.6668 -0.1076
11543TIP3    H156044   0.007   2.601  15.669  1.2740 -0.6559 -0.5622
11543TIP3    H256045   0.109   2.709  15.696  0.9531 -0.8018  1.2544
11544TIP3   OH256046   0.035   2.480  14.366 -0.7857  0.5962  0.2083
11544TIP3    H156047   0.052   2.476  14.272 -2.0461 -0.1665  0.0110
11544TIP3    H256048  -0.055   2.449  14.377  0.2305 -1.9895  1.9147
11545TIP3   OH256049   0.465   0.425  12.206 -0.3620 -0.0562 -0.0648
11545TIP3    H156050   0.435   0.513  12.228 -0.7111  0.0553 -0.9680
11545TIP3    H256051   0.532   0.405  12.272 -0.1465  0.9614  0.0254
11546TIP3   OH256052   2.004   3.421  13.843 -0.3023 -0.4837 -0.0332
11546TIP3    H156053   1.980   3.477  13.769 -0.5715  0.3340  0.6635
11546TIP3    H256054   1.929   3.363  13.855 -0.1109 -0.8576 -0.6214
11547TIP3   OH256055   1.043   2.981   2.731 -0.1436  0.2297 -0.3512
11547TIP3    H156056   1.042   3.063   2.780  0.4108 -0.3435  0.6188
11547TIP3    H256057   1.083   2.917   2.790 -1.5047 -0.9898 -0.7192
11548TIP3   OH256058   0.395   4.342   4.408 -0.2437  0.1827 -0.0135
11548TIP3    H156059   0.306   4.313   4.424 -0.0825 -1.2909 -1.6077
11548TIP3    H256060   0.428   4.283   4.340  1.5918  1.3557 -0.1930
11549TIP3   OH256061   4.748   5.582  13.261  0.1277  0.0700  0.7188
11549TIP3    H156062   4.819   5.520  13.273  1.0940  0.4883 -2.2544
11549TIP3    H256063   4.714   5.562  13.173 -0.4774  2.7614  0.2930
11550TIP3   OH256064   6.704   1.342   0.936  0.3485 -0.1277 -0.2665
11550TIP3    H156065   6.752   1.387   1.006  0.6097 -1.3874  0.3787
11550TIP3    H256066   6.636   1.293   0.981 -0.9774  0.8998 -1.1074
11551TIP3   OH256067   5.661   6.492   3.104  0.0797  0.7344  0.3984
11551TIP3    H156068   5.654   6.420   3.040  2.5310  0.5618  0.2526
11551TIP3    H256069   5.659   6.571   3.050 -1.7433  0.7512  0.4777
11552TIP3   OH256070   6.321   4.259   5.667  0.3115  0.0484 -0.2107
11552TIP3    H156071   6.322   4.320   5.593  0.3843  0.4497  0.1204
11552TIP3    H256072   6.270   4.303   5.734  1.6479  0.4103  0.5883
11553TIP3   OH256073   1.283   4.919   4.906 -0.2869 -0.5838  0.6552
11553TIP3    H156074   1.268   4.896   4.998  0.4558 -1.6266  0.5229
11553TIP3    H256075   1.269   4.838   4.858  1.5110 -0.5801  0.0857
11554TIP3   OH256076   2.796   0.389  16.961  0.3195  0.3470  0.8008
11554TIP3    H156077   2.828   0.468  17.004 -1.3084  0.7055  1.3565
11554TIP3    H256078   2.876   0.347  16.927  1.2560  1.8773  1.0597
11555TIP3   OH256079   5.000   1.289   0.435 -0.0962  0.3447  0.0994
11555TIP3    H156080   4.973   1.227   0.367 -2.1332  0.8212  0.4157
11555TIP3    H256081   4.932   1.279   0.503  1.6107  0.2445  1.8265
11556TIP3   OH256082   1.761   2.846  17.159 -0.0528  0.1471  0.5126
11556TIP3    H156083   1.727   2.933  17.140 -0.2598  0.2088  1.1518
11556TIP3    H256084   1.846   2.862  17.202  0.6456  0.0013 -0.7734
11557TIP3   OH256085   0.171   1.027  10.939  0.0880 -0.5760 -0.2400
11557TIP3    H156086   0.096   1.025  10.880 -0.1605 -0.9369  0.0902
11557TIP3    H256087   0.169   1.115  10.977  0.7185 -0.0604 -1.3767
11558TIP3   OH256088   5.808   1.270   1.190 -0.0560 -0.5495 -0.0955
11558TIP3    H156089   5.859   1.189   1.178 -0.2953 -0.7160  0.0093
11558TIP3    H256090   5.858   1.336   1.143 -0.3698 -0.9602 -1.0214
11559TIP3   OH256091   4.918   2.238  15.139  0.2891 -0.3834 -0.0590
11559TIP3    H156092   4.841   2.286  15.109 -0.5846 -0.9986  1.1848
11559TIP3    H256093   4.963   2.299  15.197  0.4098 -0.2467 -0.2950
11560TIP3   OH256094   1.540   3.823   5.309  0.1789  0.5709 -0.3151
11560TIP3    H156095   1.605   3.849   5.374  1.5334  0.4102 -1.5733
11560TIP3    H256096   1.498   3.746   5.347 -0.3439  1.5751  1.1754
11561TIP3   OH256097   5.270   4.045   5.265 -0.3774  0.0898  0.1441
11561TIP3    H156098   5.352   4.092   5.251 -1.0426  1.1490 -0.2795
11561TIP3    H256099   5.274   3.971   5.205  0.8990 -0.6974  1.1648
11562TIP3   OH256100   5.529   2.869   3.187  0.3187  0.0955 -0.3160
11562TIP3    H156101   5.531   2.883   3.092  0.9656 -0.2182 -0.3504
11562TIP3    H256102   5.438   2.887   3.211 -0.4890 -2.2563 -1.3749
11563TIP3   OH256103   4.489   6.716   2.689  0.0851 -0.6796  0.1344
11563TIP3    H156104   4.504   6.805   2.719 -1.6099 -0.4530  0.3254
11563TIP3    H256105   4.466   6.667   2.767 -0.9559 -0.8481 -0.2745
11564TIP3   OH256106   0.148   2.500  13.722 -0.1500 -0.4624  0.6025
11564TIP3    H156107   0.174   2.423  13.773  0.7881 -0.3014  0.3719
11564TIP3    H256108   0.216   2.509  13.656 -1.1158 -0.3875 -0.3882
11565TIP3   OH256109   1.640   0.248   4.445  0.0874 -0.2240 -0.0267
11565TIP3    H156110   1.581   0.211   4.511  0.5598 -0.5430  0.2245
11565TIP3    H256111   1.653   0.338   4.472 -0.3622 -0.1253 -0.1380
11566TIP3   OH256112   5.580   3.037   5.959  0.2128  0.2481  0.2672
11566TIP3    H156113   5.644   3.108   5.958 -1.1615  1.5122 -0.1018
11566TIP3    H256114   5.577   3.006   5.869 -0.1325  0.6044  0.1533
11567TIP3   OH256115   4.903   0.885   0.957 -0.1281  0.1259  0.0122
11567TIP3    H156116   4.905   0.802   1.005  0.8006  0.4450  0.5456
11567TIP3    H256117   4.971   0.874   0.889  0.7356  0.8447  0.7582
11568TIP3   OH256118   4.619   2.816   0.976  0.1373  0.1796  0.0798
11568TIP3    H156119   4.615   2.899   0.930 -0.0507 -1.3979 -2.8910
11568TIP3    H256120   4.535   2.773   0.956  1.1865 -1.6978 -0.4918
11569TIP3   OH256121   0.749   5.463  16.290 -0.2325 -0.1625  0.1652
11569TIP3    H156122   0.783   5.538  16.241  0.9611 -0.3594  0.6673
11569TIP3    H256123   0.819   5.441  16.351 -2.3242  1.0701  3.0815
11570TIP3   OH256124   2.145   4.367  12.690 -0.2379 -0.2277  0.2543
11570TIP3    H156125   2.131   4.365  12.785 -2.0011  1.6174  0.0647
11570TIP3    H256126   2.113   4.453  12.662  0.5967 -0.5940 -1.9748
11571TIP3   OH256127   4.645   1.028  12.462 -0.1022 -0.0164 -0.6271
11571TIP3    H156128   4.700   1.047  12.386 -1.6049  1.6460 -1.3210
11571TIP3    H256129   4.557   1.020  12.427 -0.5383 -1.2283  0.6842
11572TIP3   OH256130   0.248   2.882   3.341 -0.3459  0.2531 -0.3372
11572TIP3    H156131   0.319   2.827   3.308  0.5485  1.5205 -0.5567
11572TIP3    H256132   0.180   2.820   3.369  1.6623 -1.0362  1.8099
11573TIP3   OH256133   0.329   4.233  12.849  0.4317  0.3381  0.1215
11573TIP3    H156134   0.245   4.186  12.849  0.0906  0.9284  1.6492
11573TIP3    H256135   0.390   4.172  12.808 -0.9836  0.3690 -2.1386
11574TIP3   OH256136   3.787   0.902  12.568  0.2743 -0.1550  0.1262
11574TIP3    H156137   3.802   0.973  12.505 -0.6621  0.1892  0.2859
11574TIP3    H256138   3.873   0.861  12.579  0.8283  0.9689  0.0452
11575TIP3   OH256139   2.254   4.243  10.789 -0.9608  0.1468  0.2868
11575TIP3    H156140   2.234   4.210  10.701 -2.5506  2.8582 -0.4442
11575TIP3    H256141   2.350   4.243  10.793 -0.8873 -2.1305 -0.5564
11576TIP3   OH256142   2.121   6.393  12.399  0.5505 -0.8758  0.0799
11576TIP3    H156143   2.146   6.484  12.415 -1.1915 -0.4501  0.4726
11576TIP3    H256144   2.179   6.364  12.328  2.2679 -0.0034  1.0966
11577TIP3   OH256145   2.199   2.725  14.386 -0.0667 -0.0741  0.2630
11577TIP3    H156146   2.220   2.796  14.325 -1.4744  1.5215  1.5778
11577TIP3    H256147   2.139   2.668  14.336 -0.8003  0.9418 -0.0319
11578TIP3   OH256148   5.327   3.508   0.018 -0.6843 -0.5510  0.2704
11578TIP3    H156149   5.259   3.487   0.082  1.4664 -0.4377  2.6775
11578TIP3    H256150   5.320   3.603   0.005 -0.5060 -0.4206  1.0998
11579TIP3   OH256151   2.175   1.291  14.571  0.2393  0.1729 -0.5928
11579TIP3    H156152   2.096   1.257  14.613  0.5627  2.0117  1.6047
11579TIP3    H256153   2.198   1.224  14.507 -2.3012 -1.0581 -0.3108
11580TIP3   OH256154   0.720   3.902  11.612 -0.4467  0.6039  0.0291
11580TIP3    H156155   0.801   3.865  11.647 -0.8512 -0.0078  0.3186
11580TIP3    H256156   0.740   3.995  11.598  0.4189  0.3767 -0.2584
11581TIP3   OH256157   0.411   2.924  15.092 -0.1158  0.1818 -0.2902
11581TIP3    H156158   0.356   2.955  15.164  0.8297  2.2940 -0.4463
11581TIP3    H256159   0.363   2.947  15.013 -0.8262 -1.5143 -0.3752
11582TIP3   OH256160   2.859   2.161  13.674 -0.1919  1.1018 -0.1499
11582TIP3    H156161   2.873   2.236  13.617  0.9639 -0.0369 -1.4202
11582TIP3    H256162   2.926   2.098  13.647 -0.5344 -0.0112  1.5297
11583TIP3   OH256163   0.328   4.326  14.322 -0.0317  0.1165  0.1501
11583TIP3    H156164   0.385   4.287  14.256  0.3783  0.0330  0.5520
11583TIP3    H256165   0.302   4.410  14.283 -0.6267 -0.3877 -0.5573
11584TIP3   OH256166   5.717   2.550  15.670 -0.1342  0.8030 -0.1296
11584TIP3    H156167   5.801   2.592  15.688  0.2680  0.3019 -0.8290
11584TIP3    H256168   5.682   2.528  15.756  1.8310 -1.7058  0.0950
11585TIP3   OH256169   4.884   1.465  16.705 -0.1934  0.2880  0.8012
11585TIP3    H156170   4.866   1.433  16.794 -3.2063 -1.7860 -0.4969
11585TIP3    H256171   4.972   1.434  16.686  0.0180 -0.3104  2.6173
11586TIP3   OH256172   0.184   1.853  12.838 -0.5145  0.5875 -0.0375
11586TIP3    H156173   0.192   1.902  12.757  0.3119 -1.0464 -0.9688
11586TIP3    H256174   0.091   1.860  12.861 -1.0986 -0.2841 -2.0143
11587TIP3   OH256175   6.689   4.443  13.124 -0.0732  0.2592 -0.2049
11587TIP3    H156176   6.690   4.465  13.217 -1.1460  0.2055 -0.1774
11587TIP3    H256177   6.601   4.409  13.108  0.4987 -0.9046 -0.9699
11588TIP3   OH256178   3.127   6.057  16.841  0.3108 -0.0200  0.1780
11588TIP3    H156179   3.088   5.978  16.802 -1.3964  0.8521  0.0273
11588TIP3    H256180   3.217   6.033  16.859  0.7254 -0.9970 -2.8440
11589TIP3   OH256181   5.095   5.213   4.928  0.2873 -0.1669 -0.1639
11589TIP3    H156182   5.112   5.227   5.022  0.7652 -0.5006 -0.2019
11589TIP3    H256183   5.040   5.288   4.903  0.5482  0.1795  0.2768
11590TIP3   OH256184   1.256   4.245   1.018  0.2505  0.0287 -0.0362
11590TIP3    H156185   1.228   4.158   0.990  0.8579 -0.2924  0.3520
11590TIP3    H256186   1.346   4.234   1.047 -0.0704  0.5264  1.2208
11591TIP3   OH256187   5.550   1.419  14.580 -0.2518 -0.1167 -0.0810
11591TIP3    H156188   5.497   1.446  14.656 -1.0300 -2.1777  0.1331
11591TIP3    H256189   5.521   1.330  14.561  0.7752 -0.0424 -2.0892
11592TIP3   OH256190   0.124   3.394  16.027  0.4200 -0.2274 -0.2762
11592TIP3    H156191   0.218   3.403  16.038  0.3235  1.7069 -0.7937
11592TIP3    H256192   0.113   3.330  15.956  1.3518 -0.2017 -0.4417
11593TIP3   OH256193   3.914   3.413   0.565  0.4636  1.1208 -0.3452
11593TIP3    H156194   3.841   3.354   0.548  1.3387 -0.0026 -0.2943
11593TIP3    H256195   3.922   3.465   0.485 -1.3546  2.3216  0.2351
11594TIP3   OH256196   2.511   6.314  13.161 -0.0793 -0.5916 -0.4237
11594TIP3    H156197   2.416   6.306  13.170 -0.0919 -0.5987 -0.5623
11594TIP3    H256198   2.528   6.408  13.163 -0.1426 -0.5672 -0.9443
11595TIP3   OH256199   2.711   3.322  16.126 -0.5215 -0.1921 -0.2430
11595TIP3    H156200   2.702   3.346  16.034  1.6503 -1.0577 -0.6936
11595TIP3    H256201   2.745   3.400  16.168  1.1528 -0.6648 -0.6917
11596TIP3   OH256202   1.207   3.753   4.880  0.0044 -0.0278  0.3560
11596TIP3    H156203   1.263   3.823   4.847 -0.1917 -0.5187 -1.0610
11596TIP3    H256204   1.264   3.702   4.938  0.5833  0.3801  0.1502
11597TIP3   OH256205   3.383   3.702   2.387 -0.3340  0.0035  0.6770
11597TIP3    H156206   3.469   3.710   2.428  0.0439 -1.6591  0.2624
11597TIP3    H256207   3.394   3.633   2.321 -1.6711  0.6182 -0.2186
11598TIP3   OH256208   4.162   0.097   2.572 -0.0966  0.3259 -0.0210
11598TIP3    H156209   4.127   0.177   2.611 -3.4900 -1.1679  0.1762
11598TIP3    H256210   4.195   0.046   2.646 -2.4274 -0.5489  0.4519
11599TIP3   OH256211   3.544   6.502  11.779  0.0444 -0.0115 -0.1531
11599TIP3    H156212   3.450   6.515  11.785 -0.2883 -0.5151 -3.3540
11599TIP3    H256213   3.563   6.428  11.836 -1.1729  1.2632  1.9698
11600TIP3   OH256214   3.092   5.230  14.738  0.0158  0.0226  0.2511
11600TIP3    H156215   3.022   5.294  14.729  0.4826  0.7314  1.5414
11600TIP3    H256216   3.065   5.175  14.811 -0.5908 -1.5392 -1.1302
11601TIP3   OH256217   3.532   6.206  10.204  0.0851  0.7899  0.2410
11601TIP3    H156218   3.596   6.224  10.273 -0.3896  0.6547  0.7199
11601TIP3    H256219   3.463   6.271  10.218  0.0584  0.8587 -0.2020
11602TIP3   OH256220   2.046   3.063  16.580 -0.1466  0.1822  0.2607
11602TIP3    H156221   2.100   3.126  16.531  1.3652 -0.6489  0.8024
11602TIP3    H256222   2.044   2.985  16.524 -0.4941  0.0976  0.3942
11603TIP3   OH256223   2.659   2.003  15.058 -0.3641  0.0564  0.5580
11603TIP3    H156224   2.626   2.070  15.118 -2.8852 -2.6711  2.3811
11603TIP3    H256225   2.717   1.949  15.112 -1.2893 -1.3944  0.1277
11604TIP3   OH256226   3.645   2.624   6.705 -0.3759  1.0579  0.5397
11604TIP3    H156227   3.736   2.635   6.677 -0.1635  1.0595  1.2125
11604TIP3    H256228   3.636   2.681   6.782 -1.3490  2.1358 -0.3604
11605TIP3   OH256229   3.158   2.075  11.856 -0.0252  0.1662 -0.0222
11605TIP3    H156230   3.109   2.154  11.835 -0.4820 -0.1450 -0.1349
11605TIP3    H256231   3.231   2.105  11.910 -0.9569  0.4873  1.0673
11606TIP3   OH256232   0.841   3.613   3.100  0.3150 -0.1145  0.1181
11606TIP3    H156233   0.861   3.555   3.173 -0.6347 -0.1708  0.3465
11606TIP3    H256234   0.892   3.578   3.027 -0.0755 -1.1083  0.3097
11607TIP3   OH256235   4.991   3.571   5.682  0.5681 -0.0676  0.2914
11607TIP3    H156236   4.923   3.616   5.632 -0.8371 -2.2236  0.1436
11607TIP3    H256237   4.966   3.584   5.774  0.5816  0.0770  0.2745
11608TIP3   OH256238   6.529   5.326  11.549  0.0541  0.2922 -0.9374
11608TIP3    H156239   6.482   5.244  11.566 -0.7519  1.2879  2.0322
11608TIP3    H256240   6.460   5.389  11.524  0.2337  0.8657 -0.0160
11609TIP3   OH256241   0.385   5.711   2.568 -0.3055  0.1899 -0.5083
11609TIP3    H156242   0.396   5.666   2.652  0.8660 -0.5641 -1.0537
11609TIP3    H256243   0.291   5.705   2.551 -0.3992 -0.6269  0.2260
11610TIP3   OH256244   5.378   2.587  11.651 -0.1946  0.0654 -0.3045
11610TIP3    H156245   5.329   2.618  11.727 -1.7650 -2.2308 -0.3219
11610TIP3    H256246   5.312   2.546  11.595  1.1566  0.4732 -2.2606
11611TIP3   OH256247   3.122   3.450   5.242  0.1558  0.1214  0.2174
11611TIP3    H156248   3.037   3.493   5.238  0.3482  0.7334  2.0192
11611TIP3    H256249   3.164   3.471   5.159 -1.0734  0.6234 -0.2849
11612TIP3   OH256250   5.509   5.891   2.739  0.0344  0.3096 -0.2935
11612TIP3    H156251   5.474   5.836   2.809 -0.2266  1.0602  0.1798
11612TIP3    H256252   5.491   5.843   2.658  0.3655 -0.5758  0.1583
11613TIP3   OH256253   4.531   2.033  13.251  0.3877 -0.3916  0.1805
11613TIP3    H156254   4.526   2.104  13.186  1.8420 -0.1491  0.3085
11613TIP3    H256255   4.478   2.065  13.325  0.6616  0.3652  0.0581
11614TIP3   OH256256   1.700   5.384   6.204  0.5211 -0.0563  0.4438
11614TIP3    H156257   1.739   5.315   6.257  1.1840 -0.8335 -1.0348
11614TIP3    H256258   1.771   5.445   6.187  0.5177 -0.2250 -0.2099
11615TIP3   OH256259   3.214   1.878   4.344 -0.6616 -0.6558 -0.4780
11615TIP3    H156260   3.205   1.795   4.390  0.3003  0.2861  1.4215
11615TIP3    H256261   3.258   1.937   4.406 -0.0560  0.8656 -2.2924
11616TIP3   OH256262   3.110   0.695   4.283 -0.4816 -0.2725  0.0788
11616TIP3    H156263   3.085   0.618   4.334  0.6817 -2.2206 -2.1994
11616TIP3    H256264   3.062   0.686   4.201  2.0554 -0.2850 -1.4759
11617TIP3   OH256265   5.610   4.456   0.295  0.1344  0.5175  0.1655
11617TIP3    H156266   5.524   4.419   0.315  0.3063  0.7269  1.3288
11617TIP3    H256267   5.624   4.522   0.362  1.4441  0.1141  0.3118
11618TIP3   OH256268   5.188   5.754  15.666  0.5815  0.0693  0.1522
11618TIP3    H156269   5.265   5.766  15.722  0.1907 -2.9102  1.4114
11618TIP3    H256270   5.116   5.791  15.717  0.7117  0.1431  0.2827
11619TIP3   OH256271   3.745   1.236  14.036 -0.0382  0.0969  0.1164
11619TIP3    H156272   3.723   1.195  14.119  1.3084 -1.4180 -0.2551
11619TIP3    H256273   3.663   1.276  14.006 -1.3508 -2.1905  0.5460
11620TIP3   OH256274   2.526   1.893   1.363  0.5649  0.0041 -0.4405
11620TIP3    H156275   2.453   1.866   1.419  1.1932 -0.3301  0.2223
11620TIP3    H256276   2.499   1.979   1.329 -1.0510 -1.0312 -1.8728
11621TIP3   OH256277   1.287   4.391   2.180  0.3433 -0.2238 -0.4408
11621TIP3    H156278   1.277   4.309   2.132 -0.1972 -0.0155 -0.6942
11621TIP3    H256279   1.253   4.458   2.121  2.6937  0.4605 -1.0742
11622TIP3   OH256280   6.607   2.020  13.442 -0.5692 -0.0606  0.5108
11622TIP3    H156281   6.547   1.947  13.427 -0.1591 -0.2096 -0.4669
11622TIP3    H256282   6.685   1.980  13.480 -1.3074  0.2123  2.3318
11623TIP3   OH256283   3.126   0.281  16.747 -0.2876  0.1443 -0.6926
11623TIP3    H156284   3.077   0.204  16.774 -0.9955  1.1470  0.9423
11623TIP3    H256285   3.097   0.299  16.658  0.3596 -1.8389 -1.3301
11624TIP3   OH256286   5.012   1.000  15.850 -0.2154 -0.2209  0.1526
11624TIP3    H156287   5.091   1.034  15.892  0.1959 -0.5314 -0.3637
11624TIP3    H256288   4.994   1.061  15.779  0.9862 -1.4771 -1.2856
11625TIP3   OH256289   3.684   1.156  14.325  0.3509  0.5604 -0.4940
11625TIP3    H156290   3.737   1.144  14.404 -1.0569  0.5212  0.4776
11625TIP3    H256291   3.679   1.068  14.286  0.2143  0.3713 -0.0583
11626TIP3   OH256292   6.036   5.662  16.454  0.3162  0.4267  0.2138
11626TIP3    H156293   6.080   5.581  16.428 -0.1031  0.5717 -1.0113
11626TIP3    H256294   6.014   5.649  16.546  0.8989 -0.5559  0.2242
11627TIP3   OH256295   1.552   4.716  12.092 -0.5106  0.2324 -0.0402
11627TIP3    H156296   1.538   4.769  12.170 -1.0778  0.6182 -0.3977
11627TIP3    H256297   1.645   4.726  12.071 -0.5290  0.7439  0.1344
11628TIP3   OH256298   5.362   2.848  13.952 -0.0899  0.0609  0.2069
11628TIP3    H156299   5.394   2.890  14.032 -1.5100 -0.9299  1.3323
11628TIP3    H256300   5.290   2.792  13.982  0.9018 -2.1562 -1.4054
11629TIP3   OH256301   2.271   6.246  16.111  0.5166  0.5672  0.4343
11629TIP3    H156302   2.211   6.306  16.067  1.7724  1.0625 -0.6118
11629TIP3    H256303   2.224   6.219  16.190 -0.4644  2.1355  0.4002
11630TIP3   OH256304   0.430   2.291  15.354 -0.1874 -0.1878 -0.2323
11630TIP3    H156305   0.494   2.356  15.386  1.0129 -0.8994 -1.1216
11630TIP3    H256306   0.393   2.332  15.276 -0.9657  0.2964  0.3764
11631TIP3   OH256307   1.840   5.282  16.200 -0.0454 -0.2280 -0.0179
11631TIP3    H156308   1.749   5.310  16.202  0.3149  1.0688 -0.9664
11631TIP3    H256309   1.884   5.340  16.262  0.1427 -0.8491  0.4357
11632TIP3   OH256310   1.733   3.104  12.056  0.6359 -0.3981 -0.1428
11632TIP3    H156311   1.670   3.036  12.083  0.7058 -0.0607  0.8728
11632TIP3    H256312   1.693   3.142  11.977 -0.9785  0.5595  1.1202
11633TIP3   OH256313   3.202   4.254  16.500 -0.1863  0.0950 -0.3250
11633TIP3    H156314   3.132   4.312  16.470 -1.5598 -1.3993 -0.0934
11633TIP3    H256315   3.259   4.311  16.553 -0.6567  1.5467 -1.3406
11634TIP3   OH256316   6.209   5.607   0.246 -0.4121 -0.5403 -0.0604
11634TIP3    H156317   6.286   5.611   0.189 -2.1622 -0.4118 -2.4524
11634TIP3    H256318   6.198   5.697   0.276  0.1384 -0.4863 -0.0014
11635TIP3   OH256319   1.854   6.441   0.085  0.8134  0.3533 -0.6016
11635TIP3    H156320   1.782   6.404   0.035  0.6282  0.0189 -0.0832
11635TIP3    H256321   1.872   6.525   0.043 -1.6451  1.6905  0.9124
11636TIP3   OH256322   3.857   1.952   2.301 -0.4763 -0.7363 -0.0665
11636TIP3    H156323   3.865   1.857   2.316  0.3181 -0.9997 -2.0359
11636TIP3    H256324   3.776   1.976   2.347 -0.7148 -2.3784  0.4205
11637TIP3   OH256325   1.104   0.224   5.938  0.4512  0.3087  0.1472
11637TIP3    H156326   1.160   0.301   5.947  1.4583 -0.3655 -0.3383
11637TIP3    H256327   1.015   0.260   5.935  0.9781  1.5347 -1.2608
11638TIP3   OH256328   0.053   5.111   5.023  0.0413 -0.0270  0.2574
11638TIP3    H156329  -0.020   5.161   4.987  0.3238  0.6670  0.6252
11638TIP3    H256330   0.118   5.111   4.953  0.3703  0.8457  0.5562
11639TIP3   OH256331   1.705   4.300   4.771 -0.0518  0.0240 -0.4296
11639TIP3    H156332   1.636   4.326   4.833 -0.0909 -1.1910  0.0503
11639TIP3    H256333   1.705   4.369   4.705  0.4654  1.7042  1.3076
11640TIP3   OH256334   4.276   0.528  13.571  0.2779  0.3352 -0.1675
11640TIP3    H156335   4.344   0.584  13.534  1.7367 -1.1993  0.0788
11640TIP3    H256336   4.200   0.540  13.515  0.0254  3.7109  0.7776
11641TIP3   OH256337   5.875   3.875  15.376  0.4135  0.0103 -0.2228
11641TIP3    H156338   5.912   3.959  15.350  1.3767 -0.3323  0.0281
11641TIP3    H256339   5.945   3.832  15.426 -0.1905 -0.7938 -0.0567
11642TIP3   OH256340   3.013   5.811  14.651  0.2686  0.3889 -0.0074
11642TIP3    H156341   3.012   5.888  14.594  2.0131  2.0431  2.1098
11642TIP3    H256342   3.067   5.748  14.604 -0.8107  0.5706 -1.5617
11643TIP3   OH256343   5.224   6.561   5.887  0.0555 -0.5138 -0.8148
11643TIP3    H156344   5.156   6.519   5.834  1.2159 -1.8209 -1.2958
11643TIP3    H256345   5.260   6.490   5.940 -0.4759  0.6042  1.0836
11644TIP3   OH256346   2.445   1.735  14.652 -0.1557 -0.0408  0.4481
11644TIP3    H156347   2.354   1.710  14.635  0.2743 -0.9574 -0.5483
11644TIP3    H256348   2.465   1.801  14.586  0.3948 -1.0162 -0.3845
11645TIP3   OH256349   1.092   2.291  11.789 -0.5412  0.9188  0.2334
11645TIP3    H156350   1.050   2.301  11.875 -1.5832 -0.8239 -0.0510
11645TIP3    H256351   1.023   2.257  11.732  0.6303  0.3116 -0.8480
11646TIP3   OH256352   2.733   4.235   4.328  0.1922  0.0587  0.4265
11646TIP3    H156353   2.776   4.151   4.314 -0.3425 -0.4656  1.8237
11646TIP3    H256354   2.697   4.258   4.242  1.4379 -0.5090 -0.2602
11647TIP3   OH256355   0.072   6.168   2.587  0.2176  0.4034  0.3097
11647TIP3    H156356   0.002   6.118   2.546  2.0760 -1.6650 -0.4308
11647TIP3    H256357   0.125   6.200   2.514  1.4837 -0.2269  0.9362
11648TIP3   OH256358   0.008   5.300  13.051 -0.4723  0.2707  0.8684
11648TIP3    H156359   0.013   5.367  13.119 -2.9001 -0.2120  1.5959
11648TIP3    H256360  -0.019   5.221  13.098 -0.2506 -0.5568 -0.3804
11649TIP3   OH256361   6.072   3.606  12.365  0.0960  0.7977  0.0387
11649TIP3    H156362   6.166   3.590  12.364  0.1060  0.9410 -1.5148
11649TIP3    H256363   6.053   3.629  12.457  1.5807  0.8947  0.3354
11650TIP3   OH256364   1.073   0.049  12.496 -0.0283  0.0491 -0.5579
11650TIP3    H156365   1.141  -0.008  12.532 -0.3592 -0.0663 -0.1106
11650TIP3    H256366   1.030  -0.004  12.429 -0.3397 -0.2320 -0.1375
11651TIP3   OH256367   6.743   0.687  16.544 -0.4541 -0.2997  0.2010
11651TIP3    H156368   6.806   0.641  16.599 -0.5435 -1.6537 -0.8155
11651TIP3    H256369   6.658   0.657  16.577 -0.6465  2.2969  2.2494
11652TIP3   OH256370   5.981   6.699  17.131 -0.0342 -0.1018 -0.2880
11652TIP3    H156371   5.927   6.763  17.085 -0.1727 -0.8807 -1.2224
11652TIP3    H256372   6.070   6.714  17.099 -0.0018 -0.0908 -0.1946
11653TIP3   OH256373   0.502   6.508   2.358 -0.7524  0.1547 -0.3183
11653TIP3    H156374   0.452   6.427   2.344  1.9223 -1.2118 -2.4975
11653TIP3    H256375   0.516   6.511   2.453 -1.1190 -1.8227 -0.1679
11654TIP3   OH256376   5.525   6.362   0.893 -0.0057  0.1188  0.0347
11654TIP3    H156377   5.532   6.455   0.869 -0.3858 -0.3053 -1.8074
11654TIP3    H256378   5.579   6.354   0.971 -0.0023  1.9032  0.2522
11655TIP3   OH256379   4.183   3.986   3.187 -0.3722  0.3297  0.8611
11655TIP3    H156380   4.264   3.961   3.230  0.8156  0.3397 -1.2776
11655TIP3    H256381   4.114   3.939   3.234  1.2945 -3.0842  0.0434
11656TIP3   OH256382   6.782   0.391   5.648  0.5437 -0.1400 -0.0825
11656TIP3    H156383   6.802   0.483   5.634  1.7884 -0.1042  1.7279
11656TIP3    H256384   6.756   0.386   5.740  1.0279 -1.6660 -0.0142
11657TIP3   OH256385   6.372   1.269  15.024 -0.2119 -0.0824 -0.2722
11657TIP3    H156386   6.412   1.306  15.103 -1.1650  0.4723 -0.0476
11657TIP3    H256387   6.280   1.260  15.046 -0.7366  1.3982 -1.8234
11658TIP3   OH256388   6.003   0.420  13.449 -0.4363 -0.3388 -0.0860
11658TIP3    H156389   5.916   0.388  13.424 -0.8905  1.1552 -0.4988
11658TIP3    H256390   6.062   0.386  13.382 -0.6178 -1.7333  0.4445
11659TIP3   OH256391   4.328   2.274  11.054  0.2507 -0.2717  0.0430
11659TIP3    H156392   4.414   2.253  11.019  0.8677  2.2407 -0.1085
11659TIP3    H256393   4.340   2.275  11.149  0.5458  0.6345  0.0010
11660TIP3   OH256394   5.660   5.393   5.295  0.1124  0.0448 -0.1012
11660TIP3    H156395   5.578   5.379   5.247  0.4476 -1.3072 -0.2858
11660TIP3    H256396   5.693   5.476   5.261 -1.3578  0.7938  0.2355
11661TIP3   OH256397   3.439   1.152   4.903 -0.4405  0.0668 -0.1198
11661TIP3    H156398   3.380   1.085   4.869 -0.5520 -0.4229  1.0140
11661TIP3    H256399   3.415   1.161   4.995 -1.3505  2.6451 -0.5612
11662TIP3   OH256400   4.349   2.150   1.163  0.0639 -0.4401 -0.0026
11662TIP3    H156401   4.428   2.096   1.164  1.3699  1.4286  0.9172
11662TIP3    H256402   4.342   2.182   1.253 -2.9093 -2.1932  0.4414
11663TIP3   OH256403   6.297   3.527   4.998  0.3208  0.4267  0.4953
11663TIP3    H156404   6.212   3.566   5.018 -0.3067 -0.7400  0.1581
11663TIP3    H256405   6.298   3.519   4.902  0.7212  0.2392  0.5122
11664TIP3   OH256406   4.552   5.238  17.182 -0.3886 -0.0680  0.3280
11664TIP3    H156407   4.627   5.294  17.165 -0.3241 -0.6168 -1.2673
11664TIP3    H256408   4.586   5.149  17.177 -1.2571 -0.3360 -1.0420
11665TIP3   OH256409   1.173   5.930  16.568  0.4255  0.3183 -0.6033
11665TIP3    H156410   1.091   5.977  16.551  0.8098  0.0345 -3.3754
11665TIP3    H256411   1.151   5.838  16.556  0.7199  0.0937  0.5231
11666TIP3   OH256412   2.190   2.836   2.320  0.1819  0.1914 -0.5232
11666TIP3    H156413   2.200   2.766   2.257 -1.3981  0.2850 -0.9041
11666TIP3    H256414   2.126   2.895   2.281  2.4962  2.5944 -0.8498
11667TIP3   OH256415   5.829   4.609  13.706  0.0967 -0.0577 -0.4469
11667TIP3    H156416   5.759   4.673  13.723  1.0625  0.4820  1.7361
11667TIP3    H256417   5.785   4.524  13.708 -0.9796  0.4572 -2.0274
11668TIP3   OH256418   3.779   4.405   4.140 -0.2817 -0.5350 -0.2803
11668TIP3    H156419   3.815   4.316   4.145 -1.1834 -0.9198 -0.4942
11668TIP3    H256420   3.702   4.396   4.084 -0.3821  0.3874 -0.2906
11669TIP3   OH256421   4.736   1.292   2.062  0.0519  0.5112 -0.2407
11669TIP3    H156422   4.755   1.206   2.101  0.1354  0.5993 -0.0844
11669TIP3    H256423   4.647   1.284   2.029 -0.5517  0.8810  1.2423
11670TIP3   OH256424   0.618   1.208  14.438  0.7152  0.1092 -0.6931
11670TIP3    H156425   0.598   1.246  14.523 -0.2524  1.9211 -1.7252
11670TIP3    H256426   0.708   1.174  14.448  0.4666 -0.0645  1.1426
11671TIP3   OH256427   5.731   6.100   1.182 -0.1164  0.8016  0.0494
11671TIP3    H156428   5.655   6.050   1.150  0.2712  0.7237 -0.7664
11671TIP3    H256429   5.713   6.113   1.275 -0.4691 -0.4271  0.1692
11672TIP3   OH256430   0.574   6.781  12.407 -0.1406 -0.2080 -0.2038
11672TIP3    H156431   0.552   6.874  12.414 -0.2740 -0.3943  2.4851
11672TIP3    H256432   0.510   6.745  12.347  1.0931  1.7992 -2.8097
11673TIP3   OH256433   0.461   6.148  11.636 -0.6299  0.4247  0.0792
11673TIP3    H156434   0.379   6.127  11.682 -0.7665  0.8271  0.0261
11673TIP3    H256435   0.485   6.068  11.591 -1.7830  0.7348 -1.1040
11674TIP3   OH256436   0.654   0.319   5.760  0.5767  0.2540  0.2775
11674TIP3    H156437   0.730   0.377   5.761 -0.3794  1.5416  0.3467
11674TIP3    H256438   0.629   0.313   5.668  0.6484 -0.0305  0.2742
11675TIP3   OH256439   5.542   4.904  10.798 -0.4966  0.2079 -0.1378
11675TIP3    H156440   5.564   4.944  10.882  1.0527 -0.1761 -0.3416
11675TIP3    H256441   5.486   4.830  10.820  1.1292 -0.8156  0.7096
11676TIP3   OH256442   1.555   5.394  11.883 -0.7979 -0.5993 -0.3492
11676TIP3    H156443   1.619   5.369  11.817 -1.5434  0.5766 -1.5418
11676TIP3    H256444   1.476   5.415  11.834 -1.3600  0.3367  0.9103
11677TIP3   OH256445   2.774   6.211  12.460 -0.0143 -0.6927  0.7137
11677TIP3    H156446   2.867   6.187  12.459 -0.1373 -1.2372  1.7761
11677TIP3    H256447   2.727   6.128  12.458 -0.5007 -0.3964 -0.7737
11678TIP3   OH256448   5.022   5.159   1.454  0.1226  0.1538  0.0379
11678TIP3    H156449   5.083   5.136   1.523  1.0351 -0.4059 -0.9344
11678TIP3    H256450   4.977   5.237   1.486  0.3144 -0.2688  1.3733
11679TIP3   OH256451   4.128   5.654  12.386 -0.1468 -0.7751 -0.7952
11679TIP3    H156452   4.191   5.726  12.373  0.6042 -1.1149  0.7964
11679TIP3    H256453   4.051   5.680  12.336  0.5324  0.6060 -1.1489
11680TIP3   OH256454   0.951   5.492   5.284  0.9347 -0.2630  0.1243
11680TIP3    H156455   0.955   5.406   5.242 -0.9194  0.1546 -0.9328
11680TIP3    H256456   0.862   5.522   5.270  1.3472  1.5214  1.1460
11681TIP3   OH256457   3.465   4.749  11.424  0.5174 -0.4855 -0.4598
11681TIP3    H156458   3.445   4.656  11.439 -0.2460 -0.3388 -0.5704
11681TIP3    H256459   3.448   4.791  11.509  3.4654 -0.8551  0.4026
11682TIP3   OH256460   4.463   0.916   0.320  0.8250 -0.4728 -0.1567
11682TIP3    H156461   4.450   1.003   0.284  0.1336 -1.5339 -2.5846
11682TIP3    H256462   4.503   0.931   0.406 -2.5791  2.3648  1.0437
11683TIP3   OH256463   6.689   3.299  11.465  0.3054  0.2535  0.2531
11683TIP3    H156464   6.653   3.313  11.378  1.0131 -0.1881 -0.1162
11683TIP3    H256465   6.784   3.303  11.453  0.4622 -1.5421  0.6927
11684TIP3   OH256466   4.329   3.158   3.025  0.2058  0.6902 -0.2134
11684TIP3    H156467   4.343   3.099   2.950 -1.1562 -1.8657  1.4699
11684TIP3    H256468   4.401   3.138   3.084  0.7539  2.0408 -0.4099
11685TIP3   OH256469   2.301   2.732   0.146 -0.9925  0.3122 -0.2419
11685TIP3    H156470   2.240   2.732   0.072 -1.0848  2.7615 -0.2161
11685TIP3    H256471   2.246   2.713   0.222 -1.2587 -0.0979 -0.5288
11686TIP3   OH256472   3.920   2.193   5.417  0.5513  0.1220 -0.7091
11686TIP3    H156473   3.986   2.243   5.369 -0.7325 -0.2309 -2.8888
11686TIP3    H256474   3.881   2.256   5.477  0.3230  1.2405 -2.0201
11687TIP3   OH256475   5.332   2.616  12.151  0.3007  0.3278  0.9621
11687TIP3    H156476   5.343   2.616  12.246 -0.1892 -1.0999  1.0312
11687TIP3    H256477   5.360   2.530  12.123 -0.0419  0.5592 -0.1344
11688TIP3   OH256478   5.034   0.023   0.795  0.5929 -0.1279  0.1253
11688TIP3    H156479   4.940   0.005   0.799  0.4308  0.4009 -1.1725
11688TIP3    H256480   5.076  -0.060   0.818 -0.1923 -0.5587 -0.0068
11689TIP3   OH256481   5.890   0.254   0.290 -0.5507  0.1440  0.2576
11689TIP3    H156482   5.956   0.253   0.221 -0.4556 -1.5919  0.3489
11689TIP3    H256483   5.937   0.227   0.369 -0.9749  0.6903  0.7039
11690TIP3   OH256484   4.083   0.441  13.810 -0.2437 -0.4622 -0.2524
11690TIP3    H156485   4.075   0.531  13.840 -1.0531 -0.6469  0.1105
11690TIP3    H256486   3.995   0.419  13.779  0.6854 -0.0688 -3.3498
11691TIP3   OH256487   0.530   3.894  16.995  0.3691  0.0336 -0.4430
11691TIP3    H156488   0.612   3.846  16.998 -0.1921 -0.8188  2.0145
11691TIP3    H256489   0.471   3.847  17.054 -1.1141  2.0278 -0.2562
11692TIP3   OH256490   2.841   1.127   1.835  0.1751  0.1235  0.1704
11692TIP3    H156491   2.841   1.053   1.774  1.4776  0.0720  0.2084
11692TIP3    H256492   2.771   1.184   1.804  0.5163 -0.1350 -1.1082
11693TIP3   OH256493   5.418   1.873   0.261 -0.1118  0.5785 -0.9967
11693TIP3    H156494   5.509   1.903   0.260 -0.0799  0.5010 -0.5978
11693TIP3    H256495   5.400   1.848   0.171  0.4295  0.0941 -0.9701
11694TIP3   OH256496   4.718   5.880  10.774 -0.0541 -0.7922  0.4720
11694TIP3    H156497   4.744   5.820  10.705 -0.7543  0.5323 -0.9766
11694TIP3    H256498   4.779   5.953  10.766 -1.2749  0.1976  0.0569
11695TIP3   OH256499   6.092   0.159  11.648  0.3714  0.4378 -0.7336
11695TIP3    H156500   6.176   0.135  11.609  0.8650  1.5832 -0.3890
11695TIP3    H256501   6.066   0.083  11.699  0.9956 -0.0832 -1.1910
11696TIP3   OH256502   5.053   1.320   1.193  0.1604  0.0249 -0.4186
11696TIP3    H156503   5.036   1.401   1.242  2.6974  0.2116  0.2060
11696TIP3    H256504   5.035   1.250   1.255  1.5324  0.2157  0.2046
11697TIP3   OH256505   1.583   3.974  16.518  0.3773 -0.0289  0.8244
11697TIP3    H156506   1.642   3.908  16.553  0.2650 -1.0067 -0.8083
11697TIP3    H256507   1.640   4.046  16.492  0.6179  0.0017  1.4273
11698TIP3   OH256508   3.355   3.586   1.491 -0.3748  0.2538  0.6249
11698TIP3    H156509   3.273   3.547   1.519 -0.0482 -0.6874  0.2764
11698TIP3    H256510   3.416   3.513   1.483 -0.2740  0.5486 -1.8504
11699TIP3   OH256511   0.719   4.348   5.411 -0.0294 -0.0189  0.4396
11699TIP3    H156512   0.641   4.402   5.422 -0.7573 -0.9560  0.0028
11699TIP3    H256513   0.753   4.336   5.500  1.4367  2.9921  0.3193
11700TIP3   OH256514   2.501   6.390  15.229  0.3194  0.8091 -0.1469
11700TIP3    H156515   2.482   6.356  15.142 -2.7618  2.3298 -0.1285
11700TIP3    H256516   2.431   6.356  15.284  2.3559 -0.3411  1.8475
11701TIP3   OH256517   1.172   2.190   2.687 -0.2398  0.3461  0.3529
11701TIP3    H156518   1.115   2.212   2.760 -1.4138 -0.5110 -0.2946
11701TIP3    H256519   1.121   2.212   2.609  1.3598  2.1492 -0.2208
11702TIP3   OH256520   0.349   3.028   3.986  0.3344 -0.2116 -0.3665
11702TIP3    H156521   0.366   3.019   4.080 -1.6558 -1.1131 -0.0590
11702TIP3    H256522   0.389   2.950   3.947 -0.5876 -0.8612 -0.0169
11703TIP3   OH256523   4.341   3.699  13.457  0.0437  0.5973  0.3582
11703TIP3    H156524   4.339   3.790  13.428  1.0209  1.4447  2.7595
11703TIP3    H256525   4.405   3.657  13.399 -2.4241  0.7083 -2.5662
11704TIP3   OH256526   4.247   3.379   2.766 -0.1958 -0.3891 -0.0296
11704TIP3    H156527   4.182   3.316   2.735 -1.8369  1.1032  0.3362
11704TIP3    H256528   4.258   3.359   2.859  0.2333 -0.9427 -0.1953
11705TIP3   OH256529   0.458   2.414  14.319  0.0503  0.2425  0.0280
11705TIP3    H156530   0.389   2.413  14.386  0.1784  0.6236  0.1692
11705TIP3    H256531   0.437   2.490  14.264  0.1111  0.1020 -0.1903
11706TIP3   OH256532   1.451   4.486   1.537 -0.8576  0.4881  0.0148
11706TIP3    H156533   1.365   4.444   1.547  0.3866 -2.0500  0.3667
11706TIP3    H256534   1.495   4.435   1.470 -0.2411  2.8979 -1.4885
11707TIP3   OH256535   0.706   4.236   3.120 -0.0583 -0.3395 -0.4751
11707TIP3    H156536   0.746   4.208   3.038 -1.3175 -1.8546 -0.5916
11707TIP3    H256537   0.650   4.310   3.096  1.8069  1.1061 -0.4826
11708TIP3   OH256538   1.681   3.527   5.641 -0.2935  0.1860 -0.7630
11708TIP3    H156539   1.751   3.570   5.690 -0.8723 -0.8809  1.0517
11708TIP3    H256540   1.716   3.519   5.552  1.8471 -0.2046  0.0718
11709TIP3   OH256541   3.728   3.459  17.219 -0.2104  0.4100 -0.2822
11709TIP3    H156542   3.751   3.425  17.305  2.4398 -0.9283 -1.4297
11709TIP3    H256543   3.714   3.553  17.232 -1.2132 -0.0171  1.8266
11710TIP3   OH256544   0.759   0.974   1.119 -0.3375  0.3596 -0.1942
11710TIP3    H156545   0.679   0.932   1.149 -1.1376  0.9379 -1.4749
11710TIP3    H256546   0.734   1.065   1.102  0.4024  0.3869 -1.2619
11711TIP3   OH256547   2.598   4.926   5.651 -0.4807  0.2933  0.4807
11711TIP3    H156548   2.549   4.997   5.691 -0.7998  0.8073 -0.8062
11711TIP3    H256549   2.687   4.936   5.685 -0.1687  2.2150 -0.8031
11712TIP3   OH256550   5.467   0.095   0.629  0.3750 -0.4018  0.0893
11712TIP3    H156551   5.466   0.051   0.715 -2.3408  2.1405  1.4755
11712TIP3    H256552   5.554   0.133   0.622  0.3868  0.0345  2.1397
11713TIP3   OH256553   4.458   4.366   1.879 -0.2125 -0.2025 -0.0078
11713TIP3    H156554   4.463   4.273   1.855 -0.2546 -0.0096 -0.7879
11713TIP3    H256555   4.549   4.395   1.887 -0.2006 -0.3812  0.5267
11714TIP3   OH256556   4.286   0.208   2.045 -0.0295 -0.3706  0.0033
11714TIP3    H156557   4.250   0.146   1.982 -2.1175  1.8320 -1.0692
11714TIP3    H256558   4.274   0.165   2.130  1.1448 -2.5821 -0.8919
11715TIP3   OH256559   5.046   3.325   5.547 -0.4016 -1.3160 -0.4657
11715TIP3    H156560   5.063   3.405   5.597  2.1943 -1.9240 -0.2663
11715TIP3    H256561   5.006   3.355   5.466 -1.4849 -0.0175  0.5186
11716TIP3   OH256562   4.082   2.099  16.771  0.4435 -0.5050 -0.5334
11716TIP3    H156563   4.137   2.172  16.799 -0.7522  0.7396 -1.3405
11716TIP3    H256564   3.996   2.118  16.809  0.4294 -2.1847  0.3447
11717TIP3   OH256565   3.485   2.170  11.707  0.0698 -0.5959  0.6113
11717TIP3    H156566   3.541   2.206  11.639 -1.2844 -0.5629 -0.5161
11717TIP3    H256567   3.450   2.089  11.669 -1.7592  0.1187  0.7145
11718TIP3   OH256568   3.089   3.725   3.589  0.4099 -0.9309  0.0321
11718TIP3    H156569   3.015   3.734   3.529  0.4479 -0.9584 -0.0189
11718TIP3    H256570   3.158   3.685   3.536  0.2427 -1.5180  0.2544
11719TIP3   OH256571   3.377   0.631  16.246  0.4470 -0.4632 -0.4161
11719TIP3    H156572   3.434   0.617  16.321 -0.0658  0.8711  0.2209
11719TIP3    H256573   3.434   0.672  16.181  0.5170 -0.2882 -0.2431
11720TIP3   OH256574   5.712   5.216   1.323 -0.1421  0.9999 -0.3311
11720TIP3    H156575   5.627   5.176   1.305  0.4804 -0.0331 -1.0168
11720TIP3    H256576   5.775   5.160   1.277  0.9642  1.4195  0.6561
11721TIP3   OH256577   6.550   6.282  17.157 -0.5094  0.4698  0.2352
11721TIP3    H156578   6.528   6.200  17.201 -0.0373  0.6546  0.8283
11721TIP3    H256579   6.477   6.298  17.098 -1.1407  0.2032  0.9361
11722TIP3   OH256580   4.279   3.185  13.641 -0.3650 -0.0752  1.0087
11722TIP3    H156581   4.332   3.116  13.600 -0.4714 -0.5381  1.6388
11722TIP3    H256582   4.261   3.152  13.729 -0.9256  0.4947  1.1108
11723TIP3   OH256583   1.891   4.028  11.695 -0.0089  0.2073 -0.1890
11723TIP3    H156584   1.840   4.098  11.736 -0.3946  0.2225 -0.6951
11723TIP3    H256585   1.856   4.021  11.606  1.8635  1.2505 -1.0383
11724TIP3   OH256586   2.494   0.132   3.607 -0.1056 -0.1182  0.1982
11724TIP3    H156587   2.425   0.156   3.668  0.0090  0.1093  0.2427
11724TIP3    H256588   2.563   0.197   3.623  0.6788 -1.1708  1.1093
11725TIP3   OH256589   6.731   3.143   1.912  0.2775  0.0107  0.2385
11725TIP3    H156590   6.720   3.128   2.006 -2.1583  2.3744  0.3659
11725TIP3    H256591   6.660   3.093   1.871  0.9661 -0.5161 -0.3410
11726TIP3   OH256592   1.146   3.777   2.748 -0.1800 -0.1674  0.3193
11726TIP3    H156593   1.080   3.835   2.711 -0.2935 -0.1507  0.5483
11726TIP3    H256594   1.132   3.693   2.705  0.4838  0.1820 -0.5808
11727TIP3   OH256595   0.598   4.180  16.387  0.0779 -0.2167  0.1412
11727TIP3    H156596   0.528   4.130  16.345 -0.8610  0.2505  1.1219
11727TIP3    H256597   0.568   4.271  16.385  0.8633  0.0469  0.1562
11728TIP3   OH256598   3.934   1.147   6.031 -0.8576  0.6384  0.1119
11728TIP3    H156599   3.860   1.202   6.057 -0.6894 -0.0184  2.0168
11728TIP3    H256600   3.920   1.064   6.076 -0.2913 -0.3824 -1.5375
11729TIP3   OH256601   4.322   6.601  12.180  0.0067 -0.4767 -0.6195
11729TIP3    H156602   4.335   6.696  12.173 -0.2781 -0.4116 -0.3091
11729TIP3    H256603   4.242   6.585  12.130 -0.9359 -0.2893  0.7734
11730TIP3   OH256604   5.768   5.661   0.806  0.3944  0.3857 -0.7692
11730TIP3    H156605   5.692   5.643   0.752  0.2346  0.6179 -0.6227
11730TIP3    H256606   5.745   5.628   0.893  0.5263  0.3027 -0.7647
11731TIP3   OH256607   5.534   6.288   3.450  0.0427 -0.3039 -0.1685
11731TIP3    H156608   5.611   6.255   3.497  0.5532  1.2377  0.1107
11731TIP3    H256609   5.483   6.333   3.517 -0.1666  0.2793 -0.7228
11732TIP3   OH256610   3.304   1.579  16.636  0.2397  0.4057  0.5654
11732TIP3    H156611   3.346   1.526  16.704  3.3069  0.2222 -1.3800
11732TIP3    H256612   3.306   1.524  16.558 -0.8207  1.6023 -0.3157
11733TIP3   OH256613   1.348   0.328  14.124 -0.3504 -0.0280  0.0806
11733TIP3    H156614   1.355   0.346  14.030 -4.1036  0.5419 -0.1723
11733TIP3    H256615   1.292   0.250  14.129 -1.6947  0.9929  1.8574
11734TIP3   OH256616   4.024   1.765   4.090 -0.3953 -0.0628 -0.5223
11734TIP3    H156617   3.974   1.692   4.052  0.3932 -0.5794 -0.5695
11734TIP3    H256618   4.102   1.772   4.035  0.9045 -1.0007  1.1357
11735TIP3   OH256619   2.244   3.304   0.294 -0.3362 -0.5373  0.1216
11735TIP3    H156620   2.162   3.305   0.245  0.8036 -1.1209 -1.8659
11735TIP3    H256621   2.254   3.394   0.326 -0.9938 -0.0787 -0.9296
11736TIP3   OH256622   0.888   1.328  10.935 -0.2022 -0.3476  0.6430
11736TIP3    H156623   0.832   1.291  10.867 -1.5161 -1.1668  2.1304
11736TIP3    H256624   0.963   1.269  10.940  0.6333  0.5482 -1.1079
11737TIP3   OH256625   6.423   1.543   5.834  0.3611 -0.7093  0.3288
11737TIP3    H156626   6.357   1.474   5.842 -1.6169  0.8463 -1.9998
11737TIP3    H256627   6.377   1.624   5.855  2.4870  0.0355  2.3641
11738TIP3   OH256628   3.492   3.862   0.349 -0.0348 -0.3984  0.3470
11738TIP3    H156629   3.536   3.902   0.274  0.3218  2.7358  2.1524
11738TIP3    H256630   3.560   3.809   0.391  0.7442  0.6433  0.4240
11739TIP3   OH256631   1.853   2.233  15.131  0.3603 -0.5156  0.6341
11739TIP3    H156632   1.859   2.172  15.058 -0.2603 -0.1563  0.2805
11739TIP3    H256633   1.939   2.229  15.173  0.6601 -0.8536 -0.0095
11740TIP3   OH256634   5.495   6.304   5.276  0.8052  0.4220 -0.1593
11740TIP3    H156635   5.571   6.286   5.219  2.1817  0.3021  1.6669
11740TIP3    H256636   5.510   6.393   5.308  0.9801 -0.1498  1.4045
11741TIP3   OH256637   3.742   2.194  10.855 -0.5929 -0.0863 -0.6814
11741TIP3    H156638   3.702   2.137  10.789  1.2249 -1.6198 -0.5194
11741TIP3    H256639   3.827   2.217  10.818 -1.1092  2.1714 -0.5187
11742TIP3   OH256640   5.809   3.390   2.949  0.1834 -0.5905  0.6131
11742TIP3    H156641   5.786   3.481   2.930 -0.9639 -0.8445  0.7156
11742TIP3    H256642   5.725   3.345   2.954  0.6162 -1.2644  2.5833
11743TIP3   OH256643   5.956   5.576   1.617 -0.8676  0.1056 -0.2789
11743TIP3    H156644   5.929   5.667   1.604 -2.2037 -0.2231  0.0800
11743TIP3    H256645   5.913   5.550   1.699  0.1719 -0.5999  0.0524
11744TIP3   OH256646   5.458   1.513   0.065 -0.2697 -0.6406  0.2530
11744TIP3    H156647   5.384   1.544   0.013 -0.1592 -0.5692  0.1361
11744TIP3    H256648   5.528   1.576   0.047 -0.3998 -0.2930  0.9251
11745TIP3   OH256649   5.696   0.033   5.988 -0.5931  0.0120  0.1987
11745TIP3    H156650   5.659   0.121   5.986 -1.5272 -0.3838 -0.0882
11745TIP3    H256651   5.620  -0.026   5.992 -0.0307 -0.8261 -1.0465
11746TIP3   OH256652   4.046   5.724  16.286  0.3935 -0.0102  0.2080
11746TIP3    H156653   3.981   5.763  16.228  1.2706  0.1628 -0.6591
11746TIP3    H256654   4.110   5.684  16.228  1.6974  0.8352  1.0201
11747TIP3   OH256655   3.651   2.084  16.185 -0.2331  0.3579  0.3268
11747TIP3    H156656   3.710   2.159  16.174 -0.2956  0.2229 -1.0586
11747TIP3    H256657   3.569   2.122  16.217 -0.3115  0.9211 -0.5052
11748TIP3   OH256658   3.868   3.799  12.060 -0.4370 -0.6696 -0.8028
11748TIP3    H156659   3.883   3.736  11.989  1.0219 -2.6359  1.1990
11748TIP3    H256660   3.840   3.746  12.134 -1.7354  1.3406  0.1792
11749TIP3   OH256661   4.057   4.751   5.226  0.0458 -0.2839  0.1226
11749TIP3    H156662   4.144   4.728   5.192 -0.0539  0.1230 -0.4178
11749TIP3    H256663   4.020   4.808   5.159  0.3692  1.6159  1.5266
11750TIP3   OH256664   3.323   4.167   5.230 -0.5244  0.5950  0.2385
11750TIP3    H156665   3.268   4.111   5.286  2.0217 -1.3317  0.8934
11750TIP3    H256666   3.332   4.248   5.279 -0.0221 -0.3256  1.7212
11751TIP3   OH256667   1.166   1.636   1.691  0.4520 -0.4430  0.1420
11751TIP3    H156668   1.078   1.606   1.667  0.1523  0.2353  0.3979
11751TIP3    H256669   1.167   1.634   1.787  1.1592 -1.7155  0.1251
11752TIP3   OH256670   2.025   4.177  14.457  0.1540 -0.2457 -0.5482
11752TIP3    H156671   2.035   4.215  14.369  2.1205 -0.3893 -0.4056
11752TIP3    H256672   2.111   4.188  14.497 -0.6938 -0.3226  1.3171
11753TIP3   OH256673   2.274   0.208   0.901 -0.4128 -0.5222 -0.3880
11753TIP3    H156674   2.276   0.228   0.995 -0.8942 -2.0812 -0.0315
11753TIP3    H256675   2.185   0.230   0.873 -0.1521  0.3149 -0.5709
11754TIP3   OH256676   6.353   0.515  13.052 -0.0030  0.9623 -0.3359
11754TIP3    H156677   6.277   0.459  13.035 -0.8201  1.3395  1.8570
11754TIP3    H256678   6.418   0.456  13.091 -0.2477  1.2135  0.4538
11755TIP3   OH256679   5.252   6.376  14.839 -0.3675 -0.3837 -0.8959
11755TIP3    H156680   5.321   6.430  14.799 -0.6508  1.1322  0.6137
11755TIP3    H256681   5.273   6.287  14.811  1.3276  0.2364 -1.7072
11756TIP3   OH256682   6.217   6.422   6.280 -0.4159 -0.0630  0.1210
11756TIP3    H156683   6.230   6.407   6.374 -0.2243  1.6942  0.3878
11756TIP3    H256684   6.213   6.517   6.271  1.1362 -0.1515 -1.8764
11757TIP3   OH256685   3.294   3.638   3.418  0.4209 -0.6702 -0.2559
11757TIP3    H156686   3.358   3.708   3.407  0.8473 -0.9421  0.4666
11757TIP3    H256687   3.337   3.574   3.474 -0.7273 -0.5335  0.8135
11758TIP3   OH256688   5.723   5.634  11.060  0.1858 -0.0523  0.3988
11758TIP3    H156689   5.810   5.607  11.032  0.2747  0.6040  0.0136
11758TIP3    H256690   5.672   5.553  11.064  0.4465 -0.2836 -0.7042
11759TIP3   OH256691   0.017   4.900  10.427 -0.1655 -0.0037 -0.6710
11759TIP3    H156692   0.084   4.898  10.496 -0.4317  1.1271 -0.3657
11759TIP3    H256693   0.012   4.992  10.401  0.8551 -0.6240 -3.1349
11760TIP3   OH256694   3.974   3.256  10.836 -0.5454  0.0957 -0.3695
11760TIP3    H156695   3.885   3.262  10.802 -0.6915 -0.3143 -0.0600
11760TIP3    H256696   4.026   3.226  10.761 -0.5672  0.9042 -0.7084
11761TIP3   OH256697   2.099   3.032   0.364  0.1952  0.1550  0.0870
11761TIP3    H156698   2.183   3.076   0.358 -0.0581  0.6881  0.4456
11761TIP3    H256699   2.052   3.079   0.433 -0.0823 -0.6514  0.4620
11762TIP3   OH256700   4.668   1.288   2.431  0.1302 -0.4507 -0.0087
11762TIP3    H156701   4.749   1.291   2.380  1.9355  0.6238  2.8344
11762TIP3    H256702   4.679   1.355   2.498 -2.3999 -1.4357  1.4657
11763TIP3   OH256703   3.535   1.453  11.663  0.0145  0.0336  0.1184
11763TIP3    H156704   3.447   1.463  11.627  0.2016 -0.3329 -0.4484
11763TIP3    H256705   3.560   1.541  11.691 -0.9021 -0.0164  1.1550
11764TIP3   OH256706   5.308   1.956  12.257 -0.1594  0.2207  0.5197
11764TIP3    H156707   5.314   1.888  12.324 -0.3102 -1.3324 -1.0189
11764TIP3    H256708   5.397   1.989  12.248  0.4434 -1.6514 -0.6275
11765TIP3   OH256709   5.028   5.593   2.763  0.2599  0.1904 -0.0343
11765TIP3    H156710   5.087   5.656   2.722  0.4106  0.2553  0.2745
11765TIP3    H256711   5.026   5.618   2.856  0.4435 -0.3504  0.1222
11766TIP3   OH256712   5.876   5.409   2.920 -0.1960 -0.5484 -0.0968
11766TIP3    H156713   5.918   5.487   2.957  0.2136 -1.0097  0.4254
11766TIP3    H256714   5.930   5.336   2.951 -1.6498 -1.1922  1.0046
11767TIP3   OH256715   6.162   2.304   1.889  0.1543  1.0300 -0.6383
11767TIP3    H156716   6.237   2.361   1.905  1.4409 -0.5297 -0.9694
11767TIP3    H256717   6.200   2.216   1.885 -2.0033 -0.0569  1.6385
11768TIP3   OH256718   6.505   1.091   2.007  1.0215  0.6306 -0.0985
11768TIP3    H156719   6.428   1.034   2.017  2.2728 -1.0492  0.2589
11768TIP3    H256720   6.519   1.126   2.095  1.0061  0.4833 -0.0369
11769TIP3   OH256721   0.652   1.549  14.305 -0.5131 -0.0800  0.3658
11769TIP3    H156722   0.562   1.544  14.337 -0.3969  0.7686  0.8211
11769TIP3    H256723   0.653   1.626  14.249 -0.0372 -0.0294  0.4459
11770TIP3   OH256724   0.566   6.225   3.046  0.4876 -0.0022 -0.1057
11770TIP3    H156725   0.652   6.254   3.016  0.5792  0.0410  0.2024
11770TIP3    H256726   0.512   6.304   3.044  0.9374  0.3623  1.4746
11771TIP3   OH256727   1.445   3.845  16.910 -0.1277  0.3924  0.1279
11771TIP3    H156728   1.488   3.760  16.913  1.1248  0.9627 -1.1756
11771TIP3    H256729   1.431   3.861  16.817 -3.8086 -0.0882  0.5219
11772TIP3   OH256730   6.222   5.738  15.803  0.4379 -0.3040  0.1489
11772TIP3    H156731   6.156   5.768  15.741 -0.1616 -1.9020 -0.0099
11772TIP3    H256732   6.293   5.705  15.749  0.4599 -0.5306  0.3150
11773TIP3   OH256733   6.585   3.265  12.167  0.0335  0.1827 -0.7108
11773TIP3    H156734   6.628   3.202  12.224 -2.5555 -1.9839 -1.0307
11773TIP3    H256735   6.584   3.346  12.218  3.5521  0.0597 -0.3546
11774TIP3   OH256736   6.695   0.457   0.418  0.5504 -0.7555 -0.2634
11774TIP3    H156737   6.643   0.531   0.387 -0.7003 -1.5220 -0.0095
11774TIP3    H256738   6.765   0.498   0.470 -0.5131  0.2272  0.4298
11775TIP3   OH256739   6.649   1.144   5.039 -0.0006  0.6350 -0.2982
11775TIP3    H156740   6.632   1.106   4.952  0.3451  2.0418 -0.9981
11775TIP3    H256741   6.691   1.074   5.088  0.8425  0.1621 -1.6456
11776TIP3   OH256742   1.465   4.743   3.557 -0.0607  0.0587 -0.2549
11776TIP3    H156743   1.434   4.834   3.560  0.3589  0.1808  0.4840
11776TIP3    H256744   1.386   4.691   3.563 -0.4085  0.3653 -1.8045
11777TIP3   OH256745   0.101   4.622  14.926 -0.1424 -0.8738  0.2757
11777TIP3    H156746   0.120   4.540  14.972 -1.0275 -0.5792  1.1820
11777TIP3    H256747   0.082   4.684  14.996  1.4790  0.3666 -0.3538
11778TIP3   OH256748   4.181   0.768  12.282  0.2261  0.3276  0.4188
11778TIP3    H156749   4.259   0.720  12.312  0.8159  0.8736 -0.1986
11778TIP3    H256750   4.217   0.844  12.235 -0.6883  0.8582  0.5710
11779TIP3   OH256751   2.446   6.711  13.945  0.0716  0.3283 -0.9599
11779TIP3    H156752   2.390   6.751  13.878 -0.8514  0.2748 -0.2202
11779TIP3    H256753   2.401   6.629  13.968  0.6969  0.0566 -0.6987
11780TIP3   OH256754   2.867   1.170   5.463  0.4288  0.5843 -0.1716
11780TIP3    H156755   2.883   1.252   5.510  0.6499  0.1364  0.5418
11780TIP3    H256756   2.941   1.162   5.402  1.3863  0.0085  1.0385
11781TIP3   OH256757   0.824   0.582   4.640  0.6059 -0.2922  0.2821
11781TIP3    H156758   0.778   0.516   4.587  1.8767 -1.0462  0.0856
11781TIP3    H256759   0.852   0.534   4.718 -0.6036  0.6358  1.3032
11782TIP3   OH256760   3.748   1.116   0.791  0.3991  0.0532  0.4742
11782TIP3    H156761   3.717   1.027   0.778  1.5556 -0.3816  0.6464
11782TIP3    H256762   3.830   1.121   0.743 -0.0216  1.2659 -0.1698
11783TIP3   OH256763   1.601   0.278   0.727 -0.4113  0.2113 -0.2033
11783TIP3    H156764   1.547   0.276   0.648  1.1376  0.2760 -1.3030
11783TIP3    H256765   1.666   0.346   0.709 -0.1621  0.3515  1.2095
11784TIP3   OH256766   1.301   1.553  15.676  0.3683  0.1276  0.0038
11784TIP3    H156767   1.281   1.489  15.608 -1.2167  0.0072  0.5487
11784TIP3    H256768   1.218   1.563  15.724  1.0891  1.2327  1.0448
11785TIP3   OH256769   4.589   1.357  15.010  0.6477  0.3102 -0.2834
11785TIP3    H156770   4.593   1.426  14.944  1.1636 -0.6202 -1.2431
11785TIP3    H256771   4.529   1.391  15.077  0.9078  1.6826 -0.7349
11786TIP3   OH256772   1.471   4.330   3.311  0.1460  0.0405  0.0750
11786TIP3    H156773   1.379   4.355   3.297  0.4929 -0.3477 -3.3126
11786TIP3    H256774   1.519   4.412   3.312 -0.3832  0.3613  3.5066
11787TIP3   OH256775   6.442   1.545  12.212 -0.0713  0.3250 -0.1593
11787TIP3    H156776   6.363   1.564  12.262  1.0371  1.9376  1.0465
11787TIP3    H256777   6.432   1.454  12.184 -1.1151 -0.3412  2.2724
11788TIP3   OH256778   0.614   0.504  16.973  0.5086  0.5765 -0.1534
11788TIP3    H156779   0.599   0.587  17.017 -0.7164  0.0002  0.5485
11788TIP3    H256780   0.538   0.451  16.996  0.4792 -0.1780 -1.9175
11789TIP3   OH256781   0.513   6.202  13.320  0.4388 -0.4562  0.9667
11789TIP3    H156782   0.470   6.127  13.361  2.2132 -1.1845  1.5254
11789TIP3    H256783   0.525   6.266  13.390 -0.0974 -0.0685  0.7157
11790TIP3   OH256784   1.767   4.803  16.614 -0.1722  0.1541 -0.3298
11790TIP3    H156785   1.680   4.765  16.625  1.3985 -3.0650  1.7901
11790TIP3    H256786   1.772   4.826  16.521 -2.3338 -2.0018 -1.0243
11791TIP3   OH256787   4.068   5.325   2.062  0.6934 -0.5973  0.3084
11791TIP3    H156788   4.152   5.362   2.090  0.6123  0.6783 -1.0530
11791TIP3    H256789   4.088   5.285   1.977 -0.0571 -0.3382  0.0115
11792TIP3   OH256790   2.724   0.174   0.462  0.1162  0.0834 -0.8084
11792TIP3    H156791   2.656   0.154   0.398 -0.0462 -1.3095 -0.2259
11792TIP3    H256792   2.763   0.256   0.432 -0.7222  0.0337 -2.0450
11793TIP3   OH256793   2.672   5.478   0.288  0.2586 -0.1325 -0.7019
11793TIP3    H156794   2.578   5.459   0.291  0.0247  0.5735 -2.6732
11793TIP3    H256795   2.681   5.563   0.330  0.4870 -1.6853  2.5156
11794TIP3   OH256796   3.231   5.814  15.373 -0.1167 -0.0649 -0.5838
11794TIP3    H156797   3.183   5.746  15.325  2.8220 -1.4149 -1.7445
11794TIP3    H256798   3.291   5.765  15.429 -0.8665  1.5675  1.6978
11795TIP3   OH256799   5.126   5.235  12.633 -0.3575  0.7137  0.1666
11795TIP3    H156800   5.031   5.235  12.622 -0.4189  0.8626  0.6762
11795TIP3    H256801   5.159   5.176  12.565 -0.9632 -0.9979  1.3491
11796TIP3   OH256802   6.572   3.245   4.188 -0.6138  0.2063 -0.1032
11796TIP3    H156803   6.660   3.215   4.165 -0.1392  1.1284  0.4922
11796TIP3    H256804   6.575   3.261   4.282 -1.6788 -0.5935  0.0831
11797TIP3   OH256805   0.583   6.653  13.602 -0.1502 -0.4850  0.7957
11797TIP3    H156806   0.664   6.681  13.646  0.8104 -0.2634 -1.0491
11797TIP3    H256807   0.555   6.730  13.553 -1.0632 -0.7979  0.8291
11798TIP3   OH256808   3.916   2.500   5.000  0.0498 -0.2723  0.2765
11798TIP3    H156809   3.959   2.415   5.003 -1.3918 -0.9499  3.3030
11798TIP3    H256810   3.839   2.490   5.056 -0.3414  2.9115  0.3920
11799TIP3   OH256811   6.689   6.564   4.289  0.3070  0.0735  0.2777
11799TIP3    H156812   6.784   6.569   4.282  0.3980 -0.5470  1.0155
11799TIP3    H256813   6.671   6.472   4.309 -0.4515  0.1781  0.1009
11800TIP3   OH256814   4.067   6.386   3.041 -0.1822  0.9137 -0.4745
11800TIP3    H156815   4.013   6.455   3.081 -0.9332 -0.6035  1.1831
11800TIP3    H256816   4.149   6.388   3.091 -0.4841  0.1106  0.0489
11801TIP3   OH256817   2.781   6.510  16.617  0.0815 -0.2640 -0.0716
11801TIP3    H156818   2.799   6.458  16.695  1.5591 -0.8345 -0.7741
11801TIP3    H256819   2.691   6.487  16.594  0.2531 -1.4960  0.4191
11802TIP3   OH256820   3.679   6.308   0.118 -1.0246 -0.1949  0.8408
11802TIP3    H156821   3.697   6.366   0.044 -3.0417 -2.6128 -1.6375
11802TIP3    H256822   3.598   6.344   0.156 -1.6900 -0.7305 -0.0457
11803TIP3   OH256823   3.130   2.530   0.479  0.5141  0.3006  0.1105
11803TIP3    H156824   3.206   2.569   0.437  0.0794  1.0895  0.0413
11803TIP3    H256825   3.057   2.586   0.454  0.3634  1.2924  2.5836
11804TIP3   OH256826   3.432   1.256  15.531 -0.1797 -0.2396 -0.3909
11804TIP3    H156827   3.451   1.206  15.452  0.7677  0.4245 -0.6020
11804TIP3    H256828   3.347   1.297  15.515 -0.2506 -0.5617 -0.8238
11805TIP3   OH256829   2.826   1.768   0.655  0.0828  0.5992  0.3566
11805TIP3    H156830   2.816   1.825   0.579 -2.5651 -0.6839 -0.3191
11805TIP3    H256831   2.812   1.825   0.730  1.3322  1.5910 -0.1506
11806TIP3   OH256832   5.424   0.011   4.462  0.0221  0.3038 -0.8310
11806TIP3    H156833   5.439  -0.078   4.492  0.4126  0.4139 -0.6883
11806TIP3    H256834   5.330   0.024   4.469 -0.0534 -0.1484 -0.9984
11807TIP3   OH256835   2.634   4.440  16.423 -0.2945 -0.1708  0.4018
11807TIP3    H156836   2.698   4.428  16.493 -0.0134  0.8280  0.3142
11807TIP3    H256837   2.642   4.532  16.398 -0.8135 -0.3748 -0.5361
11808TIP3   OH256838   1.793   6.037  13.036 -0.1369  0.0156 -0.0934
11808TIP3    H156839   1.749   6.047  13.120  0.7545  3.1364  0.0648
11808TIP3    H256840   1.724   6.008  12.976 -1.7619  1.9292  0.7850
11809TIP3   OH256841   4.535   6.599   4.721 -0.6274  0.0475  0.0534
11809TIP3    H156842   4.471   6.556   4.779  0.5650  0.2161  1.5319
11809TIP3    H256843   4.489   6.676   4.688 -1.6636 -0.5867 -0.0024
11810TIP3   OH256844   5.260   4.117   2.931 -0.8397 -0.3351 -0.4416
11810TIP3    H156845   5.313   4.192   2.902 -0.0183 -1.2107 -1.2570
11810TIP3    H256846   5.180   4.156   2.964 -1.1150  0.8275 -2.3912
11811TIP3   OH256847   2.867   0.894  10.545  0.3607  0.1975  0.7536
11811TIP3    H156848   2.866   0.824  10.481 -0.1232  0.8425  0.0466
11811TIP3    H256849   2.954   0.932  10.539  0.4831 -0.0634  0.8445
11812TIP3   OH256850   1.448   2.949  12.496  0.1206 -0.0149  0.7258
11812TIP3    H156851   1.511   2.880  12.475 -2.3306 -1.6934 -1.5714
11812TIP3    H256852   1.378   2.905  12.544 -1.2362  0.9204 -0.3133
11813TIP3   OH256853   4.230   4.562  12.535  0.0153  0.4576  0.0585
11813TIP3    H156854   4.197   4.517  12.458 -2.7937  1.3107  0.7234
11813TIP3    H256855   4.194   4.650  12.529  0.3331  0.7407  1.9969
11814TIP3   OH256856   0.875   3.275  13.085  0.1339 -0.5250  1.3987
11814TIP3    H156857   0.896   3.260  12.992 -2.3882 -0.5327  0.7984
11814TIP3    H256858   0.927   3.210  13.132  1.8028 -0.2164  0.0260
11815TIP3   OH256859   1.245   2.704  11.045  0.1612 -0.4320 -0.4252
11815TIP3    H156860   1.231   2.625  10.993 -0.8190 -1.8446  1.9206
11815TIP3    H256861   1.157   2.732  11.071  0.5760  0.8091 -0.2940
11816TIP3   OH256862   4.521   1.450   4.818  0.6982  0.1107 -0.5378
11816TIP3    H156863   4.590   1.388   4.841  1.0527  0.0539 -1.7366
11816TIP3    H256864   4.440   1.400   4.826  0.8330  0.0111  0.2819
11817TIP3   OH256865   4.892   3.553  14.156  0.1680 -0.1126  0.5477
11817TIP3    H156866   4.850   3.545  14.241 -0.9669  1.2955  0.1296
11817TIP3    H256867   4.970   3.497  14.163  0.1337  0.0464  2.5211
11818TIP3   OH256868   2.063   5.423  17.175  0.0049  0.1178  0.0174
11818TIP3    H156869   1.972   5.428  17.146  0.1476 -3.1802 -1.1604
11818TIP3    H256870   2.101   5.506  17.145 -2.0324  0.5492 -1.5109
11819TIP3   OH256871   6.287   3.592  11.079 -0.4864  0.4512 -0.1102
11819TIP3    H156872   6.291   3.645  11.158  0.1674  0.6196 -0.2549
11819TIP3    H256873   6.198   3.556  11.079 -0.6510  0.8517  0.4344
11820TIP3   OH256874   1.344   2.018   4.605 -0.4545  0.7280 -0.6736
11820TIP3    H156875   1.410   2.057   4.548  1.2711  0.5452  1.1518
11820TIP3    H256876   1.340   1.926   4.577  0.0879  0.7329 -0.7727
11821TIP3   OH256877   4.424   6.436  15.355 -0.2858 -0.1777  0.2636
11821TIP3    H156878   4.367   6.424  15.279 -0.4840  0.7209  0.2615
11821TIP3    H256879   4.476   6.513  15.333  2.0482 -1.8951 -0.4204
11822TIP3   OH256880   2.846   3.668  15.157 -0.4038  0.6145 -0.0184
11822TIP3    H156881   2.899   3.642  15.233  2.0819  1.3810 -1.4464
11822TIP3    H256882   2.809   3.753  15.182 -1.6948 -0.3205  1.3222
11823TIP3   OH256883   1.723   1.545  13.755 -0.0397 -0.1429  0.3049
11823TIP3    H156884   1.737   1.639  13.767  0.2379  0.0161 -1.1721
11823TIP3    H256885   1.678   1.518  13.834 -0.1752  1.2559  0.7299
11824TIP3   OH256886   4.734   3.567   0.642  0.0703 -0.2682  0.5625
11824TIP3    H156887   4.750   3.624   0.717  0.7724 -1.5580  1.4243
11824TIP3    H256888   4.647   3.590   0.612 -0.0048  0.6381  1.4444
11825TIP3   OH256889   1.226   0.104  11.962  0.1622 -0.1295  0.0732
11825TIP3    H156890   1.216   0.199  11.953 -1.2458 -0.3401 -0.7528
11825TIP3    H256891   1.269   0.078  11.880  1.6291 -0.0752  0.8000
11826TIP3   OH256892   1.632   0.219   2.144  0.3360 -0.4226  0.3528
11826TIP3    H156893   1.666   0.217   2.054  2.1656 -1.3189  1.0308
11826TIP3    H256894   1.625   0.126   2.168  1.8263 -0.1709  1.8290
11827TIP3   OH256895   2.972   6.753  16.276 -0.0924 -0.5025 -0.0698
11827TIP3    H156896   2.926   6.672  16.297  0.1193 -0.2630  1.3539
11827TIP3    H256897   3.045   6.755  16.337 -0.0048  0.6825 -0.2132
11828TIP3   OH256898   4.517   4.030  11.772 -0.3321  0.0778 -0.2499
11828TIP3    H156899   4.547   3.980  11.848  2.3486 -0.0482 -1.3530
11828TIP3    H256900   4.441   3.981  11.739 -1.8063  0.3734  2.5508
11829TIP3   OH256901   4.662   5.067  16.644  0.3896 -0.3960  0.1949
11829TIP3    H156902   4.599   5.139  16.638  0.0126 -0.5624  1.7657
11829TIP3    H256903   4.610   4.993  16.677  1.3763 -0.5473  1.4357
11830TIP3   OH256904   5.557   5.700   6.589  0.1844  0.0472 -0.1321
11830TIP3    H156905   5.586   5.610   6.605  0.7795  0.2828  0.1303
11830TIP3    H256906   5.474   5.690   6.543 -1.5272 -0.6489  2.9291
11831TIP3   OH256907   5.449   4.821   0.348 -0.1147 -0.6161  0.5249
11831TIP3    H156908   5.502   4.773   0.284 -1.6938 -2.0147  0.2465
11831TIP3    H256909   5.445   4.764   0.424  1.6740  1.0055  1.8889
11832TIP3   OH256910   1.488   4.333  12.588 -0.4765 -0.0216 -0.0282
11832TIP3    H156911   1.573   4.326  12.546  0.1921 -1.9076  1.5767
11832TIP3    H256912   1.425   4.330  12.516  0.6984 -1.7644 -0.9988
11833TIP3   OH256913   0.456   2.031  12.149  0.3783 -0.4616  0.0731
11833TIP3    H156914   0.535   1.997  12.191  0.4041 -0.3374  0.1227
11833TIP3    H256915   0.462   2.126  12.159  0.2664 -0.4471 -0.0004
11834TIP3   OH256916   5.115   6.423  15.479 -0.1760  0.6439  0.5072
11834TIP3    H156917   5.021   6.410  15.493 -0.1651  1.6112  1.5143
11834TIP3    H256918   5.157   6.352  15.528 -0.4040 -0.7310 -1.2003
11835TIP3   OH256919   1.904   3.205   3.355  0.1468 -0.1872 -0.6780
11835TIP3    H156920   1.921   3.269   3.285 -0.3254  0.8929  0.1776
11835TIP3    H256921   1.887   3.259   3.433  2.0793 -1.3605  0.6187
11836TIP3   OH256922   1.730   6.196   2.952  0.1075  0.5094 -0.2209
11836TIP3    H156923   1.785   6.165   3.024 -1.4900 -0.9645  0.4357
11836TIP3    H256924   1.731   6.291   2.959 -1.0900  0.3561  2.6184
11837TIP3   OH256925   1.709   4.771   4.426 -0.0545 -0.1675  0.3691
11837TIP3    H156926   1.712   4.865   4.444 -0.7593  0.4631 -2.5071
11837TIP3    H256927   1.752   4.761   4.341  0.4040 -2.5162  0.8308
11838TIP3   OH256928   1.924   1.608   0.141  0.0626 -0.3191  0.4856
11838TIP3    H156929   1.843   1.621   0.092  1.1984  0.5242 -1.2320
11838TIP3    H256930   1.952   1.519   0.119 -0.0378 -0.3649  0.5429
11839TIP3   OH256931   5.609   0.133  10.185  0.3326  0.5958  0.0941
11839TIP3    H156932   5.553   0.206  10.214 -0.2285 -0.0444  0.6603
11839TIP3    H256933   5.698   0.166  10.192  0.0390  1.5140 -0.4663
11840TIP3   OH256934   3.029   4.955  15.846  0.0538 -0.3725  0.3551
11840TIP3    H156935   3.046   4.945  15.939 -0.6424  1.3691  0.6948
11840TIP3    H256936   3.096   5.015  15.815 -1.3783  1.2644  0.3351
11841TIP3   OH256937   4.715   0.708   0.382  0.3682 -0.2523 -0.0630
11841TIP3    H156938   4.765   0.755   0.315  2.4900  0.8866  2.2622
11841TIP3    H256939   4.625   0.709   0.349  1.1048  1.5720 -2.1854
11842TIP3   OH256940   1.338   3.543   0.281  0.3146 -0.3019 -0.2706
11842TIP3    H156941   1.312   3.480   0.214  0.5817  0.0169 -0.6836
11842TIP3    H256942   1.270   3.538   0.348 -0.6549  0.3177 -1.2004
11843TIP3   OH256943   0.024   3.172  13.907  0.2291  0.0169  0.6222
11843TIP3    H156944  -0.008   3.262  13.908  1.8673  0.6332 -0.1050
11843TIP3    H256945   0.104   3.176  13.855 -0.7890 -2.2306 -1.2314
11844TIP3   OH256946   6.090   0.482   6.160 -0.0380 -0.4534 -0.4485
11844TIP3    H156947   6.025   0.417   6.187 -0.3552 -0.0100 -0.1317
11844TIP3    H256948   6.172   0.449   6.196 -0.4818  0.1954  1.1908
11845TIP3   OH256949   2.967   5.365   1.177 -0.7174  0.1557  0.2622
11845TIP3    H156950   2.886   5.314   1.173 -1.0973  0.7842 -0.1150
11845TIP3    H256951   3.030   5.314   1.126 -1.3802  0.5646 -0.9736
11846TIP3   OH256952   4.568   3.074  12.238 -0.0101  0.2473  0.5889
11846TIP3    H156953   4.653   3.039  12.212  0.4735  0.6075  1.6551
11846TIP3    H256954   4.514   2.996  12.253  0.1207  0.0194 -0.0927
11847TIP3   OH256955   5.504   2.314  16.172 -1.6218 -0.7230 -0.3597
11847TIP3    H156956   5.453   2.334  16.250  0.1193 -0.6594  0.7859
11847TIP3    H256957   5.526   2.399  16.135 -0.6104 -0.6842  0.3076
11848TIP3   OH256958   6.443   3.826  16.427 -0.8334 -0.7750 -0.0713
11848TIP3    H156959   6.348   3.830  16.415 -0.6431 -2.1581 -2.2655
11848TIP3    H256960   6.478   3.814  16.339  1.4041 -0.1608  0.6939
11849TIP3   OH256961   5.959   3.258  14.501 -0.2197 -0.2660 -0.9480
11849TIP3    H156962   6.048   3.226  14.487  0.7967  2.2802 -0.5567
11849TIP3    H256963   5.959   3.288  14.592 -1.8506 -1.3291 -0.5791
11850TIP3   OH256964   1.631   0.685  10.834  0.3617  0.4997 -0.0020
11850TIP3    H156965   1.550   0.734  10.849  0.3932  0.4130  0.4539
11850TIP3    H256966   1.700   0.752  10.837  0.1727  0.7854 -1.8328
11851TIP3   OH256967   1.879   5.292   6.366  0.3994 -0.3493  0.2572
11851TIP3    H156968   1.872   5.289   6.461  1.1972 -0.3715  0.3198
11851TIP3    H256969   1.951   5.352   6.348  2.1915 -2.5679 -0.2258
11852TIP3   OH256970   5.782   2.991   2.204 -0.3655 -0.0477  0.0826
11852TIP3    H156971   5.757   3.054   2.137 -2.9023 -0.3435  0.7032
11852TIP3    H256972   5.809   3.045   2.279 -3.4764  0.3859  0.9646
11853TIP3   OH256973   2.970   3.407   3.264 -0.2244  0.0510  0.0780
11853TIP3    H156974   3.015   3.485   3.232  2.2879 -0.7830  1.4301
11853TIP3    H256975   2.962   3.421   3.359  1.4579 -1.8526  0.5491
11854TIP3   OH256976   5.385   2.913   2.323 -0.7636 -0.1170  0.1901
11854TIP3    H156977   5.423   2.994   2.290  0.9362 -0.2766  1.6802
11854TIP3    H256978   5.414   2.846   2.261  1.3206 -0.2205  1.2624
11855TIP3   OH256979   5.093   0.492  14.952  0.0300  0.6171 -0.2337
11855TIP3    H156980   5.171   0.527  14.909  0.5423  1.3318  1.2528
11855TIP3    H256981   5.127   0.436  15.022 -0.7869  1.6871  1.0280
11856TIP3   OH256982   0.182   6.513   1.175  0.0530 -0.0770  0.0025
11856TIP3    H156983   0.177   6.467   1.258  0.6683 -0.1211  0.0238
11856TIP3    H256984   0.176   6.606   1.198  1.2572 -0.0352  0.2103
11857TIP3   OH256985   6.288   5.022  13.330 -0.8104 -0.2506  0.0637
11857TIP3    H156986   6.360   5.000  13.271 -0.4338  1.9896 -0.3644
11857TIP3    H256987   6.215   5.044  13.271 -1.7247 -2.0078  0.4909
11858TIP3   OH256988   2.685   2.999   0.382  0.1486  0.0090 -0.2846
11858TIP3    H156989   2.670   3.084   0.425 -0.1235  1.6033 -3.4120
11858TIP3    H256990   2.607   2.985   0.329  1.5810 -0.6644 -2.2575
11859TIP3   OH256991   2.667   3.004  14.052 -0.3983 -0.0056  0.2629
11859TIP3    H156992   2.665   3.028  13.959 -1.5966 -1.2606 -0.0543
11859TIP3    H256993   2.575   3.006  14.080 -0.0030  0.8525  1.5669
11860TIP3   OH256994   4.733   4.039  14.900 -0.1788  0.0232 -1.0182
11860TIP3    H156995   4.780   3.963  14.867 -0.0064  0.5685 -2.0400
11860TIP3    H256996   4.745   4.106  14.833  0.5790  1.3076  0.3548
11861TIP3   OH256997   4.811   2.040   0.888 -0.2645 -0.3660 -0.0644
11861TIP3    H156998   4.803   2.020   0.981 -0.2827  0.1405  0.0447
11861TIP3    H256999   4.806   1.955   0.844 -1.3250 -0.5027  0.3249
11862TIP3   OH257000   1.270   4.466   4.428 -0.1269  0.2423  0.4164
11862TIP3    H157001   1.332   4.526   4.470 -0.1861  0.9163 -0.4451
11862TIP3    H257002   1.220   4.521   4.367 -1.5620 -0.2954  1.0776
11863TIP3   OH257003   5.503   5.380   0.467  0.3768 -0.1215  0.0947
11863TIP3    H157004   5.495   5.311   0.402 -0.2498 -1.0537  1.1551
11863TIP3    H257005   5.596   5.380   0.490  0.5623  0.0743 -0.6427
11864TIP3   OH257006   5.467   4.373  13.038  0.0703 -0.2303  0.8120
11864TIP3    H157007   5.497   4.283  13.033 -0.5531 -0.5071  1.7697
11864TIP3    H257008   5.546   4.424  13.053  0.4934 -0.5566 -0.2951
11865TIP3   OH257009   5.484   2.076   5.290  0.0242  0.5186  0.2591
11865TIP3    H157010   5.531   1.998   5.261 -0.6853  0.4412 -0.7044
11865TIP3    H257011   5.485   2.071   5.385 -0.1956 -0.7725  0.2022
11866TIP3   OH257012   2.174   3.791  13.311  0.1923  0.0025 -0.3216
11866TIP3    H157013   2.146   3.701  13.296  1.9122 -0.7030  0.6733
11866TIP3    H257014   2.251   3.802  13.254  0.7518  0.4383  0.5189
11867TIP3   OH257015   4.333   4.634  12.002 -0.5838  0.0656 -0.8380
11867TIP3    H157016   4.257   4.640  12.061 -0.4216  2.9718 -0.8583
11867TIP3    H257017   4.298   4.596  11.922 -1.4869 -0.9730  0.0387
11868TIP3   OH257018   0.907   2.010  14.348  0.1660 -0.1695  0.0950
11868TIP3    H157019   0.958   1.929  14.358  0.5133  0.0956  0.4969
11868TIP3    H257020   0.842   2.006  14.417 -0.2942 -0.4556 -0.3505
11869TIP3   OH257021   4.660   2.265  16.627  0.0674  0.2763 -0.7507
11869TIP3    H157022   4.676   2.216  16.708 -1.2761 -1.1636 -1.3200
11869TIP3    H257023   4.658   2.356  16.655 -1.9158 -0.2931  1.1210
11870TIP3   OH257024   5.850   1.526  17.048 -0.0708  0.2359 -0.4427
11870TIP3    H157025   5.776   1.565  17.003 -0.0635  0.6198 -0.1242
11870TIP3    H257026   5.891   1.599  17.095  1.7805  0.4597 -2.3367
11871TIP3   OH257027   5.225   6.783   5.587 -0.1761 -0.0447 -0.0178
11871TIP3    H157028   5.195   6.692   5.588 -0.4864  0.0502  2.5579
11871TIP3    H257029   5.153   6.832   5.548 -0.8168 -0.6281  0.4382
11872TIP3   OH257030   3.890   4.267   2.526 -0.1384  0.6261 -0.0230
11872TIP3    H157031   3.853   4.347   2.487  0.8274  0.7556 -0.7028
11872TIP3    H257032   3.983   4.287   2.537  0.0951 -0.3763 -0.1215
11873TIP3   OH257033   1.546   2.377  12.271  0.3610  0.0773 -0.4104
11873TIP3    H157034   1.473   2.410  12.219 -0.0580  0.6051  0.5001
11873TIP3    H257035   1.505   2.345  12.352  0.9163 -1.3837 -0.6970
11874TIP3   OH257036   6.381   3.812  11.274  0.0455  0.2986  0.6197
11874TIP3    H157037   6.418   3.887  11.321  0.7250  1.8040 -2.2424
11874TIP3    H257038   6.447   3.789  11.209 -0.5577 -2.2259  0.8451
11875TIP3   OH257039   2.300   3.664  16.662 -0.3777 -0.3345  0.2171
11875TIP3    H157040   2.226   3.722  16.648 -0.9808 -0.5383  2.3429
11875TIP3    H257041   2.354   3.709  16.727  0.7083 -0.7690 -0.3709
11876TIP3   OH257042   3.988   4.280  12.134 -0.4123  0.2208 -0.4374
11876TIP3    H157043   3.942   4.202  12.102 -1.4339  0.5371  0.2452
11876TIP3    H257044   3.953   4.351  12.081 -2.5765  0.8453  1.7916
11877TIP3   OH257045   1.748   3.149   5.972  0.0314  0.5466  0.2943
11877TIP3    H157046   1.695   3.080   5.931  0.1442  0.5059  0.2131
11877TIP3    H257047   1.691   3.225   5.975 -0.1916  0.3649  0.6566
11878TIP3   OH257048   6.040   3.288  16.616  0.2731 -0.2787 -0.1213
11878TIP3    H157049   6.030   3.194  16.632 -1.1635 -0.0310  0.4599
11878TIP3    H257050   6.050   3.326  16.703 -0.2952  0.2467 -0.2876
11879TIP3   OH257051   5.754   1.882   5.955 -0.1323  0.1622  0.5914
11879TIP3    H157052   5.677   1.850   5.909  1.2069  1.0947 -2.3897
11879TIP3    H257053   5.828   1.856   5.900  1.4966  1.6688  2.0016
11880TIP3   OH257054   6.222   6.774   2.418  0.5070 -0.1551  0.2707
11880TIP3    H157055   6.286   6.703   2.424  1.0591  0.4441  1.9820
11880TIP3    H257056   6.275   6.853   2.413 -0.0413  0.4324  2.7951
11881TIP3   OH257057   2.787   1.136  16.843  0.0061 -0.2891  0.6930
11881TIP3    H157058   2.763   1.058  16.794 -0.6613  0.1883  0.2460
11881TIP3    H257059   2.790   1.206  16.777  0.8011  0.0198  1.0482
11882TIP3   OH257060   4.407   2.700   0.888 -0.4165  0.5549  0.0805
11882TIP3    H157061   4.327   2.733   0.847 -0.0695  2.8131  1.0999
11882TIP3    H257062   4.433   2.626   0.834 -1.8515  1.3165 -1.7329
11883TIP3   OH257063   3.920   3.747  13.043  0.1424 -0.0127  0.1905
11883TIP3    H157064   4.010   3.751  13.011 -0.2761  0.2085 -0.9842
11883TIP3    H257065   3.867   3.779  12.970 -0.7509  1.6431  1.5146
11884TIP3   OH257066   5.267   6.710  16.850  0.2509  0.0638 -0.2614
11884TIP3    H157067   5.334   6.737  16.788 -0.8084 -0.2199 -1.5553
11884TIP3    H257068   5.281   6.616  16.863 -1.1118 -0.4280 -2.1000
11885TIP3   OH257069   2.792   0.674   1.508  0.5212  0.0958 -0.6549
11885TIP3    H157070   2.841   0.726   1.444 -0.9802  0.4276 -1.5460
11885TIP3    H257071   2.801   0.722   1.590  2.3016 -0.2358 -0.6339
11886TIP3   OH257072   1.380   2.504   1.023  0.4963  0.0475  0.1603
11886TIP3    H157073   1.439   2.509   1.098 -0.7678 -1.8084  1.2946
11886TIP3    H257074   1.392   2.415   0.988  1.8126  1.1866 -2.4870
11887TIP3   OH257075   6.616   3.541  11.312  0.5685  0.4159 -0.2718
11887TIP3    H157076   6.659   3.624  11.333 -1.2420  1.4203 -0.5052
11887TIP3    H257077   6.656   3.515  11.229  0.8113  1.2935 -0.4444
11888TIP3   OH257078   0.875   5.013  15.370  0.2549  0.3554  0.3306
11888TIP3    H157079   0.894   5.028  15.278  2.0493  0.2493  0.6655
11888TIP3    H257080   0.959   5.024  15.414 -0.1197 -1.8769  1.6795
11889TIP3   OH257081   5.925   5.168   2.114 -0.8029  0.0954 -0.1930
11889TIP3    H157082   5.868   5.099   2.079 -1.0377  0.0364  0.3056
11889TIP3    H257083   5.865   5.242   2.131 -0.8488 -0.2010  0.9778
11890TIP3   OH257084   5.028   4.858   1.947  0.4826 -0.5474  0.1489
11890TIP3    H157085   5.033   4.795   2.018  1.3175 -0.5169  0.1297
11890TIP3    H257086   5.119   4.872   1.922  0.2068 -0.3808 -0.7703
11891TIP3   OH257087   3.315   4.352   0.984  0.0798 -0.5687  0.0420
11891TIP3    H157088   3.371   4.359   1.061  0.0979 -1.3496  0.1023
11891TIP3    H257089   3.252   4.283   1.006  0.2851 -1.0167 -0.7586
11892TIP3   OH257090   5.246   1.161  15.969  0.5804  0.3205 -0.2455
11892TIP3    H157091   5.303   1.092  16.004  0.6834  0.3651 -0.3250
11892TIP3    H257092   5.303   1.213  15.913  0.3555  0.0783 -0.7078
11893TIP3   OH257093   5.604   5.028   2.802  0.4395  0.1994 -0.1852
11893TIP3    H157094   5.570   5.118   2.800 -0.2516 -0.0932 -2.1844
11893TIP3    H257095   5.625   5.008   2.711 -0.0815 -1.9435  0.1389
11894TIP3   OH257096   4.562   5.526  12.348 -0.1981 -0.0951 -0.5475
11894TIP3    H157097   4.639   5.545  12.296  0.5315 -0.3026  0.4340
11894TIP3    H257098   4.581   5.443  12.391 -0.9268 -0.1115 -0.2421
11895TIP3   OH257099   0.213   2.119  13.746  0.5445 -0.3789 -0.4524
11895TIP3    H157100   0.262   2.040  13.767  1.0508  0.3068  1.0466
11895TIP3    H257101   0.274   2.174  13.699  0.9833  0.1262  0.6771
11896TIP3   OH257102   5.648   3.807  14.704  0.2534  0.2397 -0.2368
11896TIP3    H157103   5.639   3.852  14.788  1.5950 -1.0318  0.6258
11896TIP3    H257104   5.567   3.757  14.694  0.8801 -1.1603  1.2976
11897TIP3   OH257105   3.145   3.122   5.058  0.2441 -0.3727  0.1176
11897TIP3    H157106   3.184   3.197   5.012 -0.5235 -0.9223 -1.4364
11897TIP3    H257107   3.108   3.160   5.137  1.0477  0.6802  0.0054
11898TIP3   OH257108   4.547   0.354   1.714 -0.0655 -0.1177 -0.3574
11898TIP3    H157109   4.621   0.373   1.657 -0.2173  0.2004 -0.4542
11898TIP3    H257110   4.477   0.326   1.655 -0.0885 -0.2100 -0.2867
11899TIP3   OH257111   6.018   5.225   1.744  0.2971 -0.1237  0.6823
11899TIP3    H157112   5.956   5.171   1.696 -1.0914  0.0283  2.2816
11899TIP3    H257113   6.057   5.166   1.809  0.0856  0.3518  1.2496
11900TIP3   OH257114   4.015   1.065  13.304  0.3822  0.2842  0.1644
11900TIP3    H157115   4.014   1.132  13.372  1.3466  0.7104 -0.2362
11900TIP3    H257116   3.950   1.001  13.332  0.0259  0.9900  0.9497
11901TIP3   OH257117   5.550   0.383   4.165 -0.3052 -0.5562 -0.6329
11901TIP3    H157118   5.543   0.473   4.197 -0.1787 -0.8938  0.3745
11901TIP3    H257119   5.475   0.338   4.204  0.7185 -1.3402  0.4518
11902TIP3   OH257120   0.033   6.698  11.095 -0.0092  0.0754 -0.6552
11902TIP3    H157121   0.068   6.612  11.073  0.8059  0.2301  0.0110
11902TIP3    H257122  -0.061   6.684  11.107  0.0799 -0.6667 -0.8409
11903TIP3   OH257123   2.336   1.024   4.415  0.0503 -0.1520 -0.0220
11903TIP3    H157124   2.253   0.977   4.426 -0.2359  0.6140  1.1311
11903TIP3    H257125   2.400   0.955   4.399 -0.9240 -0.7005 -1.6501
11904TIP3   OH257126   6.099   1.966   4.992 -0.0900  0.1006  0.5764
11904TIP3    H157127   6.165   1.929   5.051  0.8652 -0.1174 -0.5931
11904TIP3    H257128   6.016   1.927   5.020  0.3762 -0.1309  1.6525
11905TIP3   OH257129   3.819   4.964  12.796 -0.1594 -0.6435  0.2506
11905TIP3    H157130   3.741   5.010  12.826  1.1095  0.7129  1.5850
11905TIP3    H257131   3.841   5.005  12.712 -0.4876 -0.5772  0.1985
11906TIP3   OH257132   2.380   3.344   0.980  0.2038 -0.3124  0.0631
11906TIP3    H157133   2.453   3.405   0.991  0.1667 -0.0294 -1.1567
11906TIP3    H257134   2.402   3.295   0.901 -1.1125  0.0440 -0.5346
11907TIP3   OH257135   1.344   2.878   1.785  0.5459  0.0578  0.1955
11907TIP3    H157136   1.347   2.868   1.690 -0.9902 -3.6719  0.4403
11907TIP3    H257137   1.287   2.953   1.800 -2.4855 -1.7036 -1.8480
11908TIP3   OH257138   6.305   2.541   3.826  0.0567  0.3648 -0.0499
11908TIP3    H157139   6.273   2.631   3.825 -1.7570 -0.2087  1.2592
11908TIP3    H257140   6.289   2.512   3.916 -1.5700 -1.9631 -1.0289
11909TIP3   OH257141   1.481   5.953   1.535 -0.1129  0.0546 -0.3044
11909TIP3    H157142   1.535   5.874   1.538  0.3906  0.3220 -1.9825
11909TIP3    H257143   1.440   5.951   1.449 -1.1680  0.9243  0.1660
11910TIP3   OH257144   4.115   0.282  13.579  0.0948  0.4340  0.0271
11910TIP3    H157145   4.076   0.335  13.510 -0.4145  0.1069  0.0579
11910TIP3    H257146   4.142   0.345  13.646  0.3139  0.7252 -0.3363
11911TIP3   OH257147   4.281   5.035   0.384 -0.1805  0.1064  0.2585
11911TIP3    H157148   4.359   4.981   0.392  1.7517  3.0600  2.4625
11911TIP3    H257149   4.310   5.112   0.335 -2.0495  0.6437 -0.0473
11912TIP3   OH257150   5.514   1.781  15.622  0.1893  0.1095 -0.0972
11912TIP3    H157151   5.537   1.873  15.609 -1.4115  0.5461 -0.0121
11912TIP3    H257152   5.467   1.780  15.706  2.1150 -1.1423  0.9898
11913TIP3   OH257153   2.497   0.735   1.260  0.7969 -0.0380 -0.5870
11913TIP3    H157154   2.425   0.702   1.207  1.9815 -0.3102 -2.0865
11913TIP3    H257155   2.536   0.657   1.299  1.0561 -0.0287 -0.8198
11914TIP3   OH257156   1.242   2.825  11.547 -0.0663 -0.2987 -0.3081
11914TIP3    H157157   1.173   2.862  11.602 -0.2411 -1.2147  0.1009
11914TIP3    H257158   1.288   2.901  11.512 -2.7391  0.3701 -2.4809
11915TIP3   OH257159   2.175   5.764  11.633  0.2137 -0.3525 -0.4390
11915TIP3    H157160   2.246   5.720  11.586  0.9725 -0.0156  0.3721
11915TIP3    H257161   2.216   5.796  11.713 -0.4716  1.3665 -0.7650
11916TIP3   OH257162   0.237   0.198  14.760 -0.1566 -0.0966  0.5019
11916TIP3    H157163   0.234   0.104  14.747  0.7450 -0.3557  2.0107
11916TIP3    H257164   0.234   0.209  14.855  3.8362  1.1950  0.5772
11917TIP3   OH257165   3.568   6.179  15.544  0.4718  0.4568  0.0047
11917TIP3    H157166   3.649   6.212  15.582 -0.4870  1.2634  1.3480
11917TIP3    H257167   3.532   6.253  15.496 -1.7903  1.4813  3.1972
11918TIP3   OH257168   5.794   1.814  15.710  0.0353 -0.4459 -0.1350
11918TIP3    H157169   5.711   1.793  15.753 -0.7372  0.2801 -1.2308
11918TIP3    H257170   5.859   1.762  15.756 -1.2129 -2.0017 -0.0647
11919TIP3   OH257171   1.481   6.318   1.838 -0.1862 -0.5509 -0.2850
11919TIP3    H157172   1.566   6.287   1.869  0.4351  0.2579 -1.1586
11919TIP3    H257173   1.483   6.304   1.744  0.4403  2.8545 -0.8393
11920TIP3   OH257174   6.094   2.161   2.928 -0.5506  0.0399 -0.1774
11920TIP3    H157175   6.080   2.098   2.999 -2.9319  0.7789  0.0622
11920TIP3    H257176   6.187   2.155   2.909 -0.5955 -3.1143  0.2407
11921TIP3   OH257177   0.061   4.174   3.782 -0.4173 -0.2201  0.0449
11921TIP3    H157178   0.108   4.170   3.699  0.2607  1.4970  0.3183
11921TIP3    H257179   0.018   4.259   3.782 -1.7532 -0.8684  0.7658
11922TIP3   OH257180   1.890   0.017   1.361  0.0730 -0.4744  0.4775
11922TIP3    H157181   1.922  -0.064   1.323 -1.0794 -1.2285  1.0924
11922TIP3    H257182   1.821   0.047   1.302 -1.9074 -1.7905  2.0492
11923TIP3   OH257183   3.284   3.023  11.519 -0.4778  0.1465  0.5075
11923TIP3    H157184   3.372   2.990  11.535  0.5250  1.3948 -2.0476
11923TIP3    H257185   3.276   3.098  11.577  0.7904  0.9962 -0.3729
11924TIP3   OH257186   5.675   4.327   4.658 -0.0618  0.4023 -0.5753
11924TIP3    H157187   5.663   4.277   4.739 -1.2219  3.0588  0.9447
11924TIP3    H257188   5.658   4.264   4.588 -1.7176 -1.2558  1.2824
11925TIP3   OH257189   6.089   0.754   1.370  0.2366 -0.3006  0.3916
11925TIP3    H157190   6.002   0.756   1.330  0.2590 -1.7520  0.2248
11925TIP3    H257191   6.080   0.805   1.451 -0.2570  1.1857 -0.5812
11926TIP3   OH257192   4.595   1.006  14.528  0.2017  0.9274  0.2479
11926TIP3    H157193   4.618   1.048  14.610  0.7547  1.0796  0.0142
11926TIP3    H257194   4.543   0.929  14.554 -1.4032  2.1100  0.6551
11927TIP3   OH257195   1.049   0.250   2.557  0.1943 -0.2744  0.2230
11927TIP3    H157196   1.090   0.332   2.529  0.1236  0.2538  1.6473
11927TIP3    H257197   1.111   0.182   2.532  0.4357  0.2399 -0.6009
11928TIP3   OH257198   0.246   2.510   5.130  0.5222  0.4038  0.2668
11928TIP3    H157199   0.336   2.486   5.149  0.2035 -1.9347 -0.9689
11928TIP3    H257200   0.218   2.447   5.064 -1.2530  2.6023 -1.1698
11929TIP3   OH257201   0.363   3.729   0.260  0.6144 -0.2755 -0.2101
11929TIP3    H157202   0.334   3.816   0.289 -0.5882 -1.0536  0.9570
11929TIP3    H257203   0.455   3.741   0.238  0.9288  0.9105  1.6299
11930TIP3   OH257204   6.623   2.260  12.273  0.1850  0.5489 -0.8281
11930TIP3    H157205   6.677   2.181  12.265 -1.3654 -0.6058 -0.1361
11930TIP3    H257206   6.659   2.305  12.350  0.6432  0.1600 -0.8103
11931TIP3   OH257207   2.960   3.616  13.243  0.1640 -0.0444 -0.2503
11931TIP3    H157208   2.969   3.623  13.148  2.3471  0.2623 -0.0524
11931TIP3    H257209   2.867   3.603  13.258 -0.1053 -0.8363 -2.4806
11932TIP3   OH257210   1.213   2.570  12.366 -0.0384 -0.2205  0.4848
11932TIP3    H157211   1.135   2.614  12.401 -1.0732 -1.7836  0.1905
11932TIP3    H257212   1.257   2.637  12.314 -0.2555  1.1801  2.0427
11933TIP3   OH257213   4.227   3.840   3.894 -0.1404  0.2163 -0.4533
11933TIP3    H157214   4.230   3.773   3.962 -1.7274 -0.3408 -0.9054
11933TIP3    H257215   4.147   3.889   3.911 -0.1878  0.5176 -1.4919
11934TIP3   OH257216   0.303   4.596   1.241 -0.3040  0.2591 -0.0674
11934TIP3    H157217   0.230   4.594   1.179  0.0743  1.3407 -0.5595
11934TIP3    H257218   0.288   4.521   1.298 -1.5831  0.2461 -0.4112
11935TIP3   OH257219   4.152   1.960   6.106  0.7919  0.7135 -0.3940
11935TIP3    H157220   4.244   1.939   6.125 -0.7932 -3.3011  3.9336
11935TIP3    H257221   4.124   1.892   6.045 -0.3311 -0.6354  1.5750
11936TIP3   OH257222   6.176   2.380   1.507  0.8907 -0.2926  0.3984
11936TIP3    H157223   6.117   2.434   1.559  0.0030 -0.4164 -0.4614
11936TIP3    H257224   6.240   2.441   1.471  2.3498 -0.4029  2.7548
11937TIP3   OH257225   6.767   1.074  14.330  0.0770  0.0359  0.3252
11937TIP3    H157226   6.746   1.152  14.278 -0.6214  0.1579  0.7826
11937TIP3    H257227   6.863   1.074  14.336  0.0137  2.0517  2.1218
11938TIP3   OH257228   3.280   4.323  14.430  0.2866  0.2705  0.0897
11938TIP3    H157229   3.242   4.384  14.367 -2.5948 -0.7955  0.7635
11938TIP3    H257230   3.223   4.328  14.507  1.7211 -1.0983  1.2828
11939TIP3   OH257231   3.195   5.476  14.835 -0.0061 -0.1634 -0.1392
11939TIP3    H157232   3.197   5.406  14.770 -2.5034  0.0726 -0.4840
11939TIP3    H257233   3.141   5.441  14.906 -0.2812  0.9608  0.2133
11940TIP3   OH257234   5.212   2.250   6.005 -0.1485  0.4939 -0.1636
11940TIP3    H157235   5.187   2.257   6.097  0.6976 -2.1136  0.3177
11940TIP3    H257236   5.141   2.201   5.965  0.3585  0.0142 -0.4862
11941TIP3   OH257237   0.626   5.122   5.431  0.9532  0.0958  0.5038
11941TIP3    H157238   0.534   5.128   5.406  0.9025  0.2100  0.7172
11941TIP3    H257239   0.669   5.087   5.353  0.8239  0.5920  0.2033
11942TIP3   OH257240   1.070   3.783  13.785  0.2446  0.6422  0.0041
11942TIP3    H157241   0.999   3.795  13.722  1.8560  0.7824 -1.8169
11942TIP3    H257242   1.026   3.753  13.865 -1.9440  1.5492 -0.8189
11943TIP3   OH257243   4.067   5.358   4.385 -0.0185  0.5779  0.4363
11943TIP3    H157244   4.155   5.341   4.352  0.1535 -0.6343  1.4983
11943TIP3    H257245   4.072   5.339   4.478 -1.2776  1.0236  0.6103
11944TIP3   OH257246   5.052   5.240  16.034  0.2939  0.3161 -0.5712
11944TIP3    H157247   4.981   5.302  16.017 -0.1852 -0.6459 -2.2468
11944TIP3    H257248   5.129   5.280  15.994  0.6600  1.2113  0.9697
11945TIP3   OH257249   1.557   1.388   5.381  0.3331 -0.5704 -0.2923
11945TIP3    H157250   1.557   1.434   5.464 -0.3768 -0.8136 -0.1491
11945TIP3    H257251   1.579   1.297   5.403 -1.0604 -0.8946 -0.2075
11946TIP3   OH257252   3.821   4.957   6.164 -0.4189  0.2165 -0.2347
11946TIP3    H157253   3.735   4.971   6.204  0.6893 -0.2993  2.4149
11946TIP3    H257254   3.866   4.898   6.224  2.6787  2.3713 -0.3182
11947TIP3   OH257255   1.287   4.947   5.185  0.5886  0.2152  0.6347
11947TIP3    H157256   1.253   4.870   5.231 -0.9400  0.5250  0.0682
11947TIP3    H257257   1.378   4.954   5.214  1.1802 -2.5945 -0.3544
11948TIP3   OH257258   4.951   2.349  11.397 -0.0843  0.0061  0.2903
11948TIP3    H157259   5.033   2.380  11.358 -0.2232 -0.7580 -0.6131
11948TIP3    H257260   4.959   2.254  11.398 -1.9491 -0.2290 -2.0494
11949TIP3   OH257261   1.835   3.066  12.625 -0.4547  0.2461 -0.1113
11949TIP3    H157262   1.908   3.005  12.612 -0.0304  0.3283  1.7038
11949TIP3    H257263   1.791   3.034  12.704 -1.4172  1.1561 -0.2652
11950TIP3   OH257264   6.432   5.865  16.175  0.1999 -0.1211 -0.6455
11950TIP3    H157265   6.402   5.824  16.257 -1.7465  0.0400 -1.2526
11950TIP3    H257266   6.497   5.929  16.203 -0.2780 -0.2284  0.7689
11951TIP3   OH257267   5.068   1.571   2.056  0.2827 -0.0275 -0.1143
11951TIP3    H157268   5.000   1.613   2.002  0.1974  0.3202  0.2654
11951TIP3    H257269   5.098   1.640   2.115 -0.9258 -0.9132  1.5404
11952TIP3   OH257270   3.381   4.970   2.626  0.4197  0.0182 -0.0054
11952TIP3    H157271   3.361   4.996   2.536  0.1915 -0.4635 -0.0951
11952TIP3    H257272   3.402   5.052   2.671 -1.8752  0.5681  0.1377
11953TIP3   OH257273   1.875   0.438   6.002 -0.5637  0.3501  0.0956
11953TIP3    H157274   1.940   0.478   5.944 -0.0597  0.3883  0.6777
11953TIP3    H257275   1.926   0.405   6.076 -0.5311 -4.2878 -1.8551
11954TIP3   OH257276   2.714   2.628  16.254  0.6500  0.2233  0.2297
11954TIP3    H157277   2.666   2.672  16.325  0.2695 -0.2618  0.2762
11954TIP3    H257278   2.806   2.647  16.272  0.3896  2.9128 -1.0092
11955TIP3   OH257279   5.884   0.459   1.627  0.1476  0.3360  0.1725
11955TIP3    H157280   5.804   0.498   1.663 -1.5400 -2.3538 -0.5198
11955TIP3    H257281   5.878   0.367   1.649  2.5054 -0.1357 -0.9482
11956TIP3   OH257282   4.681   3.433   5.241  0.1591 -0.3895  0.0196
11956TIP3    H157283   4.662   3.515   5.196  1.3860  0.0769  0.3323
11956TIP3    H257284   4.620   3.430   5.315  1.4283  1.1813  1.1500
11957TIP3   OH257285   3.536   2.269  12.428  0.4902 -0.7143  0.2553
11957TIP3    H157286   3.576   2.189  12.462 -0.1234 -0.8720  0.6205
11957TIP3    H257287   3.547   2.333  12.499  3.2583  0.2784 -1.0066
11958TIP3   OH257288   0.229   3.797   3.787 -0.2722  0.3437  0.2892
11958TIP3    H157289   0.293   3.862   3.818 -0.1999 -0.9157  2.8905
11958TIP3    H257290   0.276   3.750   3.718  1.4720 -0.1967  1.7806
11959TIP3   OH257291   2.695   0.654  14.467  0.0480  0.8217 -0.1553
11959TIP3    H157292   2.742   0.709  14.531  0.6557 -0.8468  0.8611
11959TIP3    H257293   2.765   0.610  14.418 -0.4454  0.2212 -0.3196
11960TIP3   OH257294   2.281   4.367  14.907 -0.1154 -0.3110 -0.2794
11960TIP3    H157295   2.213   4.358  14.839 -2.4155 -0.0637  1.9027
11960TIP3    H257296   2.324   4.450  14.888 -0.1213 -0.6867 -1.9743
11961TIP3   OH257297   1.211   4.381   1.502  0.3990 -0.7474  0.1507
11961TIP3    H157298   1.215   4.322   1.427  0.7731  0.6072 -0.9145
11961TIP3    H257299   1.178   4.463   1.466  0.1139 -0.2355  1.5686
11962TIP3   OH257300   1.562   3.250   2.262  0.3240  0.2805  0.2321
11962TIP3    H157301   1.550   3.192   2.337  0.7683 -0.1879 -0.0551
11962TIP3    H257302   1.474   3.270   2.232  0.1857 -3.0105 -1.7964
11963TIP3   OH257303   1.383   5.834  11.922  0.2616 -0.0227 -0.0934
11963TIP3    H157304   1.468   5.791  11.911  0.2486 -0.0955  0.0851
11963TIP3    H257305   1.340   5.784  11.992  0.2578  0.2982  0.1361
11964TIP3   OH257306   6.716   4.590   5.640  0.3654  0.4931 -0.0183
11964TIP3    H157307   6.703   4.496   5.652  0.1211  0.4387 -0.7311
11964TIP3    H257308   6.761   4.599   5.557 -0.9115  1.0906 -0.6564
11965TIP3   OH257309   0.086   0.577   0.715  0.3838 -0.1176  0.0614
11965TIP3    H157310   0.068   0.518   0.789 -0.9122  2.4634  1.8514
11965TIP3    H257311   0.133   0.651   0.754 -0.8949  1.5761 -1.5690
11966TIP3   OH257312   0.266   5.001  17.108  0.4101 -0.4930 -0.2020
11966TIP3    H157313   0.231   4.965  17.027  0.0229 -0.1435 -0.1920
11966TIP3    H257314   0.286   5.092  17.087 -0.7903 -0.0803  0.4184
11967TIP3   OH257315   5.728   0.876   5.744 -0.2345 -0.2208 -0.2007
11967TIP3    H157316   5.809   0.902   5.700 -1.2476  2.2199 -0.7118
11967TIP3    H257317   5.661   0.933   5.706 -1.7812 -0.5985  1.8913
11968TIP3   OH257318   4.552   1.696   4.969  0.3261  0.2557  0.3880
11968TIP3    H157319   4.517   1.615   4.932 -0.4976 -1.0987  3.9013
11968TIP3    H257320   4.478   1.757   4.969  0.4627  0.4259 -0.6091
11969TIP3   OH257321   4.405   2.140   3.719  0.0849 -0.0234 -0.3852
11969TIP3    H157322   4.485   2.109   3.761  0.4894  1.8106  0.2718
11969TIP3    H257323   4.431   2.224   3.679 -1.2506  0.0746 -1.0647
11970TIP3   OH257324   4.817   3.830   2.758  0.0354 -0.0189 -0.2717
11970TIP3    H157325   4.820   3.876   2.842 -0.8102 -1.7115  0.6969
11970TIP3    H257326   4.907   3.802   2.743  0.2185  0.4172 -0.0178
11971TIP3   OH257327   0.727   4.171  11.704  0.2078 -0.5137 -0.3018
11971TIP3    H157328   0.670   4.249  11.702  0.3447 -0.4303 -1.2073
11971TIP3    H257329   0.806   4.201  11.749 -0.0476 -0.3397  0.0335
11972TIP3   OH257330   3.255   1.319   3.052  0.2032 -0.0448  0.3019
11972TIP3    H157331   3.234   1.253   3.119  1.7883  0.7458  1.6135
11972TIP3    H257332   3.307   1.271   2.987  0.8276 -0.2507  0.9437
11973TIP3   OH257333   6.572   5.765  10.880 -0.0172  0.2329 -0.1464
11973TIP3    H157334   6.550   5.702  10.949  1.7003  0.6256  0.7699
11973TIP3    H257335   6.598   5.711  10.806 -1.0497 -0.1756 -0.2243
11974TIP3   OH257336   2.422   6.728   0.843  0.3095  0.4180 -0.5195
11974TIP3    H157337   2.427   6.745   0.937  0.9076 -0.5442 -0.3742
11974TIP3    H257338   2.505   6.760   0.808  0.0640  0.8290 -0.7369
11975TIP3   OH257339   1.184   2.993  13.970 -0.0871  0.0105 -0.5380
11975TIP3    H157340   1.165   3.031  14.055 -0.4127  1.0737 -1.0716
11975TIP3    H257341   1.099   2.991  13.925  0.3735  1.2478 -1.5254
11976TIP3   OH257342   2.324   2.279  12.245  0.1842  0.1772  0.4725
11976TIP3    H157343   2.306   2.187  12.229  0.7820  0.3995 -1.6663
11976TIP3    H257344   2.238   2.317  12.264 -0.0314 -0.8514  1.6327
11977TIP3   OH257345   1.306   2.989   4.858  0.0345  0.4578 -0.2607
11977TIP3    H157346   1.221   2.962   4.825  0.2328 -1.2926  0.5598
11977TIP3    H257347   1.292   3.004   4.952  0.0881  2.6190 -0.5783
11978TIP3   OH257348   2.331   0.424   6.029  0.5374  0.0921  0.2131
11978TIP3    H157349   2.240   0.396   6.019  0.0968  1.3044  0.7110
11978TIP3    H257350   2.329   0.519   6.019  1.9633  0.0126 -1.1475
11979TIP3   OH257351   3.419   5.110  15.098  0.0059 -0.4865  0.0372
11979TIP3    H157352   3.480   5.183  15.110 -1.1885  0.6732 -0.8306
11979TIP3    H257353   3.470   5.045  15.049  0.6365  0.3500 -0.4410
11980TIP3   OH257354   1.488   4.581  16.182 -0.1943  0.5708  0.2254
11980TIP3    H157355   1.436   4.605  16.105 -0.8591  0.8863  0.7706
11980TIP3    H257356   1.513   4.489  16.167 -0.0824  0.7199 -0.4968
11981TIP3   OH257357   5.450   0.139  11.658  0.1267  0.5282 -0.0490
11981TIP3    H157358   5.462   0.161  11.750  2.9243  0.3832 -0.3320
11981TIP3    H257359   5.483   0.049  11.651  0.1617  0.6325 -1.2391
11982TIP3   OH257360   1.702   5.152   0.053 -0.6099  0.7807  0.5305
11982TIP3    H157361   1.657   5.069   0.038 -0.5261  0.5237  1.6674
11982TIP3    H257362   1.749   5.169  -0.028 -1.5988  0.3247 -0.1435
11983TIP3   OH257363   2.695   2.789  15.172  0.8246  0.4926 -0.1021
11983TIP3    H157364   2.782   2.783  15.132  0.6887  1.4118 -0.5334
11983TIP3    H257365   2.639   2.827  15.103  0.1306  0.1171  0.2489
11984TIP3   OH257366   4.498   6.739  16.852 -0.0269 -0.5083 -0.1372
11984TIP3    H157367   4.508   6.828  16.818 -0.0293 -0.4856 -0.0756
11984TIP3    H257368   4.562   6.687  16.803  0.4772 -0.3395  0.3338
11985TIP3   OH257369   5.114   4.432   1.486  0.0381 -0.3135  0.5560
11985TIP3    H157370   5.083   4.499   1.547 -4.0017 -0.4904 -1.1527
11985TIP3    H257371   5.138   4.481   1.407  1.5938 -0.4558  0.9293
11986TIP3   OH257372   4.744   0.223  10.710 -1.0277  0.0451 -0.1933
11986TIP3    H157373   4.698   0.297  10.670  0.5435  0.2835 -1.5759
11986TIP3    H257374   4.732   0.151  10.648 -2.0405 -0.7078  0.8612
11987TIP3   OH257375   2.969   6.479  15.515  0.0831  0.0570 -0.7816
11987TIP3    H157376   2.992   6.459  15.424  0.9612 -0.1445 -0.5254
11987TIP3    H257377   3.052   6.506  15.555  0.3345 -2.8030  0.7540
11988TIP3   OH257378   0.925   4.826   1.782  0.3891 -0.0505  0.2288
11988TIP3    H157379   0.837   4.808   1.747  0.5314 -1.1064  0.4049
11988TIP3    H257380   0.981   4.762   1.739  1.0968  0.7117  0.0263
11989TIP3   OH257381   1.651   5.242  12.375 -0.4826 -0.0959  0.0352
11989TIP3    H157382   1.592   5.207  12.308  0.7435  1.0777 -1.6883
11989TIP3    H257383   1.722   5.284  12.326  1.3469 -0.7058  2.0572
11990TIP3   OH257384   0.324   6.049  17.118 -0.2460  0.3757 -0.4213
11990TIP3    H157385   0.378   5.977  17.151  0.1171  0.9253  0.2117
11990TIP3    H257386   0.273   6.077  17.194 -0.1368  1.0031 -0.5752
11991TIP3   OH257387   2.751   3.445   6.616  0.4389  0.1022 -0.0274
11991TIP3    H157388   2.664   3.456   6.578  1.3188  0.5319 -1.9948
11991TIP3    H257389   2.746   3.488   6.702 -0.7937  1.6316 -0.8343
11992TIP3   OH257390   4.878   6.410  14.121  0.3107  0.4073 -0.9480
11992TIP3    H157391   4.938   6.428  14.048  2.8319 -1.3256  0.6067
11992TIP3    H257392   4.838   6.326  14.099 -2.2823  1.9775 -2.4049
11993TIP3   OH257393   2.745   0.814  10.788 -0.3978  0.1841 -0.6718
11993TIP3    H157394   2.774   0.848  10.704 -0.0196 -0.7638 -0.9237
11993TIP3    H257395   2.650   0.830  10.788 -0.0838  2.2759 -0.2973
11994TIP3   OH257396   3.026   6.567   2.301 -0.6435 -0.0578 -0.2708
11994TIP3    H157397   3.092   6.635   2.310 -0.4997 -0.0327 -1.3792
11994TIP3    H257398   2.944   6.616   2.285 -0.7617 -0.1101  0.1823
11995TIP3   OH257399   2.530   2.868  14.307 -0.2687 -0.2514 -0.1075
11995TIP3    H157400   2.520   2.840  14.217  1.3888  0.9230 -0.6876
11995TIP3    H257401   2.466   2.938  14.318  1.1143  1.2263 -1.1253
11996TIP3   OH257402   2.202   4.829  14.318 -0.0135  0.5528  0.5175
11996TIP3    H157403   2.226   4.745  14.358 -0.8166 -0.5675 -1.2878
11996TIP3    H257404   2.120   4.853  14.360 -0.9721 -0.7304 -0.5941
11997TIP3   OH257405   0.831   4.859  11.572  0.1559 -0.2461  0.0769
11997TIP3    H157406   0.875   4.859  11.657 -0.4715 -0.2522  0.4115
11997TIP3    H257407   0.834   4.768  11.543 -0.2106 -0.3630  0.4034
11998TIP3   OH257408   1.631   1.974  13.193 -0.3934 -0.3782 -0.1255
11998TIP3    H157409   1.674   2.056  13.218 -1.1058 -0.7547  2.3984
11998TIP3    H257410   1.557   2.001  13.139 -1.8525  0.8258  2.3956
11999TIP3   OH257411   1.551   2.316  15.491 -0.5193 -0.0657  0.2835
11999TIP3    H157412   1.538   2.222  15.504 -1.0305  0.0847  0.9469
11999TIP3    H257413   1.638   2.324  15.453 -0.6352 -0.8363 -0.1461
12000TIP3   OH257414   0.737   3.128   1.822  0.1617 -0.4079  0.0537
12000TIP3    H157415   0.646   3.123   1.848 -0.0170  0.1159 -0.4554
12000TIP3    H257416   0.781   3.060   1.873 -0.2315  0.3826  1.4641
12001TIP3   OH257417   0.481   0.989  10.346 -0.5056  0.3453 -0.0490
12001TIP3    H157418   0.546   1.023  10.286 -0.3861  1.6339  0.7919
12001TIP3    H257419   0.440   0.917  10.299  1.7526 -0.7145 -0.4695
12002TIP3   OH257420   1.759   6.548   6.022  1.0952 -0.3211 -0.1319
12002TIP3    H157421   1.706   6.612   6.069 -0.1237 -1.6382  0.3165
12002TIP3    H257422   1.783   6.483   6.088  1.2127 -1.0162 -0.8496
12003TIP3   OH257423   1.127   4.971  16.540 -0.1211  0.2337 -0.6599
12003TIP3    H157424   1.096   5.056  16.571 -2.2143 -0.3077 -1.1756
12003TIP3    H257425   1.222   4.974  16.552 -0.3860  1.8200  1.3270
12004TIP3   OH257426   1.765   4.853   6.676  0.5639 -0.2015  0.3349
12004TIP3    H157427   1.700   4.911   6.637  0.5790 -0.7645 -0.5397
12004TIP3    H257428   1.849   4.895   6.658  0.4442  0.5778  1.5541
12005TIP3   OH257429   3.496   1.943   4.344 -0.3403  0.8086  0.2844
12005TIP3    H157430   3.494   2.013   4.410 -0.9258  1.2984 -0.2499
12005TIP3    H257431   3.490   1.863   4.395 -1.8732  1.2143  0.7971
12006TIP3   OH257432   2.008   0.469  14.799  0.1548 -0.1489  0.0950
12006TIP3    H157433   1.957   0.549  14.809 -0.4267 -0.5199  0.1359
12006TIP3    H257434   1.981   0.434  14.714 -1.3124 -1.4971  1.0903
12007TIP3   OH257435   5.557   0.535   1.043 -0.0417  0.2822  0.7006
12007TIP3    H157436   5.622   0.508   0.978 -0.2948  2.6601 -0.5728
12007TIP3    H257437   5.523   0.452   1.078  1.9680 -1.0065 -0.2978
12008TIP3   OH257438   5.898   6.005   5.653 -0.3908  0.0526  0.0185
12008TIP3    H157439   5.976   6.027   5.602 -1.1929  0.7569 -0.9337
12008TIP3    H257440   5.910   6.050   5.736  0.4557 -0.2756  0.0850
12009TIP3   OH257441   3.982   4.261  13.555  0.3916  0.3829  0.2720
12009TIP3    H157442   4.007   4.217  13.637  1.2939 -0.2887 -0.3509
12009TIP3    H257443   4.004   4.353  13.570  0.8210  0.2167  0.6827
12010TIP3   OH257444   3.963   3.378  17.099 -0.1111 -0.5091  0.3912
12010TIP3    H157445   3.880   3.399  17.141  0.1671 -3.0430  2.3189
12010TIP3    H257446   4.022   3.447  17.128 -1.0407  0.2297  0.5659
12011TIP3   OH257447   5.172   0.026  11.742 -0.0354 -0.2587  0.8241
12011TIP3    H157448   5.224   0.084  11.687  2.0534  0.1191  3.1211
12011TIP3    H257449   5.173  -0.057  11.696  1.0889  0.2360 -0.0827
12012TIP3   OH257450   4.338   1.116  15.067 -0.0512 -0.0293  0.6289
12012TIP3    H157451   4.433   1.110  15.056 -0.4365 -3.0587 -1.5199
12012TIP3    H257452   4.316   1.205  15.041  1.9530 -0.0303 -1.1984
12013TIP3   OH257453   6.054   3.626   1.078 -0.3151 -0.0125 -0.4048
12013TIP3    H157454   6.054   3.583   0.993  0.1524 -0.6281 -0.0998
12013TIP3    H257455   5.984   3.584   1.127  0.6827 -1.0386  0.1835
12014TIP3   OH257456   3.167   2.558  11.360  0.0778 -0.0994  0.1345
12014TIP3    H157457   3.151   2.475  11.314 -0.3629 -0.8587  1.6046
12014TIP3    H257458   3.259   2.578  11.344  0.1038 -0.7103 -0.4895
12015TIP3   OH257459   4.935   5.349  11.356 -0.4605 -0.0919  0.6987
12015TIP3    H157460   4.907   5.259  11.373 -1.4465 -0.1298 -0.9962
12015TIP3    H257461   4.931   5.358  11.261 -2.0272  2.2528  0.9485
12016TIP3   OH257462   4.315   1.362   0.993  0.6689  0.4877  0.4315
12016TIP3    H157463   4.402   1.322   0.988  0.9087  1.2670 -2.1909
12016TIP3    H257464   4.329   1.442   1.044  1.0020 -0.5274  2.0006
12017TIP3   OH257465   0.064   0.853  11.619 -0.3268  0.0476  0.4773
12017TIP3    H157466   0.039   0.883  11.706 -0.0618 -1.1259  0.9606
12017TIP3    H257467   0.057   0.932  11.564 -1.1930  0.6302  1.3994
12018TIP3   OH257468   4.757   3.721   5.615  0.4641  0.1510  0.6608
12018TIP3    H157469   4.684   3.781   5.598  2.0106  2.0305  0.4580
12018TIP3    H257470   4.768   3.722   5.710  1.9466  2.0023  0.4909
12019TIP3   OH257471   4.428   4.817   6.392  0.0992  0.4103 -0.2152
12019TIP3    H157472   4.335   4.796   6.382 -0.1232  1.0638  0.4151
12019TIP3    H257473   4.465   4.743   6.440 -0.3007  0.5891  0.3789
12020TIP3   OH257474   1.187   6.017   5.154  0.3457  0.0719 -0.0996
12020TIP3    H157475   1.239   5.986   5.228  1.2296  0.9253 -0.3643
12020TIP3    H257476   1.212   6.108   5.143 -0.0852  0.0622 -1.1937
12021TIP3   OH257477   0.934   2.171  15.122  0.4844 -0.1551 -0.1403
12021TIP3    H157478   0.882   2.094  15.100  0.8313 -0.2971 -0.4654
12021TIP3    H257479   0.981   2.147  15.201  0.8576 -0.4030 -0.4346
12022TIP3   OH257480   1.107   5.900   3.415  0.3626  1.4636 -0.2494
12022TIP3    H157481   1.068   5.928   3.497  2.1248  0.7577  0.8588
12022TIP3    H257482   1.201   5.894   3.434  0.6280 -0.0981 -1.9013
12023TIP3   OH257483   1.568   3.145  14.998 -0.1594 -0.1330 -0.8027
12023TIP3    H157484   1.565   3.175  14.907 -0.5269 -1.7965 -1.3624
12023TIP3    H257485   1.624   3.067  14.995 -0.9952 -0.7903  0.1919
12024TIP3   OH257486   5.792   1.453   3.825 -0.0959 -0.3145  0.0956
12024TIP3    H157487   5.817   1.386   3.760 -3.0325 -0.9417 -0.4574
12024TIP3    H257488   5.786   1.405   3.907 -0.0187 -0.2551  0.1367
12025TIP3   OH257489   6.398   0.380   4.226 -0.5561 -0.6045 -0.0737
12025TIP3    H157490   6.378   0.308   4.286 -0.4516  0.2965  1.0562
12025TIP3    H257491   6.341   0.365   4.151 -1.0304 -1.4899  0.4505
12026TIP3   OH257492   0.987   5.561  15.075 -0.7405 -0.7951  0.1473
12026TIP3    H157493   0.949   5.602  15.152 -2.1214  0.2661 -1.0635
12026TIP3    H257494   1.057   5.621  15.048 -1.1812 -0.4450 -0.2281
12027TIP3   OH257495   3.923   4.004  10.761  0.3580  0.0600  0.0849
12027TIP3    H157496   4.002   3.957  10.788 -0.9736 -1.6654  1.0588
12027TIP3    H257497   3.894   4.049  10.841 -0.0361  0.1241 -0.0941
12028TIP3   OH257498   5.433   5.433   5.149  0.3229  0.1900 -0.2957
12028TIP3    H157499   5.379   5.501   5.190 -1.6934 -1.7229  0.2884
12028TIP3    H257500   5.435   5.457   5.056 -0.5068  0.9625 -0.1196
12029TIP3   OH257501   5.577   6.031  13.600  0.4740  0.2373  0.5298
12029TIP3    H157502   5.554   6.124  13.599  1.1008  0.4908  3.7028
12029TIP3    H257503   5.505   5.989  13.647  0.7392 -0.7255  0.0797
12030TIP3   OH257504   3.370   5.967   3.549 -0.3192  0.6518 -0.6217
12030TIP3    H157505   3.436   5.953   3.481 -0.7975  0.0815 -0.9750
12030TIP3    H257506   3.287   5.973   3.501 -0.6627  0.2190 -0.0897
12031TIP3   OH257507   3.178   4.988  12.322 -0.3179  0.5188 -0.1244
12031TIP3    H157508   3.151   5.078  12.340  1.6259  1.1948 -0.4510
12031TIP3    H257509   3.163   4.976  12.228  1.6698  1.3287 -0.5694
12032TIP3   OH257510   5.929   5.260  15.556 -0.5034  0.3625 -0.1352
12032TIP3    H157511   5.867   5.281  15.486 -0.1989  0.3879 -0.3965
12032TIP3    H257512   5.879   5.206  15.617 -0.1500 -1.4568 -1.4435
12033TIP3   OH257513   4.364   4.107  13.999 -0.2242 -1.1324 -0.1958
12033TIP3    H157514   4.457   4.084  13.990 -0.0625  0.3620 -2.7901
12033TIP3    H257515   4.319   4.043  13.944 -0.6196 -0.9488 -0.0825
12034TIP3   OH257516   0.371   4.986  14.718 -0.0769 -0.1607 -0.0504
12034TIP3    H157517   0.276   4.991  14.716 -0.0200  1.1115  0.3770
12034TIP3    H257518   0.401   5.066  14.676  0.8147 -0.9722 -1.0092
12035TIP3   OH257519   5.761   1.056  12.762 -0.5296 -0.3573  0.1594
12035TIP3    H157520   5.704   1.130  12.741 -0.8806 -0.7709 -0.3483
12035TIP3    H257521   5.710   1.004  12.824 -0.5101 -0.4682  0.0830
12036TIP3   OH257522   3.915   6.647   3.154  0.5465 -0.3877  0.2346
12036TIP3    H157523   3.926   6.699   3.234  0.1549  0.2489 -0.1288
12036TIP3    H257524   3.831   6.674   3.118  0.7868 -0.5630 -0.4745
12037TIP3   OH257525   0.503   2.343   0.507 -0.7065 -0.4427  0.2487
12037TIP3    H157526   0.580   2.287   0.493 -0.1700  0.6619 -1.2801
12037TIP3    H257527   0.520   2.386   0.591  0.4561 -0.0301 -0.1902
12038TIP3   OH257528   6.679   2.887  15.171 -0.3766 -0.1430  1.1330
12038TIP3    H157529   6.638   2.877  15.085 -0.2247  0.2220  1.0156
12038TIP3    H257530   6.713   2.800  15.192 -1.0101 -0.3981  1.1306
12039TIP3   OH257531   0.137   3.783   3.264 -0.4573 -0.6638  0.0079
12039TIP3    H157532   0.222   3.768   3.222 -1.6378 -3.6034 -1.4415
12039TIP3    H257533   0.086   3.829   3.198 -0.2013  0.6203  0.6853
12040TIP3   OH257534   2.507   3.192  14.644  0.2656 -0.4750 -0.2358
12040TIP3    H157535   2.530   3.285  14.649 -0.9015 -0.1440 -0.7615
12040TIP3    H257536   2.577   3.147  14.691  0.9396  0.6575 -0.1380
12041TIP3   OH257537   5.649   4.619   0.529 -0.4406 -0.0685 -0.8698
12041TIP3    H157538   5.588   4.683   0.567 -0.2533 -0.3485 -0.0916
12041TIP3    H257539   5.687   4.574   0.604 -0.7711 -1.2897 -1.4163
12042TIP3   OH257540   5.255   4.203   3.721 -0.0022 -0.1714 -0.4033
12042TIP3    H157541   5.267   4.110   3.740 -0.0219 -0.0196  0.3568
12042TIP3    H257542   5.197   4.234   3.790 -1.1407  0.1050 -1.4514
12043TIP3   OH257543   5.143   4.606  11.058 -0.1480 -0.2022  0.0828
12043TIP3    H157544   5.140   4.553  10.978 -1.2890 -0.7844  0.4913
12043TIP3    H257545   5.202   4.558  11.116 -0.9549 -0.9019  0.3454
12044TIP3   OH257546   0.564   4.263  17.206 -0.0119  0.1043  0.0368
12044TIP3    H157547   0.507   4.335  17.179 -0.2302 -0.6091 -1.4289
12044TIP3    H257548   0.505   4.203  17.253  0.1715  0.8632  1.2634
12045TIP3   OH257549   4.706   6.543   0.665  0.3323 -0.7110  0.0402
12045TIP3    H157550   4.732   6.602   0.735 -0.4696 -0.2973 -0.0005
12045TIP3    H257551   4.648   6.596   0.609  1.3650 -0.8823 -1.2162
12046TIP3   OH257552   5.922   5.709   1.123 -0.3375 -0.5260 -0.0190
12046TIP3    H157553   6.012   5.677   1.117 -0.7696 -1.3079 -4.1030
12046TIP3    H257554   5.869   5.634   1.099 -2.0507  0.2474  1.2772
12047TIP3   OH257555   0.804   4.308  15.876 -0.0060 -0.1668  0.1086
12047TIP3    H157556   0.790   4.217  15.901 -0.0819 -0.3275 -0.5235
12047TIP3    H257557   0.826   4.305  15.783  1.0976  0.3571  0.3374
12048TIP3   OH257558   1.305   2.442   5.584 -0.5546  0.5426 -0.2421
12048TIP3    H157559   1.266   2.528   5.595 -1.3830  0.0885  0.3719
12048TIP3    H257560   1.236   2.380   5.606  0.3946 -0.2740  0.5170
12049TIP3   OH257561   4.338   5.702  11.186 -0.0043 -0.0390  0.0817
12049TIP3    H157562   4.374   5.642  11.253  0.4267  0.6304  0.4529
12049TIP3    H257563   4.343   5.652  11.105  0.6055 -0.4072  0.3439
12050TIP3   OH257564   0.899   2.322  15.710 -0.1345 -0.0128 -0.4568
12050TIP3    H157565   0.843   2.263  15.659  0.4068 -1.0723  0.1617
12050TIP3    H257566   0.957   2.361  15.645  0.4202 -1.2083 -0.6881
12051TIP3   OH257567   3.564   0.962  15.229  0.0824 -0.1828  0.6029
12051TIP3    H157568   3.496   1.013  15.273  0.3416 -0.3609  1.2099
12051TIP3    H257569   3.646   0.997  15.263  0.4075  2.0641 -2.3318
12052TIP3   OH257570   3.725   5.102   3.640  0.0788  0.4046  0.0517
12052TIP3    H157571   3.819   5.115   3.650  0.1109  1.2652 -1.1938
12052TIP3    H257572   3.702   5.040   3.709  1.2222  1.6433  1.5959
12053TIP3   OH257573   1.558   3.042  14.680 -0.0011  0.1389 -0.2825
12053TIP3    H157574   1.607   2.961  14.668  0.3413  0.0590  1.5442
12053TIP3    H257575   1.488   3.019  14.740  1.3922  1.6974  2.0062
12054TIP3   OH257576   4.143   0.523   5.050 -0.8876  0.2217  0.1036
12054TIP3    H157577   4.175   0.613   5.039  3.7891 -1.6023 -2.6253
12054TIP3    H257578   4.078   0.513   4.981 -0.8206  1.2898 -0.1322
12055TIP3   OH257579   5.912   1.410   2.890  0.2747 -0.6097  0.4631
12055TIP3    H157580   5.831   1.414   2.941 -0.0332 -0.3061 -0.0503
12055TIP3    H257581   5.964   1.484   2.920  0.2474 -0.6446  0.5961
12056TIP3   OH257582   2.526   1.707  13.301 -0.0220 -0.1574  0.1769
12056TIP3    H157583   2.527   1.758  13.220  0.0456 -1.3272 -0.5536
12056TIP3    H257584   2.615   1.675  13.312 -0.0366 -0.0342  0.7036
12057TIP3   OH257585   6.483   2.947   4.218  0.3938  0.5559  0.0702
12057TIP3    H157586   6.406   2.939   4.274  0.0536  0.4012 -0.4158
12057TIP3    H257587   6.508   3.039   4.226  0.7349  0.3893  0.9749
12058TIP3   OH257588   2.784   6.485  14.413  0.1607 -0.2064 -0.0444
12058TIP3    H157589   2.735   6.565  14.430 -0.9099 -0.8402 -0.1395
12058TIP3    H257590   2.857   6.488  14.476 -0.4673  0.3337  0.6609
12059TIP3   OH257591   3.009   1.452  14.444  0.3472 -0.1235  0.0690
12059TIP3    H157592   2.993   1.435  14.537 -0.4062  2.1112  0.3874
12059TIP3    H257593   3.090   1.502  14.443 -0.0373  0.4983 -0.4084
12060TIP3   OH257594   5.450   6.751  13.505 -0.3868  0.8562 -0.5274
12060TIP3    H157595   5.387   6.746  13.576 -0.1757  2.6774 -0.1722
12060TIP3    H257596   5.401   6.728  13.427 -1.2224  1.1586 -0.0963
12061TIP3   OH257597   0.742   0.766   4.292  0.1724  0.2788 -0.6385
12061TIP3    H157598   0.780   0.678   4.295 -0.1095  0.1414 -1.0939
12061TIP3    H257599   0.659   0.755   4.245 -0.6483  0.5018  0.7359
12062TIP3   OH257600   2.117   5.689  14.795  0.4629 -0.0279  0.1494
12062TIP3    H157601   2.180   5.650  14.856  0.4646  0.7204  0.6335
12062TIP3    H257602   2.055   5.735  14.851  0.3256  0.4572 -0.4022
12063TIP3   OH257603   2.217   2.912  14.180  0.3778 -0.2170 -0.1421
12063TIP3    H157604   2.271   2.982  14.144  0.7006 -1.6084 -2.5038
12063TIP3    H257605   2.135   2.955  14.206  0.2772  0.9169 -2.2428
12064TIP3   OH257606   0.709   4.061   2.493  0.6188  0.6258  0.0027
12064TIP3    H157607   0.631   4.101   2.529  0.4844  0.9209 -0.6086
12064TIP3    H257608   0.747   4.011   2.566 -0.6417 -0.2883  0.0409
12065TIP3   OH257609   3.100   6.705  12.273  0.2567 -0.1527  0.1373
12065TIP3    H157610   3.069   6.735  12.188  1.1294  0.5730  0.0678
12065TIP3    H257611   3.156   6.777  12.305  0.1289 -0.5193  1.2070
12066TIP3   OH257612   2.770   4.371  13.543  0.3627  0.2872 -0.0108
12066TIP3    H157613   2.698   4.308  13.542  1.2047 -0.6822 -0.4458
12066TIP3    H257614   2.735   4.447  13.588 -0.4023 -0.8129  1.2672
12067TIP3   OH257615   5.644   2.173   3.374 -0.1861 -0.2213  0.2958
12067TIP3    H157616   5.682   2.222   3.301 -0.3536 -1.4500 -0.6284
12067TIP3    H257617   5.718   2.135   3.419 -0.2173 -1.5062 -0.7112
12068TIP3   OH257618   3.688   4.061   0.219 -0.3817  0.2638 -0.1243
12068TIP3    H157619   3.680   4.135   0.159  2.1368 -0.1041 -0.9984
12068TIP3    H257620   3.780   4.034   0.212 -0.7319 -1.6198  1.7500
12069TIP3   OH257621   5.982   0.441   3.900  0.1449 -0.2001 -0.1568
12069TIP3    H157622   5.942   0.354   3.896  0.4876 -0.3515 -0.3361
12069TIP3    H257623   5.908   0.501   3.896 -0.1800 -0.4878  1.1690
12070TIP3   OH257624   1.319   3.747  16.155 -0.3803 -0.1403  0.2014
12070TIP3    H157625   1.383   3.812  16.184 -2.2111  0.6096  2.7151
12070TIP3    H257626   1.303   3.769  16.063  1.3442  0.9892  0.1424
12071TIP3   OH257627   4.713   2.975   2.830  0.6415 -0.2390  0.1606
12071TIP3    H157628   4.742   2.993   2.920  1.1556  1.0428 -0.2585
12071TIP3    H257629   4.776   3.020   2.775 -0.0386 -0.5023 -0.8430
12072TIP3   OH257630   3.693   0.774  11.993  0.5095  0.1693  0.4102
12072TIP3    H157631   3.767   0.802  11.940  0.8356 -0.3636  0.5820
12072TIP3    H257632   3.729   0.764  12.081  0.5326 -1.4029  0.2252
12073TIP3   OH257633   3.517   3.399   3.248 -0.2861  0.2931 -0.0563
12073TIP3    H157634   3.540   3.484   3.287 -0.5309  0.2136  0.2687
12073TIP3    H257635   3.592   3.376   3.194 -0.6539  1.2062 -0.9785
12074TIP3   OH257636   4.738   1.869  10.484  0.2016 -0.2532  0.0958
12074TIP3    H157637   4.705   1.837  10.400 -2.6801 -0.7402  1.3394
12074TIP3    H257638   4.801   1.937  10.461 -0.4064 -0.5006 -2.4575
12075TIP3   OH257639   2.048   5.894  15.444 -0.5943 -0.1832 -0.7346
12075TIP3    H157640   2.002   5.941  15.514 -1.2882 -1.2789 -0.4532
12075TIP3    H257641   2.082   5.815  15.485  0.9899  0.2816 -1.1024
12076TIP3   OH257642   2.639   1.166   1.144 -0.0600  0.3596  0.1945
12076TIP3    H157643   2.675   1.078   1.148  0.2605  0.4113 -1.4958
12076TIP3    H257644   2.662   1.199   1.057 -2.5434  1.0803 -0.2437
12077TIP3   OH257645   1.469   5.419  14.764 -0.5559 -0.3339 -0.6435
12077TIP3    H157646   1.466   5.436  14.858  2.4702 -0.2012 -0.5305
12077TIP3    H257647   1.454   5.325  14.757 -0.4959 -0.3951 -0.0192
12078TIP3   OH257648   1.084   4.200  11.691 -0.1338 -0.3700 -0.0907
12078TIP3    H157649   1.066   4.110  11.665 -0.1943 -0.9810  1.9883
12078TIP3    H257650   1.043   4.209  11.777  1.0678  1.2301  0.3361
12079TIP3   OH257651   3.703   6.447  11.532 -0.5969  0.0616  0.6191
12079TIP3    H157652   3.649   6.470  11.608 -0.8251 -0.9092  0.7511
12079TIP3    H257653   3.660   6.370  11.494  0.7829 -0.8307  0.8261
12080TIP3   OH257654   0.993   3.514   4.372 -0.0605 -0.4527 -0.3656
12080TIP3    H157655   0.999   3.434   4.319 -1.4767 -0.2384 -0.8722
12080TIP3    H257656   0.907   3.508   4.414 -1.2645  1.9867 -2.3567
12081TIP3   OH257657   2.816   5.938   4.001  0.0842 -0.8575 -0.1441
12081TIP3    H157658   2.900   5.979   3.981  0.8330 -1.8184  0.9521
12081TIP3    H257659   2.774   5.998   4.063  0.8456 -1.3514  0.8651
12082TIP3   OH257660   1.177   0.167   4.109  0.4673 -0.3347 -0.1278
12082TIP3    H157661   1.117   0.195   4.177  0.0555  0.2053 -0.7110
12082TIP3    H257662   1.262   0.159   4.153  0.1072 -0.4300  0.5429
12083TIP3   OH257663   3.130   1.570   1.154  0.3027 -0.0562 -0.5001
12083TIP3    H157664   3.071   1.507   1.195 -0.5285  0.3203 -1.1092
12083TIP3    H257665   3.198   1.516   1.114  0.2608 -0.5005  0.0223
12084TIP3   OH257666   5.491   6.010  13.083 -0.0423 -0.7334 -0.0010
12084TIP3    H157667   5.471   5.993  13.175 -1.8972  1.9663  0.1606
12084TIP3    H257668   5.538   6.094  13.084 -2.0802  0.4856 -1.6625
12085TIP3   OH257669   0.621   4.995  12.619  0.1712  0.3406  0.0629
12085TIP3    H157670   0.671   5.076  12.630  0.2316  0.2722  0.3035
12085TIP3    H257671   0.541   5.022  12.574 -0.4516  0.7753  1.3919
12086TIP3   OH257672   0.680   6.253   2.543  0.1429 -0.1107  0.3680
12086TIP3    H157673   0.590   6.280   2.563  1.0027  1.2500  2.5793
12086TIP3    H257674   0.725   6.334   2.523  0.8956 -0.8003 -0.7869
12087TIP3   OH257675   4.596   1.889   0.363  0.0325 -0.1386  0.2021
12087TIP3    H157676   4.679   1.931   0.387  0.1724 -0.6714  0.6555
12087TIP3    H257677   4.623   1.812   0.313 -0.2137  0.1260 -0.3364
12088TIP3   OH257678   1.352   3.521  16.441  0.0539  0.4520  0.4351
12088TIP3    H157679   1.348   3.427  16.424 -1.0867  0.4037  0.9320
12088TIP3    H257680   1.438   3.548  16.410  0.7313 -0.9188  1.1036
12089TIP3   OH257681   5.047   6.596  13.979  0.1886 -0.3385 -0.0668
12089TIP3    H157682   5.074   6.642  13.900  1.0250 -0.3630  0.1987
12089TIP3    H257683   5.128   6.557  14.013 -0.4722 -1.9361 -0.2354
12090TIP3   OH257684   0.664   6.573   2.088  0.2855 -0.0380 -0.3528
12090TIP3    H157685   0.572   6.579   2.113 -0.2082 -0.7956 -1.9067
12090TIP3    H257686   0.690   6.485   2.115  0.8722  0.5457  1.0466
12091TIP3   OH257687   6.645   0.639   1.639  0.2838 -0.0217  0.4864
12091TIP3    H157688   6.583   0.700   1.679 -1.1768 -0.3006 -1.2630
12091TIP3    H257689   6.676   0.685   1.560  0.8818 -0.6333  0.3639
12092TIP3   OH257690   0.367   1.971  14.518 -0.1081  0.0070  0.2182
12092TIP3    H157691   0.361   1.877  14.537 -0.9190 -0.0397 -0.2490
12092TIP3    H257692   0.278   1.997  14.494  0.6314  0.3302 -2.3298
12093TIP3   OH257693   4.890   0.308  14.276  0.1416  0.2806  0.5296
12093TIP3    H157694   4.829   0.364  14.228 -0.5733 -0.1619  0.9184
12093TIP3    H257695   4.903   0.232  14.220 -1.1575 -0.5152  1.2852
12094TIP3   OH257696   4.382   4.581  16.586  0.3572  0.3591  0.4340
12094TIP3    H157697   4.397   4.492  16.619 -0.2902 -0.2707 -0.9081
12094TIP3    H257698   4.457   4.631  16.618  1.2393 -0.8952  0.3987
12095TIP3   OH257699   2.608   4.348  11.413 -0.2381 -0.4280  0.1801
12095TIP3    H157700   2.549   4.352  11.488 -1.5443  0.5520 -0.8820
12095TIP3    H257701   2.686   4.396  11.441 -0.2659 -1.0189  1.2906
12096TIP3   OH257702   6.699   1.737  14.096 -0.0458  0.0513 -0.0083
12096TIP3    H157703   6.729   1.699  14.013  0.7081 -0.9231  0.6920
12096TIP3    H257704   6.620   1.786  14.073 -0.4282 -1.0596 -1.1258
12097TIP3   OH257705   1.736   6.599   5.553 -0.5921 -0.4101 -0.1613
12097TIP3    H157706   1.705   6.512   5.579 -3.5302  0.6031  0.0117
12097TIP3    H257707   1.746   6.646   5.636 -0.1395 -0.2522 -0.3085
12098TIP3   OH257708   6.667   4.532   2.713 -0.6706 -0.3362 -0.0877
12098TIP3    H157709   6.658   4.554   2.620 -1.9001 -0.1716  0.0683
12098TIP3    H257710   6.644   4.613   2.759  0.4181 -0.2674  0.3619
12099TIP3   OH257711   5.092   2.836  11.408  0.1509  0.5642  0.3012
12099TIP3    H157712   5.163   2.783  11.371 -0.0436  1.2825 -1.1146
12099TIP3    H257713   5.137   2.909  11.451  0.2977  0.6076  0.0750
12100TIP3   OH257714   2.714   1.365  12.617 -0.1534 -0.2882  0.2283
12100TIP3    H157715   2.789   1.353  12.675 -0.6627  1.0048  1.1811
12100TIP3    H257716   2.716   1.289  12.559  3.0702  0.7391 -1.1068
12101TIP3   OH257717   4.758   5.587   0.290 -0.0899 -0.1875  0.1879
12101TIP3    H157718   4.847   5.553   0.276  0.0674  0.8348 -1.3755
12101TIP3    H257719   4.771   5.662   0.348 -0.2870 -1.8743  2.4833
12102TIP3   OH257720   2.545   5.223   4.810 -0.2557 -0.6823  0.5474
12102TIP3    H157721   2.604   5.178   4.749 -0.2844  1.3537 -1.0504
12102TIP3    H257722   2.603   5.264   4.874  0.0284  0.1435 -0.2145
12103TIP3   OH257723   4.710   6.425  12.032  0.0653  0.4990 -0.4672
12103TIP3    H157724   4.778   6.426  11.965 -0.3898 -1.3045 -0.9844
12103TIP3    H257725   4.630   6.453  11.987  0.1528  1.1956 -0.2022
12104TIP3   OH257726   1.988   1.164  13.925  0.3714 -0.0162 -0.3120
12104TIP3    H157727   1.944   1.118  13.854 -0.7277  0.0937  0.2823
12104TIP3    H257728   1.982   1.103  14.000  1.3158 -0.0394 -0.2501
12105TIP3   OH257729   6.646   0.540  14.819 -0.5396  0.2869  0.4647
12105TIP3    H157730   6.703   0.601  14.773  0.2282  0.1330  1.2111
12105TIP3    H257731   6.630   0.470  14.756  0.0063  0.3855  0.2169
12106TIP3   OH257732   3.537   3.834   3.387  0.1278  0.3885  0.6705
12106TIP3    H157733   3.567   3.905   3.330 -0.5451  1.4754  1.6481
12106TIP3    H257734   3.481   3.878   3.452 -1.3918 -1.2164  0.4767
12107TIP3   OH257735   0.517   5.489   5.254 -0.6019  0.3761  0.1026
12107TIP3    H157736   0.527   5.458   5.164  0.4989 -1.6265  0.8600
12107TIP3    H257737   0.518   5.584   5.248 -1.2875  0.2598 -2.0738
12108TIP3   OH257738   5.595   2.575  16.100 -0.2801  0.0212 -0.1894
12108TIP3    H157739   5.624   2.650  16.050  0.1812  1.2926  1.9232
12108TIP3    H257740   5.624   2.593  16.190 -5.1535  0.1012  1.5267
12109TIP3   OH257741   4.154   1.081  16.171  1.2933 -0.6267 -0.3413
12109TIP3    H157742   4.131   1.165  16.212 -1.5935 -2.0843  1.1159
12109TIP3    H257743   4.249   1.074  16.184  1.3047  1.5517  1.1371
12110TIP3   OH257744   3.948   0.714   0.398 -0.3509 -0.3172 -0.0412
12110TIP3    H157745   3.924   0.632   0.443 -1.4598  0.2969  0.5044
12110TIP3    H257746   3.869   0.768   0.404 -0.0531  0.3069 -1.5355
12111TIP3   OH257747   5.044   6.337  12.685 -0.5238 -0.5193  0.4768
12111TIP3    H157748   5.073   6.246  12.676 -1.5733 -0.9342  1.1941
12111TIP3    H257749   5.117   6.389  12.650 -0.3151 -1.6640 -0.8386
12112TIP3   OH257750   1.076   3.245   5.139 -0.9138  0.3796  0.1227
12112TIP3    H157751   1.044   3.331   5.111 -0.3359  0.7797  0.6770
12112TIP3    H257752   1.005   3.185   5.116 -1.6588  1.1201  0.4620
12113TIP3   OH257753   0.201   4.190   3.530 -0.4619  0.4270 -0.2278
12113TIP3    H157754   0.212   4.253   3.458 -0.6511  0.1108 -0.5367
12113TIP3    H257755   0.135   4.129   3.498 -0.3330  0.1141  0.1011
12114TIP3   OH257756   2.467   0.283  11.965 -0.4140 -0.4950  0.2968
12114TIP3    H157757   2.413   0.294  12.043 -1.8816  0.0014 -0.7665
12114TIP3    H257758   2.527   0.358  11.966 -0.3506 -0.5504  0.9913
12115TIP3   OH257759   2.098   4.026  13.628  0.4907  0.2625 -0.0728
12115TIP3    H157760   2.115   4.119  13.640 -2.8623  0.9387  0.0134
12115TIP3    H257761   2.005   4.021  13.606  0.2298 -3.1736  1.3690
12116TIP3   OH257762   5.468   0.469  17.007 -0.2945  0.4873  0.1061
12116TIP3    H157763   5.549   0.480  16.958 -0.4428  1.4345  0.0649
12116TIP3    H257764   5.420   0.551  16.993 -0.3683  0.7426  1.7428
12117TIP3   OH257765   5.759   0.463   2.217 -0.0441  0.3592 -0.2049
12117TIP3    H157766   5.766   0.510   2.300  3.6766 -0.1958 -0.1039
12117TIP3    H257767   5.776   0.530   2.151 -1.5206  0.4951 -0.4639
12118TIP3   OH257768   0.093   6.592  12.346 -0.5963  0.2689 -0.4380
12118TIP3    H157769   0.002   6.600  12.377 -0.5256 -0.1353 -0.1182
12118TIP3    H257770   0.133   6.529  12.406  0.2088  1.2943  0.1131
12119TIP3   OH257771   1.720   1.323  14.158  0.0381  0.3405 -0.4355
12119TIP3    H157772   1.796   1.307  14.214 -0.9226  0.6032  0.9513
12119TIP3    H257773   1.750   1.387  14.094  1.1936 -0.0951 -0.3405
12120TIP3   OH257774   1.152   6.745  12.166 -0.3038  0.2100  0.0025
12120TIP3    H157775   1.181   6.813  12.104  2.3879 -1.1858 -0.3385
12120TIP3    H257776   1.123   6.794  12.243  2.1452  1.7718 -0.0136
12121TIP3   OH257777   1.806   2.695  11.483 -0.6674 -0.4174 -0.4604
12121TIP3    H157778   1.843   2.747  11.412  0.3238 -0.6851 -0.1549
12121TIP3    H257779   1.753   2.628  11.440 -1.9389  0.8369 -0.8530
12122TIP3   OH257780   0.786   6.500   3.630  0.3037 -0.2001 -0.0397
12122TIP3    H157781   0.859   6.547   3.590  0.3134  0.0709  0.2925
12122TIP3    H257782   0.711   6.519   3.574  0.1495  0.8083  0.5018
12123TIP3   OH257783   3.129   6.065   1.724 -0.3090  0.4544  0.0401
12123TIP3    H157784   3.151   6.156   1.745  2.2012 -0.1929  0.4217
12123TIP3    H257785   3.091   6.030   1.805  0.5163  0.6462  0.5204
12124TIP3   OH257786   5.838   1.232  13.584  0.0942 -0.2799 -0.1284
12124TIP3    H157787   5.861   1.322  13.606 -1.3753 -0.4036  2.1057
12124TIP3    H257788   5.766   1.210  13.644  0.3130 -2.8755 -0.7422
12125TIP3   OH257789   5.352   3.548   5.150 -0.2778  0.8624 -0.0626
12125TIP3    H157790   5.279   3.571   5.092 -2.2196 -1.2255  1.4782
12125TIP3    H257791   5.316   3.557   5.239  1.8240  1.3236  0.7702
12126TIP3   OH257792   1.855   3.377   3.581  0.1165  0.1963 -0.5917
12126TIP3    H157793   1.762   3.367   3.560 -0.5486  2.7308  0.7995
12126TIP3    H257794   1.873   3.470   3.565  2.2793 -0.1463 -0.3247
12127TIP3   OH257795   3.560   4.844  12.709 -0.1519  0.3486 -0.4034
12127TIP3    H157796   3.645   4.886  12.695  1.0565 -1.5979  0.7563
12127TIP3    H257797   3.540   4.802  12.625 -0.3499  1.4774 -0.9196
12128TIP3   OH257798   5.107   2.970  10.892  0.1496  0.6068  0.1798
12128TIP3    H157799   5.095   3.049  10.840 -1.8283  0.7176  0.7461
12128TIP3    H257800   5.154   2.998  10.970 -1.1144  1.3855  0.6857
12129TIP3   OH257801   3.794   6.019  17.134 -0.2093 -0.6369 -0.4555
12129TIP3    H157802   3.844   5.983  17.061  0.3555  0.9930 -0.8879
12129TIP3    H257803   3.849   6.089  17.169 -1.2887 -0.1775  0.3743
12130TIP3   OH257804   5.455   5.251   2.906 -0.3117 -0.0780 -0.8918
12130TIP3    H157805   5.409   5.254   2.990  0.4008  0.2026 -0.5117
12130TIP3    H257806   5.547   5.267   2.928 -0.3078  1.3110 -1.8683
12131TIP3   OH257807   2.523   2.309   0.701 -0.3825  0.2409  0.0066
12131TIP3    H157808   2.448   2.284   0.755 -1.1179 -0.8886 -1.4870
12131TIP3    H257809   2.485   2.368   0.635  0.4233  1.2557  0.4255
12132TIP3   OH257810   2.164   1.474  17.034 -0.2502 -0.2316 -0.3184
12132TIP3    H157811   2.169   1.569  17.020 -1.8562 -0.2738 -1.3650
12132TIP3    H257812   2.255   1.445  17.037  0.2493  1.2530 -0.7323
12133TIP3   OH257813   5.466   1.509   5.876  0.5835  0.6300 -0.0784
12133TIP3    H157814   5.465   1.515   5.972 -1.5644 -1.9777  0.1083
12133TIP3    H257815   5.375   1.490   5.852  1.4610 -0.6531 -2.5031
12134TIP3   OH257816   0.260   1.342  14.972 -0.2676  0.5937 -0.1604
12134TIP3    H157817   0.275   1.332  15.066  0.8944 -0.2238 -0.4176
12134TIP3    H257818   0.234   1.254  14.943 -2.8611  1.3349 -0.2341
12135TIP3   OH257819   1.044   0.513  12.050  0.6457 -0.5454  0.3211
12135TIP3    H157820   0.977   0.581  12.039 -0.8752 -2.0683  0.0334
12135TIP3    H257821   1.104   0.550  12.115  0.1803  1.3276 -0.2747
12136TIP3   OH257822   1.745   3.182   2.683  0.3983  0.3326  0.0130
12136TIP3    H157823   1.802   3.218   2.615 -0.5904  0.3000 -0.8498
12136TIP3    H257824   1.681   3.128   2.636 -0.3315  0.3448  0.9547
12137TIP3   OH257825   3.442   5.857  13.033  0.5951 -0.6050 -0.1171
12137TIP3    H157826   3.434   5.847  12.938 -1.2288 -1.2781  0.0775
12137TIP3    H257827   3.498   5.784  13.060  1.7393  0.0288 -0.7496
12138TIP3   OH257828   6.243   0.595   5.461  0.3733  0.1034 -0.4045
12138TIP3    H157829   6.249   0.663   5.394  0.8771  0.6444  0.1754
12138TIP3    H257830   6.315   0.535   5.440 -0.0678 -0.2468 -0.9129
12139TIP3   OH257831   0.945   4.930   4.033  0.0485 -0.0234 -0.1360
12139TIP3    H157832   0.932   5.025   4.037 -1.2916 -0.1513 -1.1143
12139TIP3    H257833   0.958   4.912   3.939  1.3435 -0.6927  0.1545
12140TIP3   OH257834   3.876   4.505   1.479 -0.5308 -0.1105  0.1498
12140TIP3    H157835   3.889   4.455   1.398  1.1199 -0.4539  0.6052
12140TIP3    H257836   3.786   4.486   1.505 -0.3651 -1.7554 -0.4072
12141TIP3   OH257837   3.631   0.272  13.981 -0.2609 -0.3877  0.0285
12141TIP3    H157838   3.551   0.247  14.028 -0.4370  0.0296 -0.0491
12141TIP3    H257839   3.690   0.197  13.993 -1.5973 -1.8044 -2.0719
12142TIP3   OH257840   2.872   0.554  16.593 -0.0339  0.1381  0.0912
12142TIP3    H157841   2.794   0.584  16.547 -0.4525  0.1236  0.7824
12142TIP3    H257842   2.881   0.462  16.568 -0.1815  0.1690 -0.0723
12143TIP3   OH257843   0.470   2.277   5.014  0.1338  0.1130  0.1994
12143TIP3    H157844   0.384   2.250   5.047 -0.0663  1.3080  0.6868
12143TIP3    H257845   0.492   2.355   5.065  2.2715 -1.1318  1.2609
12144TIP3   OH257846   2.417   6.599  14.324  0.5842 -0.5128  0.0409
12144TIP3    H157847   2.474   6.676  14.320  0.5820 -0.4581  0.9228
12144TIP3    H257848   2.383   6.600  14.413  1.1865 -1.9641  0.2953
12145TIP3   OH257849   6.291   3.982   1.261 -0.3022  0.3196  0.1785
12145TIP3    H157850   6.289   3.977   1.165 -0.5827  1.6488  0.1107
12145TIP3    H257851   6.304   4.074   1.280 -0.9709  0.1647  1.4437
12146TIP3   OH257852   0.076   4.458  16.374 -0.9742  0.4211  0.0927
12146TIP3    H157853   0.030   4.394  16.320  2.5929 -2.1976 -0.0750
12146TIP3    H257854   0.134   4.504  16.313  1.0005 -0.5853  1.1487
12147TIP3   OH257855   2.637   2.255  16.438 -0.6117 -0.0518  0.4504
12147TIP3    H157856   2.571   2.191  16.466 -0.0604  0.0224  1.9862
12147TIP3    H257857   2.610   2.281  16.350 -1.1824 -1.9330  0.0607
12148TIP3   OH257858   0.052   0.797   1.249  0.0980  0.0356  0.1882
12148TIP3    H157859   0.076   0.723   1.194  1.1555 -0.6886  1.5806
12148TIP3    H257860   0.127   0.809   1.307 -1.5782 -0.2026  2.4925
12149TIP3   OH257861   4.474   1.474  15.264 -0.4396  0.5479 -0.8058
12149TIP3    H157862   4.443   1.547  15.210 -1.6625  1.3112  0.8871
12149TIP3    H257863   4.401   1.455  15.323 -0.0826 -1.9664 -1.1143
12150TIP3   OH257864   6.273   4.750   3.617 -0.1470  0.4382 -0.0816
12150TIP3    H157865   6.283   4.661   3.583 -0.9649  0.1484  0.4149
12150TIP3    H257866   6.195   4.784   3.574 -0.2357  0.6643  0.2553
12151TIP3   OH257867   5.343   4.879  15.247 -0.1918  0.4446  0.0678
12151TIP3    H157868   5.260   4.853  15.286 -0.1550 -0.8957 -0.6941
12151TIP3    H257869   5.320   4.916  15.162  0.0861 -1.6236 -0.9492
12152TIP3   OH257870   4.529   1.292  12.159  0.1492  0.3985  0.2239
12152TIP3    H157871   4.495   1.377  12.188 -0.2248  1.2052 -2.4207
12152TIP3    H257872   4.451   1.241  12.139  0.4070  0.1943 -0.2596
12153TIP3   OH257873   2.488   4.776  14.087  0.3289 -0.0114 -0.8570
12153TIP3    H157874   2.579   4.794  14.065  0.2941  0.2032 -0.8331
12153TIP3    H257875   2.442   4.859  14.068  0.3487  0.2699  0.3107
12154TIP3   OH257876   5.080   3.251  13.151  0.0230  0.0430  0.2911
12154TIP3    H157877   4.989   3.263  13.176 -0.3573  1.5114 -1.6662
12154TIP3    H257878   5.126   3.235  13.234 -2.0806 -1.3285  1.2311
12155TIP3   OH257879   2.504   2.280   3.636  0.0506  0.2383  0.3317
12155TIP3    H157880   2.525   2.191   3.664  1.5063  0.7674  0.9468
12155TIP3    H257881   2.579   2.332   3.663  0.2459  1.2694 -2.1151
12156TIP3   OH257882   2.712   3.181   6.485  0.0720 -0.3334  0.5449
12156TIP3    H157883   2.748   3.225   6.562  1.6237 -0.2169 -0.2397
12156TIP3    H257884   2.639   3.130   6.519 -0.9284  1.7765  1.6886
12157TIP3   OH257885   6.145   1.159  10.620 -0.0502 -0.8865  0.4922
12157TIP3    H157886   6.074   1.138  10.680 -1.2628  1.3737 -0.0623
12157TIP3    H257887   6.170   1.249  10.642  1.9049 -1.2535 -0.0526
12158TIP3   OH257888   3.601   5.644   4.698  0.0810 -0.7367 -0.2555
12158TIP3    H157889   3.522   5.657   4.751  0.5531  0.5257  0.1364
12158TIP3    H257890   3.631   5.556   4.722  0.3862 -0.1017  1.6993
12159TIP3   OH257891   2.901   4.261  15.177 -0.6362  0.1978  0.1845
12159TIP3    H157892   2.975   4.269  15.117 -0.4801 -0.0918  0.3423
12159TIP3    H257893   2.889   4.167  15.188  0.5487  0.2618  2.1327
12160TIP3   OH257894   6.061   5.891  12.379 -0.0034 -0.0473 -0.2964
12160TIP3    H157895   6.129   5.951  12.348  0.8838  0.5348  2.6226
12160TIP3    H257896   6.106   5.807  12.388 -0.0992 -0.0796 -0.1036
12161TIP3   OH257897   5.728   5.904  13.802 -0.2924  0.1448  0.0296
12161TIP3    H157898   5.681   5.822  13.791 -0.4655  0.3676 -0.8730
12161TIP3    H257899   5.775   5.917  13.720  0.0039  0.7800  0.2946
12162TIP3   OH257900   6.685   3.555   4.523  0.4026  0.0657  0.1267
12162TIP3    H157901   6.691   3.649   4.539  1.4759 -0.2299  1.5643
12162TIP3    H257902   6.653   3.518   4.605 -0.7627 -0.7525 -0.6786
12163TIP3   OH257903   4.307   5.106  17.191 -0.6863 -0.0986  0.9707
12163TIP3    H157904   4.376   5.173  17.183 -0.5580 -0.2463  0.8308
12163TIP3    H257905   4.346   5.039  17.247 -0.8608  0.0011  1.2113
12164TIP3   OH257906   1.450   5.608  16.665  0.2588 -0.2040  0.1229
12164TIP3    H157907   1.435   5.690  16.617  3.0515 -0.3994 -1.2422
12164TIP3    H257908   1.501   5.635  16.741 -0.1067 -0.4853  0.4640
12165TIP3   OH257909   4.360   1.073  10.889 -0.1025 -0.4293  0.6673
12165TIP3    H157910   4.316   1.001  10.845 -0.8279  0.3654  0.0659
12165TIP3    H257911   4.325   1.072  10.978 -1.3888  0.2153  0.1885
12166TIP3   OH257912   6.719   3.581   0.977  0.1700 -0.0456 -0.2097
12166TIP3    H157913   6.658   3.600   0.906 -0.2709 -3.5653 -0.8606
12166TIP3    H257914   6.804   3.571   0.933  0.2038 -0.4919 -0.0493
12167TIP3   OH257915   5.416   5.563   0.246 -0.4093 -0.8191 -0.2197
12167TIP3    H157916   5.446   5.498   0.308  2.1613 -2.8260 -3.3982
12167TIP3    H257917   5.423   5.647   0.292 -1.2920 -2.4789  3.0341
12168TIP3   OH257918   6.285   0.464   0.714 -0.3143  0.0211 -0.7654
12168TIP3    H157919   6.235   0.535   0.673 -1.2251 -0.1917 -0.0376
12168TIP3    H257920   6.244   0.453   0.800  0.1447 -1.0504 -0.6829
12169TIP3   OH257921   4.588   0.330   4.691  0.2365 -0.5229 -0.6529
12169TIP3    H157922   4.549   0.408   4.651  0.8521 -0.0480 -0.3413
12169TIP3    H257923   4.676   0.326   4.654  0.2278 -1.0406 -0.6201
12170TIP3   OH257924   6.261   6.493  16.721 -0.1683  0.0016 -0.3155
12170TIP3    H157925   6.274   6.570  16.665 -2.1112 -0.7199 -1.8017
12170TIP3    H257926   6.238   6.423  16.660  0.2078 -1.4419  1.1599
12171TIP3   OH257927   0.150   5.092  16.604 -0.0592 -0.1105 -0.6353
12171TIP3    H157928   0.080   5.155  16.623  0.7061  0.1903  1.2327
12171TIP3    H257929   0.149   5.032  16.679  0.6506 -1.0494 -1.3647
12172TIP3   OH257930   6.172   5.394   3.915  0.2889 -0.1960  0.6553
12172TIP3    H157931   6.136   5.438   3.838  1.1205 -2.2857 -0.9898
12172TIP3    H257932   6.101   5.339   3.947  0.4105 -0.4736  0.4545
12173TIP3   OH257933   4.408   5.916  14.651 -0.5996  0.0686 -0.5117
12173TIP3    H157934   4.390   5.940  14.742  0.9322 -1.0613  0.1044
12173TIP3    H257935   4.387   5.995  14.601  1.2568  1.6612  1.1308
12174TIP3   OH257936   2.258   6.372  17.041 -0.8279 -0.2849  0.7899
12174TIP3    H157937   2.172   6.384  17.001  0.2503  0.9394 -1.2161
12174TIP3    H257938   2.275   6.278  17.032 -1.4809 -0.3572  0.2232
12175TIP3   OH257939   5.476   1.693   3.361 -0.2802  0.4221 -0.5530
12175TIP3    H157940   5.406   1.685   3.425  0.1995 -0.2380 -0.1111
12175TIP3    H257941   5.538   1.755   3.400  0.6882 -1.0239  0.2415
12176TIP3   OH257942   4.925   4.445  12.010 -0.6639  0.2285  0.4465
12176TIP3    H157943   4.884   4.475  11.929 -0.4275 -1.0787 -0.1601
12176TIP3    H257944   5.007   4.494  12.015 -0.2757 -0.2969 -0.5493
12177TIP3   OH257945   2.574   0.513  14.122  0.3458 -0.2325 -0.6506
12177TIP3    H157946   2.522   0.566  14.182  0.8590 -0.8689  0.3697
12177TIP3    H257947   2.653   0.564  14.107  1.4575 -1.3038  1.4210
12178TIP3   OH257948   1.533   3.684   1.565 -0.9824 -0.0010  0.1000
12178TIP3    H157949   1.597   3.661   1.632 -1.0270 -0.8327 -0.1447
12178TIP3    H257950   1.578   3.749   1.511 -1.3545  1.5527  1.6180
12179TIP3   OH257951   3.648   2.780   3.082 -0.3772  0.2825  0.5912
12179TIP3    H157952   3.732   2.801   3.040 -0.6584  2.3016  0.9760
12179TIP3    H257953   3.663   2.797   3.175 -0.5585 -1.5739  0.9840
12180TIP3   OH257954   0.540   4.803   0.413 -0.4057 -0.0395 -0.0181
12180TIP3    H157955   0.458   4.780   0.457 -0.3816 -0.3957 -0.1553
12180TIP3    H257956   0.559   4.892   0.443 -1.2396  0.3344 -0.5747
12181TIP3   OH257957   5.066   6.190  15.242  0.0670 -1.3587  0.5753
12181TIP3    H157958   5.081   6.284  15.250 -0.4806 -1.2739  0.6199
12181TIP3    H257959   5.041   6.163  15.331  0.2010 -1.5459  0.5584
12182TIP3   OH257960   5.777   0.855  13.914 -0.3448 -0.5127  0.5807
12182TIP3    H157961   5.821   0.781  13.955  3.4569  0.9904 -0.6052
12182TIP3    H257962   5.745   0.821  13.831  1.2130 -0.9319  0.1279
12183TIP3   OH257963   2.404   5.115   1.972  0.4121 -0.6239 -0.0530
12183TIP3    H157964   2.415   5.029   2.013  0.7436 -0.9561 -0.8369
12183TIP3    H257965   2.460   5.174   2.023  0.0719 -0.8446  0.5731
12184TIP3   OH257966   1.880   1.830  14.774  0.0524 -0.4005  0.1788
12184TIP3    H157967   1.858   1.744  14.809 -0.6659 -0.4624 -0.4125
12184TIP3    H257968   1.963   1.818  14.730  2.6062  0.3526  4.4902
12185TIP3   OH257969   2.356   1.636   3.344 -0.1711  0.1134  0.5145
12185TIP3    H157970   2.387   1.654   3.433  2.2921  2.1871 -0.7091
12185TIP3    H257971   2.401   1.556   3.318  3.5858  2.5783 -0.8889
12186TIP3   OH257972   0.342   5.206  11.041  0.1918 -0.4760  0.2991
12186TIP3    H157973   0.379   5.206  10.953 -1.4807  1.1195 -0.4452
12186TIP3    H257974   0.248   5.219  11.028 -0.0948 -0.2708  2.3159
12187TIP3   OH257975   1.793   4.219   2.608 -0.2444  0.4050  0.0769
12187TIP3    H157976   1.848   4.266   2.545  2.5872  0.4623  2.4661
12187TIP3    H257977   1.805   4.126   2.587  1.9397  0.3428  1.4260
12188TIP3   OH257978   3.889   5.894  10.556 -0.0750  0.1218  0.3567
12188TIP3    H157979   3.897   5.809  10.600 -0.8993 -2.0701 -3.5374
12188TIP3    H257980   3.956   5.892  10.488 -0.4956  2.3886 -0.1567
12189TIP3   OH257981   6.124   0.653   0.610  0.8693 -0.3806 -0.5139
12189TIP3    H157982   6.174   0.725   0.649 -0.8058  0.1618  0.7302
12189TIP3    H257983   6.037   0.690   0.596  0.5776 -1.5509 -1.8286
12190TIP3   OH257984   6.001   2.841  14.751 -0.2228 -0.1986 -0.0808
12190TIP3    H157985   6.035   2.929  14.771  1.6571 -1.1828  1.1471
12190TIP3    H257986   5.917   2.837  14.796 -0.4152  1.0309 -0.2955
12191TIP3   OH257987   5.427   3.114  16.254 -0.0074 -0.5075 -0.4746
12191TIP3    H157988   5.498   3.068  16.209 -0.7226 -0.3580 -1.7698
12191TIP3    H257989   5.457   3.122  16.344  0.9011 -1.9223 -0.6473
12192TIP3   OH257990   5.839   3.583   3.197 -0.3187  0.6002  0.2624
12192TIP3    H157991   5.866   3.619   3.113  0.6357  1.0466  0.7611
12192TIP3    H257992   5.824   3.659   3.253 -1.2834  0.3158  0.4085
12193TIP3   OH257993   3.853   1.919   2.688  0.1684 -0.0608 -0.3453
12193TIP3    H157994   3.798   1.855   2.733  1.1034  1.2087  2.7025
12193TIP3    H257995   3.791   1.977   2.643 -0.8640 -0.2716  0.7906
12194TIP3   OH257996   3.944   1.350   1.828  0.2685  0.1863 -0.4768
12194TIP3    H157997   4.024   1.300   1.846 -1.5089 -3.0903 -1.2143
12194TIP3    H257998   3.913   1.377   1.915  1.7593  0.8588 -0.1374
12195TIP3   OH257999   2.140   1.174  16.410 -0.3900  0.0627  0.4248
12195TIP3    H158000   2.166   1.232  16.483 -0.6414 -0.7646  1.1826
12195TIP3    H258001   2.080   1.227  16.358  0.5425  1.0016  0.2697
12196TIP3   OH258002   6.361   2.305  13.235 -0.2609  0.0952 -0.0690
12196TIP3    H158003   6.324   2.220  13.211 -0.3382  0.4286 -1.1539
12196TIP3    H258004   6.287   2.355  13.270  0.2344 -1.0654  2.7606
12197TIP3   OH258005   5.707   4.533  14.099  0.0774  0.3727 -0.3027
12197TIP3    H158006   5.641   4.509  14.034  0.3127  0.1606 -0.4642
12197TIP3    H258007   5.742   4.449  14.129 -0.0556  0.4701  0.1218
12198TIP3   OH258008   3.743   3.586   1.500  0.2477  0.3099  0.2473
12198TIP3    H158009   3.727   3.586   1.595  2.0689 -0.0919  0.5760
12198TIP3    H258010   3.670   3.535   1.464  0.2091 -0.6031  1.5697
12199TIP3   OH258011   4.873   4.688  13.906  0.2572  0.2333 -0.5043
12199TIP3    H158012   4.903   4.598  13.917 -2.0985 -0.3748  1.3630
12199TIP3    H258013   4.856   4.696  13.812  2.7533 -0.4773 -1.0710
12200TIP3   OH258014   0.579   1.310  11.616  1.1735 -0.3304 -0.1736
12200TIP3    H158015   0.638   1.307  11.541 -0.1761  0.1941 -1.2656
12200TIP3    H258016   0.557   1.218  11.633  0.3879 -0.3625 -1.3006
12201TIP3   OH258017   6.672   5.469  15.541 -0.0588  0.2989  0.5861
12201TIP3    H158018   6.580   5.464  15.567 -0.4201 -2.2375 -0.9826
12201TIP3    H258019   6.715   5.404  15.598  0.1976 -0.7867 -0.8251
12202TIP3   OH258020   0.251   0.094  13.679  0.0303 -0.1135  0.7603
12202TIP3    H158021   0.275   0.100  13.771  1.0054  0.3251  0.4790
12202TIP3    H258022   0.156   0.088  13.680 -0.1389  2.1954  1.6790
12203TIP3   OH258023   2.724   5.160   0.361  0.3080  0.2887  0.5035
12203TIP3    H158024   2.642   5.179   0.315  0.5250  1.1196  0.4685
12203TIP3    H258025   2.696   5.107   0.437 -0.2170  0.2584  0.2930
12204TIP3   OH258026   4.276   2.729   3.283  0.3838  0.3816 -0.6415
12204TIP3    H158027   4.248   2.791   3.351  0.7962  1.8015 -1.7461
12204TIP3    H258028   4.201   2.672   3.270 -0.9095  2.2039 -1.3686
12205TIP3   OH258029   5.809   6.207   6.069 -0.3703 -0.4638  0.5140
12205TIP3    H158030   5.730   6.262   6.075 -0.3584 -0.5392  1.5330
12205TIP3    H258031   5.865   6.239   6.140  0.2960 -0.7670  0.1257
12206TIP3   OH258032   6.595   6.601  13.217 -0.4480 -0.9315  0.1746
12206TIP3    H158033   6.526   6.621  13.153 -0.2267  1.7294  0.6989
12206TIP3    H258034   6.674   6.639  13.179  0.2161 -1.7185  0.7689
12207TIP3   OH258035   0.343   3.316   4.078  0.1636 -0.0331  0.3384
12207TIP3    H158036   0.323   3.223   4.089  0.2788  0.0810  1.5845
12207TIP3    H258037   0.295   3.359   4.148  0.7917  0.7569  0.2883
12208TIP3   OH258038   0.351   0.876  14.030 -0.3517 -0.0353  0.1445
12208TIP3    H158039   0.325   0.814  13.961 -0.0804 -0.6183  0.5607
12208TIP3    H258040   0.300   0.955  14.012  0.2027  0.0375 -1.1052
12209TIP3   OH258041   3.741   4.739  13.986  0.6139  1.2178  0.2034
12209TIP3    H158042   3.698   4.702  14.062  0.8305  0.2967 -0.1141
12209TIP3    H258043   3.714   4.831  13.985 -1.5036  0.6099 -0.1215
12210TIP3   OH258044   6.179   2.854   5.290  0.0536 -0.3167 -0.1971
12210TIP3    H158045   6.221   2.923   5.340  2.3672 -0.4426 -1.8810
12210TIP3    H258046   6.247   2.788   5.277 -0.8202 -0.8572 -2.4224
12211TIP3   OH258047   0.035   3.681  13.510  0.4202  0.2059 -0.3083
12211TIP3    H158048   0.084   3.608  13.472  1.0369 -0.3899  1.5992
12211TIP3    H258049  -0.055   3.649  13.517  0.6181 -0.2245  0.1917
12212TIP3   OH258050   4.160   6.305   4.044  0.5997 -0.2363 -0.3032
12212TIP3    H158051   4.230   6.295   3.980  0.5208  1.0007 -0.5856
12212TIP3    H258052   4.080   6.292   3.994  0.4833  2.1343 -0.7393
12213TIP3   OH258053   3.632   3.879  12.289  0.1096 -0.2323 -0.3393
12213TIP3    H158054   3.584   3.868  12.207 -0.3200 -0.6087 -0.0421
12213TIP3    H258055   3.594   3.959  12.327  0.9685  0.4755 -0.9535
12214TIP3   OH258056   6.070   2.093  16.109 -1.0315 -0.5434  0.4327
12214TIP3    H158057   5.979   2.119  16.121 -1.0505  0.5327 -1.7505
12214TIP3    H258058   6.067   2.018  16.049 -0.4547 -0.0456 -0.2354
12215TIP3   OH258059   3.839   5.957  11.996  0.0809  0.7070  0.4941
12215TIP3    H158060   3.869   6.022  12.060 -3.0076  0.4459  2.3571
12215TIP3    H258061   3.799   6.009  11.926  0.2261  0.9129  0.5657
12216TIP3   OH258062   4.121   3.726  12.422 -0.2027  0.0035 -0.0546
12216TIP3    H158063   4.077   3.803  12.387 -0.3647  0.0904  0.3416
12216TIP3    H258064   4.060   3.654  12.405 -0.5864  0.1548  0.6746
12217TIP3   OH258065   3.056   6.203  15.563  0.0628 -0.7036 -0.0122
12217TIP3    H158066   3.100   6.277  15.605  1.2876  0.3019 -2.9454
12217TIP3    H258067   2.978   6.241  15.523 -0.7750 -1.5417  0.8038
12218TIP3   OH258068   2.336   0.604   1.083  0.0029  0.7006 -0.2962
12218TIP3    H158069   2.283   0.530   1.113  1.7447 -0.3418  0.2853
12218TIP3    H258070   2.272   0.671   1.059 -1.6323 -1.2704 -1.5819
12219TIP3   OH258071   0.575   2.780  13.347 -0.3008  0.0558  0.2152
12219TIP3    H158072   0.571   2.822  13.261 -0.5472  1.1617  0.7478
12219TIP3    H258073   0.524   2.838  13.404  0.5964 -0.1873  1.2838
12220TIP3   OH258074   0.297   1.636  11.471 -0.4054 -0.0374  0.4836
12220TIP3    H158075   0.250   1.719  11.478 -0.4006  0.0393 -0.3493
12220TIP3    H258076   0.232   1.574  11.439 -0.2835 -0.2402  0.6280
12221TIP3   OH258077   4.448   2.167   1.425  0.1314 -0.0300  0.2818
12221TIP3    H158078   4.490   2.249   1.452 -2.3334  1.7141 -0.9969
12221TIP3    H258079   4.421   2.126   1.507  3.2299 -0.6497  1.0680
12222TIP3   OH258080   4.049   4.614  14.606  0.0019  0.0176 -0.1534
12222TIP3    H158081   3.967   4.585  14.567  0.4747 -0.1637 -1.0236
12222TIP3    H258082   4.071   4.694  14.560  0.2502  0.1374  0.1685
12223TIP3   OH258083   4.591   0.464   5.618  0.2216  0.1989  0.1469
12223TIP3    H158084   4.539   0.384   5.610 -1.5823  1.3200  0.4454
12223TIP3    H258085   4.619   0.484   5.529 -0.3488 -0.0888 -0.0956
12224TIP3   OH258086   0.277   6.456  12.101 -0.0159  0.2586 -0.1526
12224TIP3    H158087   0.347   6.392  12.111 -0.4290 -0.2061 -0.1986
12224TIP3    H258088   0.264   6.491  12.188 -0.0788 -0.0335 -0.0421
12225TIP3   OH258089   5.337   4.294   0.351 -0.2550  0.2436 -0.1177
12225TIP3    H158090   5.309   4.204   0.364  1.4682 -0.1230  1.1866
12225TIP3    H258091   5.298   4.342   0.425 -0.1644  0.3404 -0.1325
12226TIP3   OH258092   6.459   3.216   4.945 -0.1959 -0.5354 -0.4165
12226TIP3    H158093   6.545   3.193   4.982  0.3375  0.7591 -0.8143
12226TIP3    H258094   6.474   3.220   4.851 -0.6832 -0.2887 -0.4819
12227TIP3   OH258095   1.255   6.277   2.193 -0.3981 -0.2958 -0.6131
12227TIP3    H158096   1.255   6.193   2.238  1.4479 -0.1757 -0.3662
12227TIP3    H258097   1.197   6.333   2.245 -1.6879 -1.4287 -0.8221
12228TIP3   OH258098   1.649   0.731  15.043  0.2780 -0.3236 -0.5607
12228TIP3    H158099   1.704   0.656  15.065 -0.3589 -0.9420 -1.0416
12228TIP3    H258100   1.589   0.698  14.975 -0.2727  0.5066 -0.4892
12229TIP3   OH258101   3.815   3.046  15.709  0.5503 -0.5935  0.7446
12229TIP3    H158102   3.810   3.051  15.613  0.0334  1.8234  0.8614
12229TIP3    H258103   3.889   2.988  15.726  2.7585  1.5540 -1.1412
12230TIP3   OH258104   2.886   4.538  14.646 -0.2490  0.4230  0.4508
12230TIP3    H158105   2.859   4.598  14.577  2.0728  0.4341 -0.5166
12230TIP3    H258106   2.912   4.595  14.718  2.0375  0.6424 -0.4987
12231TIP3   OH258107   6.339   3.774  15.949 -0.0280  0.6031  0.5480
12231TIP3    H158108   6.322   3.844  16.013 -1.1030  0.5836  0.2942
12231TIP3    H258109   6.349   3.819  15.866  0.8045  0.5804  0.6373
12232TIP3   OH258110   2.788   5.919  13.838 -0.2131  0.0983 -1.2487
12232TIP3    H158111   2.848   5.980  13.795 -0.0127  1.2672  0.6353
12232TIP3    H258112   2.823   5.907  13.926 -1.6360 -0.7757 -0.7709
12233TIP3   OH258113   5.786   6.309   0.411 -0.0555 -0.3065 -0.7583
12233TIP3    H158114   5.742   6.306   0.495  0.5433  0.5281 -0.4014
12233TIP3    H258115   5.803   6.218   0.389  0.2705 -0.5047  0.2864
12234TIP3   OH258116   6.515   0.220  15.031 -0.1363  0.0073  0.5029
12234TIP3    H158117   6.521   0.313  15.056 -0.6312 -0.2140  1.4913
12234TIP3    H258118   6.573   0.212  14.956  0.3291  1.0114  0.7324
12235TIP3   OH258119   0.540   5.960   3.869  0.3205 -0.3272  0.3328
12235TIP3    H158120   0.488   5.902   3.814  0.1717 -1.9437  2.1521
12235TIP3    H258121   0.475   6.012   3.917  0.3974 -0.9423  1.1130
12236TIP3   OH258122   4.160   2.671  13.612 -0.0555  0.4534  0.3645
12236TIP3    H158123   4.234   2.610  13.619  0.6352  1.3768  1.2246
12236TIP3    H258124   4.127   2.658  13.523  1.2720  0.1724 -0.1021
12237TIP3   OH258125   2.699   6.671   4.202  0.0676  0.2440  0.2974
12237TIP3    H158126   2.611   6.662   4.239 -0.1670 -0.5333 -0.4089
12237TIP3    H258127   2.695   6.621   4.120  1.9483 -2.1362  1.5795
12238TIP3   OH258128   6.563   0.609  13.336  0.1856  0.2066 -0.4040
12238TIP3    H158129   6.486   0.561  13.367  1.0089  0.5958  2.3326
12238TIP3    H258130   6.637   0.552  13.354  0.6584  0.1394 -2.3920
12239TIP3   OH258131   0.862   0.998   3.589  0.0275  0.4894  0.8065
12239TIP3    H158132   0.774   0.961   3.600 -0.1960  0.7884  0.0841
12239TIP3    H258133   0.897   0.953   3.511  0.7896 -0.1416  1.5057
12240TIP3   OH258134   2.503   1.172   0.759 -0.1915  0.4052  0.7462
12240TIP3    H158135   2.569   1.229   0.797  0.0024  0.3834  0.4397
12240TIP3    H258136   2.438   1.232   0.722  1.6166  0.4846 -2.4542
12241TIP3   OH258137   3.163   3.706   4.004 -0.6821  0.0740  0.2584
12241TIP3    H158138   3.072   3.729   4.021 -0.6598  1.0954 -0.9079
12241TIP3    H258139   3.209   3.732   4.084 -1.3505 -0.0514  0.6914
12242TIP3   OH258140   6.635   6.454   2.292 -0.2071 -0.3899 -0.2534
12242TIP3    H158141   6.642   6.419   2.381 -1.7445 -0.6800 -0.2321
12242TIP3    H258142   6.651   6.378   2.235 -0.9872 -0.5891 -0.2125
12243TIP3   OH258143   3.429   5.498  11.538 -0.3382  0.0503  0.1296
12243TIP3    H158144   3.383   5.571  11.579  2.0565  1.9992 -0.4960
12243TIP3    H258145   3.486   5.540  11.473  0.7347 -2.4325 -0.5793
12244TIP3   OH258146   5.937   5.059   4.229  0.1376 -0.1876  0.9198
12244TIP3    H158147   5.851   5.100   4.239  0.1476 -0.2082  1.0941
12244TIP3    H258148   5.951   5.013   4.312 -0.5989 -1.8903  0.1359
12245TIP3   OH258149   2.505   1.938   6.105 -0.7457  0.4327  0.6095
12245TIP3    H158150   2.465   1.896   6.182 -0.3600  0.9921  1.1171
12245TIP3    H258151   2.575   1.992   6.141 -0.3729  0.4686 -0.1689
12246TIP3   OH258152   2.415   0.892  15.588  0.3599  0.0482 -0.4412
12246TIP3    H158153   2.339   0.921  15.537 -0.8067 -1.4951  0.3865
12246TIP3    H258154   2.488   0.943  15.553 -1.0999  1.7982 -1.0438
12247TIP3   OH258155   4.072   0.900   3.629  0.6967  0.1177 -0.0812
12247TIP3    H158156   4.145   0.946   3.586  1.4126 -1.4587 -0.5961
12247TIP3    H258157   4.113   0.823   3.668 -0.4425  0.0606  1.0190
12248TIP3   OH258158   3.045   1.527   5.814 -0.0150  1.0878 -0.2520
12248TIP3    H158159   3.131   1.567   5.802  1.9559 -1.9254  3.0100
12248TIP3    H258160   3.007   1.573   5.888  0.5209 -0.2179  0.8607
12249TIP3   OH258161   2.762   1.659  11.082  0.5540  0.1976 -0.0770
12249TIP3    H158162   2.810   1.604  11.143  1.7587  0.5599 -0.6799
12249TIP3    H258163   2.809   1.650  10.999  0.1159  1.2694 -0.4534
12250TIP3   OH258164   2.469   5.002   0.445 -0.3380  0.1522  0.3222
12250TIP3    H158165   2.376   4.996   0.466 -0.2474  3.6990  2.1808
12250TIP3    H258166   2.472   5.048   0.361 -0.2545 -0.2093  0.1257
12251TIP3   OH258167   0.478   3.488  11.305  0.3607  0.1955  0.8075
12251TIP3    H158168   0.494   3.497  11.211 -1.1370 -1.2214  0.3936
12251TIP3    H258169   0.538   3.420  11.333 -0.8747 -1.0978  0.3771
12252TIP3   OH258170   3.838   3.067  16.016  0.0855  0.5241  0.0620
12252TIP3    H158171   3.765   3.036  16.070  0.1057 -0.5829 -0.5367
12252TIP3    H258172   3.803   3.067  15.927  0.0140  2.4640  0.0784
12253TIP3   OH258173   2.615   2.072   2.922 -0.2227  0.2839  0.1436
12253TIP3    H158174   2.603   2.137   2.853  0.6161 -0.0276 -0.3001
12253TIP3    H258175   2.526   2.044   2.944 -0.4723 -0.0932 -1.2667
12254TIP3   OH258176   2.580   6.707  12.068  0.2672  0.3114 -0.1796
12254TIP3    H158177   2.640   6.777  12.042 -0.1038  0.0493 -1.8299
12254TIP3    H258178   2.518   6.701  11.995  0.1923 -1.6104  0.0274
12255TIP3   OH258179   5.126   0.222  15.867  0.8493 -0.2606  0.3502
12255TIP3    H158180   5.059   0.282  15.901 -0.8304 -1.3909 -0.8777
12255TIP3    H258181   5.106   0.138  15.909  1.9516 -0.4589  0.5063
12256TIP3   OH258182   4.250   2.010  17.139 -0.3618 -0.0925 -0.0749
12256TIP3    H158183   4.334   2.019  17.185  0.1561  0.2757 -1.0782
12256TIP3    H258184   4.214   2.098  17.137  0.1810  0.1142 -1.4093
12257TIP3   OH258185   3.691   2.581   0.249 -0.2451  0.5479 -0.0734
12257TIP3    H158186   3.659   2.662   0.288 -0.7633 -0.4357  1.5874
12257TIP3    H258187   3.662   2.512   0.309  1.1189 -0.7671 -0.8909
12258TIP3   OH258188   1.151   4.979   6.727  0.1632  0.2458 -0.1837
12258TIP3    H158189   1.154   5.074   6.718 -0.4644  0.2378 -0.4989
12258TIP3    H258190   1.186   4.946   6.644 -3.0806  0.1894 -1.5987
12259TIP3   OH258191   4.758   1.324  14.583 -0.3272  0.1686 -0.2388
12259TIP3    H158192   4.815   1.249  14.569 -1.1789 -0.1847 -1.9449
12259TIP3    H258193   4.817   1.399  14.582  0.0691 -0.1512 -2.4478
12260TIP3   OH258194   1.670   5.588  14.821  0.0571  0.3188 -0.6146
12260TIP3    H158195   1.729   5.540  14.764  0.8379  1.8063 -1.0917
12260TIP3    H258196   1.582   5.561  14.793  0.4772 -1.2292 -0.4798
12261TIP3   OH258197   6.590   5.847   4.245 -0.0272  0.3798 -0.5197
12261TIP3    H158198   6.510   5.803   4.214  0.8801  0.2207 -2.7341
12261TIP3    H258199   6.659   5.814   4.188  1.6819  0.3860  1.4906
12262TIP3   OH258200   2.517   2.740  13.798  0.2514  0.4793 -0.3605
12262TIP3    H158201   2.601   2.770  13.833  0.3555 -0.7955  0.5395
12262TIP3    H258202   2.526   2.645  13.793 -0.9038  0.3886 -0.8956
12263TIP3   OH258203   2.508   3.946   1.130 -0.0307  0.5912 -0.2761
12263TIP3    H158204   2.413   3.941   1.132 -0.0265  0.6494  0.0827
12263TIP3    H258205   2.527   4.040   1.125  0.0298  0.6471  0.9368
12264TIP3   OH258206   0.611   5.396   5.477 -0.1691  0.6941  0.2787
12264TIP3    H158207   0.574   5.446   5.404 -0.6270  0.7094  0.5232
12264TIP3    H258208   0.642   5.315   5.437  0.9040  1.3183 -0.1843
12265TIP3   OH258209   2.585   5.868  12.143  0.0293 -0.1191  0.0032
12265TIP3    H158210   2.587   5.820  12.060  2.1672  1.4709 -0.9082
12265TIP3    H258211   2.495   5.860  12.174 -0.4040 -2.0250 -1.6997
12266TIP3   OH258212   3.578   0.054   0.990  0.3732  0.3640  0.2812
12266TIP3    H158213   3.508   0.025   1.049 -1.7888  0.4405 -2.1374
12266TIP3    H258214   3.620   0.126   1.036 -1.2061  0.3811  1.7579
12267TIP3   OH258215   2.279   5.003   5.677  0.2393 -0.2681  0.0353
12267TIP3    H158216   2.264   4.911   5.654  1.0483 -0.3872 -0.0366
12267TIP3    H258217   2.192   5.042   5.677 -0.3270 -1.4589  1.8235
12268TIP3   OH258218   2.263   5.932   3.778  0.1330 -0.3471  0.0467
12268TIP3    H158219   2.357   5.921   3.795 -0.1883  0.1878  2.3725
12268TIP3    H258220   2.258   5.961   3.687  2.4075  1.8353  0.5464
12269TIP3   OH258221   1.899   3.280   5.705  0.3807  0.4520  0.4746
12269TIP3    H158222   1.903   3.375   5.707  2.8038  0.4142 -0.6742
12269TIP3    H258223   1.922   3.253   5.794 -0.6442  0.9276  0.8940
12270TIP3   OH258224   2.912   0.734   1.913  0.1193 -0.5028 -0.2728
12270TIP3    H158225   2.933   0.690   1.995 -2.2630  0.2185  0.7597
12270TIP3    H258226   2.819   0.713   1.897 -0.4821  2.3737 -0.8567
12271TIP3   OH258227   1.976   4.192   6.076 -0.4523  0.3731  0.6807
12271TIP3    H158228   2.055   4.246   6.082  1.5504 -2.1606 -1.6749
12271TIP3    H258229   1.997   4.114   6.127 -1.1134 -0.6784 -0.6429
12272TIP3   OH258230   6.359   1.624   4.461  0.3640  0.2677  0.5704
12272TIP3    H158231   6.360   1.640   4.367  0.3856  1.7538  0.8060
12272TIP3    H258232   6.451   1.627   4.487  0.2068  2.6422  1.0471
12273TIP3   OH258233   4.928   0.702   0.646  0.4404 -0.4072 -0.3838
12273TIP3    H158234   4.959   0.612   0.640  0.3374 -0.3566 -2.1094
12273TIP3    H258235   5.006   0.756   0.635  0.3034 -0.2937 -0.8400
12274TIP3   OH258236   1.365   4.634   0.856 -0.8682  0.4427 -0.8687
12274TIP3    H158237   1.396   4.691   0.927 -2.7647 -0.0798  0.4089
12274TIP3    H258238   1.423   4.558   0.859  0.4528  1.4021 -1.3323
12275TIP3   OH258239   3.546   2.641   4.115 -0.0419 -0.3777  0.0156
12275TIP3    H158240   3.472   2.586   4.143 -1.0825  1.4406  0.9935
12275TIP3    H258241   3.558   2.702   4.188  2.7947 -0.9543  0.0943
12276TIP3   OH258242   2.105   2.198   4.310  0.5557  0.3284  0.5171
12276TIP3    H158243   2.163   2.272   4.289  1.2149  0.0467  1.3280
12276TIP3    H258244   2.078   2.214   4.400  1.2508 -0.7746  0.9313
12277TIP3   OH258245   6.322   0.054  13.652 -0.0701 -0.6682  0.0438
12277TIP3    H158246   6.228   0.069  13.659 -0.0214 -0.1724 -0.4008
12277TIP3    H258247   6.351   0.042  13.743 -0.5592 -0.8212  0.1812
12278TIP3   OH258248   3.938   6.228  12.067  0.4680 -0.0509  0.0432
12278TIP3    H158249   3.921   6.303  12.124  2.5899  1.3178 -1.0696
12278TIP3    H258250   3.910   6.257  11.981  0.2040 -0.9850 -0.1906
12279TIP3   OH258251   3.742   1.909   0.329  0.5462 -0.1584 -0.4388
12279TIP3    H158252   3.767   1.823   0.295  0.5342 -0.9360  1.4754
12279TIP3    H258253   3.822   1.960   0.328  1.0104 -0.8671  0.4168
12280TIP3   OH258254   4.426   3.098   1.798 -0.6947 -0.1729  0.3620
12280TIP3    H158255   4.362   3.039   1.758  0.5559 -0.5324 -1.1356
12280TIP3    H258256   4.377   3.179   1.814 -1.5170 -0.4259 -0.8296
12281TIP3   OH258257   4.899   4.633  16.486  0.2713 -0.2746  0.2861
12281TIP3    H158258   4.936   4.653  16.399 -0.5471  0.0283  0.0001
12281TIP3    H258259   4.881   4.539  16.483  1.7302 -0.5850  0.7094
12282TIP3   OH258260   5.699   5.020   4.598 -0.3784 -0.0536 -0.6884
12282TIP3    H158261   5.649   5.096   4.626 -2.0056 -0.9599 -1.0618
12282TIP3    H258262   5.643   4.977   4.533  1.1872 -0.7151 -1.6447
12283TIP3   OH258263   2.106   4.610   5.866  0.9148 -0.6103  0.6518
12283TIP3    H158264   2.140   4.657   5.942  1.3853  0.6086 -0.3220
12283TIP3    H258265   2.011   4.609   5.880  0.8094  1.4866  0.1824
12284TIP3   OH258266   4.564   4.991   0.715  0.0252 -0.2023 -0.6134
12284TIP3    H158267   4.599   4.957   0.797 -1.6748  0.1495  0.2681
12284TIP3    H258268   4.550   5.084   0.730 -4.8946 -0.9724  0.4104
12285TIP3   OH258269   0.026   1.021   3.220  0.4800  0.1844 -0.6781
12285TIP3    H158270   0.016   1.112   3.196 -2.2949  0.1549  0.2204
12285TIP3    H258271  -0.062   0.992   3.243  1.6757 -2.0645  1.3107
12286TIP3   OH258272   4.009   0.117  10.678 -0.6184  0.8092  0.0850
12286TIP3    H158273   4.079   0.087  10.619  0.3639  1.2790  0.9854
12286TIP3    H258274   3.987   0.041  10.731  0.4736  1.1136  1.0065
12287TIP3   OH258275   3.096   2.596  13.512  0.4227  0.6292 -0.4540
12287TIP3    H158276   3.142   2.627  13.434 -1.1068  2.8552 -0.4957
12287TIP3    H258277   3.034   2.665  13.533 -0.2689 -0.6354  1.8501
12288TIP3   OH258278   5.057   0.629  15.636 -0.3718 -0.0167 -0.1082
12288TIP3    H158279   5.077   0.671  15.552  0.3238  0.5011  0.3174
12288TIP3    H258280   5.135   0.579  15.657 -0.2740  0.4183  0.5788
12289TIP3   OH258281   2.957   3.389  12.904 -0.0990  0.0109 -0.8531
12289TIP3    H158282   2.915   3.401  12.818  0.3465  0.1458 -1.0548
12289TIP3    H258283   2.989   3.299  12.902 -0.4096 -0.1019 -0.6876
12290TIP3   OH258284   0.533   3.754   3.336 -0.2817  0.1747  0.1802
12290TIP3    H158285   0.554   3.664   3.360 -0.6726 -0.4693 -1.8271
12290TIP3    H258286   0.507   3.795   3.419 -3.0129 -2.3977  0.6957
12291TIP3   OH258287   1.512   4.275   5.483 -0.1648  0.2249 -0.3222
12291TIP3    H158288   1.426   4.252   5.449  0.0328 -0.6088 -0.2779
12291TIP3    H258289   1.512   4.241   5.573  2.1294 -4.7007 -2.0069
12292TIP3   OH258290   6.273   3.506  11.780 -0.0074  0.5704  0.3481
12292TIP3    H158291   6.305   3.561  11.851  1.5478 -0.0667  0.1586
12292TIP3    H258292   6.307   3.547  11.700  0.6214 -0.2746  0.1662
12293TIP3   OH258293   4.626   3.674  14.913 -0.8666  0.2209  0.0956
12293TIP3    H158294   4.594   3.589  14.944 -2.5756  0.8009 -0.0159
12293TIP3    H258295   4.662   3.656  14.826  0.8079 -0.7719  0.9578
12294TIP3   OH258296   1.465   2.188   6.367 -0.3339 -0.3851  0.0066
12294TIP3    H158297   1.448   2.110   6.421  0.7315 -1.5799 -1.3319
12294TIP3    H258298   1.517   2.245   6.423 -2.8554  0.2938  1.7207
12295TIP3   OH258299   5.208   3.413   1.198 -0.2562 -0.0520 -0.1769
12295TIP3    H158300   5.295   3.453   1.196 -0.2470 -0.0892 -0.8995
12295TIP3    H258301   5.168   3.440   1.115 -0.7633 -0.4170 -0.0531
12296TIP3   OH258302   4.675   0.698  12.364 -0.8986  0.3552 -0.1345
12296TIP3    H158303   4.701   0.738  12.281  2.3074  1.6859  1.4197
12296TIP3    H258304   4.749   0.714  12.423 -2.8396 -1.0612  2.8316
12297TIP3   OH258305   3.380   5.464  13.004 -0.3409  0.2768 -0.1329
12297TIP3    H158306   3.316   5.462  12.933 -0.1159  0.7341 -0.3449
12297TIP3    H258307   3.465   5.452  12.962 -0.2316  0.2569  0.0903
12298TIP3   OH258308   1.759   3.713  16.561 -0.2499 -0.2618  0.1477
12298TIP3    H158309   1.832   3.713  16.500 -2.3318 -0.7318 -2.4727
12298TIP3    H258310   1.782   3.777  16.627  3.1827 -1.5272  0.2470
12299TIP3   OH258311   5.833   2.868   5.780 -0.3333  0.6152 -0.2603
12299TIP3    H158312   5.878   2.840   5.700 -0.5302  1.3241 -0.6267
12299TIP3    H258313   5.741   2.876   5.754 -0.7111 -0.9563  0.5183
12300TIP3   OH258314   0.956   5.460   0.427 -0.3194 -0.3066 -0.3411
12300TIP3    H158315   0.908   5.495   0.502  0.4908 -0.6879  0.3627
12300TIP3    H258316   1.026   5.523   0.412  0.8676 -1.3771  0.6416
12301TIP3   OH258317   3.030   2.068   1.161 -0.5394  0.4515 -1.0770
12301TIP3    H158318   2.965   2.111   1.105 -2.8556 -1.5296 -0.0169
12301TIP3    H258319   2.988   1.986   1.186  1.8488 -0.2261  0.8031
12302TIP3   OH258320   5.160   0.899  13.118 -0.4234  0.5556 -0.1745
12302TIP3    H158321   5.193   0.892  13.207  0.8508 -0.8520 -0.7198
12302TIP3    H258322   5.224   0.954  13.073 -0.8487  0.9332 -0.3169
12303TIP3   OH258323   3.053   3.343  16.962 -0.3915  0.1246  0.0613
12303TIP3    H158324   3.082   3.374  16.876  1.8534 -0.0259  0.7419
12303TIP3    H258325   2.985   3.279  16.943  0.7875 -0.6503 -1.6515
12304TIP3   OH258326   4.881   3.889   3.409  0.3944  0.5951 -0.4737
12304TIP3    H158327   4.793   3.859   3.432 -0.1084  1.2248 -1.5642
12304TIP3    H258328   4.899   3.959   3.472  0.4802 -0.1278  0.3185
12305TIP3   OH258329   4.894   4.497  15.910  0.0262 -0.1176  0.7616
12305TIP3    H158330   4.806   4.460  15.906  0.8057 -1.9221 -0.5032
12305TIP3    H258331   4.881   4.591  15.899 -1.7477 -0.3512  0.6687
12306TIP3   OH258332   1.752   6.001  13.877 -0.5045  0.5785 -0.3917
12306TIP3    H158333   1.846   5.983  13.878 -0.4000  1.1562  0.7271
12306TIP3    H258334   1.722   5.982  13.966 -1.3593  0.8753 -0.6034
12307TIP3   OH258335   0.251   2.395  17.063 -0.1675  0.0541 -0.0860
12307TIP3    H158336   0.224   2.335  17.133  0.3012  0.3807  0.3830
12307TIP3    H258337   0.173   2.406  17.009 -0.6101 -0.0178  0.5259
12308TIP3   OH258338   6.607   2.458   0.918 -0.7768 -0.3888 -0.4326
12308TIP3    H158339   6.618   2.368   0.888  0.9087 -0.6614  0.9409
12308TIP3    H258340   6.681   2.474   0.975 -1.1423  1.8348 -0.5193
12309TIP3   OH258341   1.449   4.655   4.492  0.3871 -0.2423 -0.0312
12309TIP3    H158342   1.542   4.670   4.478  0.3945  1.0429  1.2803
12309TIP3    H258343   1.407   4.737   4.467 -0.2032 -0.1612  1.1769
12310TIP3   OH258344   4.350   4.053  15.800  0.3407 -0.7397 -0.2310
12310TIP3    H158345   4.291   4.065  15.726  0.9403 -1.7315 -0.8766
12310TIP3    H258346   4.293   4.056  15.877 -0.4278 -0.8396 -0.7906
12311TIP3   OH258347   4.698   1.255   5.346 -0.3804 -1.1110 -0.0942
12311TIP3    H158348   4.716   1.200   5.270  0.3561 -0.3576 -0.4653
12311TIP3    H258349   4.727   1.342   5.321  1.8449 -1.2617  1.8127
12312TIP3   OH258350   1.681   1.303   3.376 -0.2422  0.0249  0.6660
12312TIP3    H158351   1.674   1.368   3.446  2.4713 -0.0475  1.0728
12312TIP3    H258352   1.745   1.339   3.315 -1.0397 -0.8580 -0.7211
12313TIP3   OH258353   2.781   4.907   3.027 -0.5805  0.1171  0.1044
12313TIP3    H158354   2.698   4.869   2.999  0.2774 -0.0464 -2.3433
12313TIP3    H258355   2.785   4.992   2.984 -0.2687  0.9064  1.6393
12314TIP3   OH258356   3.420   5.519   1.687  0.0703 -0.0480 -0.0501
12314TIP3    H158357   3.361   5.544   1.615 -0.4069 -0.1097  0.3127
12314TIP3    H258358   3.375   5.447   1.731 -0.1764  0.7116  0.9798
12315TIP3   OH258359   4.466   5.698   0.281  0.4627 -0.0651  0.2151
12315TIP3    H158360   4.526   5.624   0.294  0.4715 -0.3427 -1.2935
12315TIP3    H258361   4.522   5.775   0.286  0.4754 -0.1625  1.6617
12316TIP3   OH258362   2.490   1.202   3.376  0.3504  0.0500 -0.1404
12316TIP3    H158363   2.505   1.268   3.308 -0.3730  0.8616  0.4897
12316TIP3    H258364   2.523   1.242   3.456  1.0912 -0.8648  0.0304
12317TIP3   OH258365   6.189   0.655  15.359  0.0348  0.1421 -0.1198
12317TIP3    H158366   6.126   0.685  15.424 -0.0844  1.1141 -0.6835
12317TIP3    H258367   6.205   0.731  15.303  0.1303 -0.6865 -1.2382
12318TIP3   OH258368   4.387   1.192  14.439 -0.3431 -0.0062  0.1087
12318TIP3    H158369   4.462   1.157  14.487  0.2527 -0.5672 -1.2005
12318TIP3    H258370   4.343   1.114  14.405 -1.1651  0.3573  0.3473
12319TIP3   OH258371   2.839   6.161   0.139  0.3809 -0.0375  0.0814
12319TIP3    H158372   2.849   6.225   0.069  1.9968 -0.6170 -0.2444
12319TIP3    H258373   2.862   6.078   0.098  1.0606 -0.4175  1.2325
12320TIP3   OH258374   5.091   6.424   3.682  0.0860 -0.1213  0.3901
12320TIP3    H158375   5.054   6.512   3.681  0.2692 -0.0297 -1.8227
12320TIP3    H258376   5.185   6.438   3.690  0.0403 -0.1486  0.9535
12321TIP3   OH258377   0.619   3.434  13.744  0.4858 -0.1471 -0.9691
12321TIP3    H158378   0.654   3.354  13.784  1.1368  0.2177 -0.8035
12321TIP3    H258379   0.571   3.403  13.667  1.4132 -0.6371 -1.3626
12322TIP3   OH258380   2.241   1.122   1.511  0.0420 -0.0163  0.0353
12322TIP3    H158381   2.184   1.114   1.435  1.2605  1.1572 -1.0339
12322TIP3    H258382   2.326   1.090   1.481 -0.4061 -3.3526  2.0995
12323TIP3   OH258383   0.870   4.632  15.941  0.6246 -0.4002 -0.0201
12323TIP3    H158384   0.938   4.694  15.917  0.8291 -0.8327 -0.5562
12323TIP3    H258385   0.816   4.680  16.004  1.9736 -0.3912  1.1430
12324TIP3   OH258386   5.209   0.468   2.758 -0.4993 -0.6805 -0.6181
12324TIP3    H158387   5.216   0.405   2.829 -0.3135 -0.9914 -0.9148
12324TIP3    H258388   5.201   0.553   2.802  1.8438 -0.6389 -0.2481
12325TIP3   OH258389   3.425   0.142  16.973  0.3448  0.5395 -0.5818
12325TIP3    H158390   3.363   0.087  16.925 -1.0021  1.1011  0.4989
12325TIP3    H258391   3.433   0.221  16.920  1.2696 -0.1367 -1.4700
12326TIP3   OH258392   0.466   5.148   1.361  0.1008  0.9900 -0.3101
12326TIP3    H158393   0.455   5.055   1.343  1.5062  0.6202  0.7024
12326TIP3    H258394   0.436   5.159   1.452 -2.0713  1.9269 -1.0920
12327TIP3   OH258395   2.777   4.904  11.735 -0.0207  0.0642  0.4190
12327TIP3    H158396   2.837   4.952  11.678 -1.2457  0.0200 -0.9404
12327TIP3    H258397   2.803   4.812  11.726  2.0515  0.3820  2.6918
12328TIP3   OH258398   3.019   5.461   4.257 -0.1430 -0.2991 -0.1873
12328TIP3    H158399   3.031   5.374   4.295 -1.3081  0.0448  0.9852
12328TIP3    H258400   3.051   5.522   4.323 -1.7790  0.2830  0.0838
12329TIP3   OH258401   1.207   0.640  14.571 -0.3464 -0.3803 -0.1416
12329TIP3    H158402   1.156   0.677  14.643 -1.0733 -0.3459 -0.6641
12329TIP3    H258403   1.142   0.616  14.505  0.3508  0.2813 -1.0984
12330TIP3   OH258404   4.492   4.678  14.918 -0.1609 -0.1176 -0.3618
12330TIP3    H158405   4.421   4.645  14.863 -0.6223 -0.1156  0.2239
12330TIP3    H258406   4.547   4.601  14.934 -0.3289 -0.2409 -0.3674
12331TIP3   OH258407   1.663   4.379  12.157  0.0767  0.0111  0.3098
12331TIP3    H158408   1.620   4.302  12.122  0.0549  0.1650 -0.0111
12331TIP3    H258409   1.681   4.433  12.080 -0.9379  0.8496  0.6376
12332TIP3   OH258410   2.416   2.496   5.787  0.4049  0.5507  0.3605
12332TIP3    H158411   2.433   2.576   5.836  0.9747 -0.2735  1.5381
12332TIP3    H258412   2.481   2.434   5.819 -1.1121 -0.8963  0.7125
12333TIP3   OH258413   1.048   5.255   0.071 -0.6033 -0.6115 -0.1142
12333TIP3    H158414   1.084   5.218  -0.009  1.2270 -0.0307  0.3945
12333TIP3    H258415   1.035   5.348   0.051 -1.6719 -0.7780 -0.2312
12334TIP3   OH258416   1.892   2.980   4.658 -0.2314  0.7161  0.4745
12334TIP3    H158417   1.913   3.014   4.571 -1.5615 -1.6552 -0.8252
12334TIP3    H258418   1.977   2.972   4.702  0.4455  2.0082 -0.5552
12335TIP3   OH258419   5.472   0.566  10.853 -0.1513  0.0876  0.4802
12335TIP3    H158420   5.435   0.618  10.782  0.7525  2.7514  1.8919
12335TIP3    H258421   5.499   0.484  10.811 -1.5996  0.7194 -1.7966
12336TIP3   OH258422   6.393   5.792   2.064 -0.5775 -0.3933 -0.2509
12336TIP3    H158423   6.417   5.821   2.152 -1.9251  0.0186 -0.0090
12336TIP3    H258424   6.467   5.818   2.010  0.0081 -0.1279  0.6657
12337TIP3   OH258425   3.048   0.168   4.321 -0.3883  0.2509 -0.2285
12337TIP3    H158426   2.982   0.152   4.388 -0.3227 -2.4286 -0.7510
12337TIP3    H258427   3.005   0.145   4.239  1.1051 -1.4244 -0.5792
12338TIP3   OH258428   3.291   3.743  11.300  0.3175 -0.3294 -0.2285
12338TIP3    H158429   3.254   3.831  11.309  2.0534  0.4468 -0.4812
12338TIP3    H258430   3.239   3.702  11.231 -0.9383  0.2562  0.3574
12339TIP3   OH258431   5.719   4.120  13.176  0.1331 -0.4671  0.5723
12339TIP3    H158432   5.674   4.059  13.235  0.9790 -1.7209 -0.0564
12339TIP3    H258433   5.665   4.120  13.097 -0.2399  0.1416  0.8239
12340TIP3   OH258434   0.694   3.249  13.348 -0.1796 -0.6356 -0.1500
12340TIP3    H158435   0.689   3.182  13.280 -0.8053 -1.0339  0.2830
12340TIP3    H258436   0.770   3.224  13.401 -1.0254 -1.5984  0.6286
12341TIP3   OH258437   1.713   0.145  13.172  0.8723 -0.0678 -0.7163
12341TIP3    H158438   1.704   0.056  13.139  0.1068 -0.7999  1.3982
12341TIP3    H258439   1.640   0.192  13.131 -0.1568 -0.9904  0.0323
12342TIP3   OH258440   0.001   2.746   5.739 -0.7189  0.0607  0.5969
12342TIP3    H158441  -0.071   2.804   5.763 -0.1862  1.1268 -0.2877
12342TIP3    H258442  -0.041   2.664   5.716 -1.5533  0.3103  1.1927
12343TIP3   OH258443   3.395   2.641   0.464  0.1580  0.3412 -0.1334
12343TIP3    H158444   3.451   2.568   0.490 -2.4519 -1.4769  0.6517
12343TIP3    H258445   3.428   2.715   0.514  0.9720 -1.0094  1.3862
12344TIP3   OH258446   0.236   1.828  16.918  0.5258 -0.1445  0.1062
12344TIP3    H158447   0.264   1.809  16.829 -1.9168 -1.7063 -0.3583
12344TIP3    H258448   0.304   1.887  16.952  1.4785  0.4787 -2.7489
12345TIP3   OH258449   5.260   2.293  11.560 -0.6641  0.1355 -0.7492
12345TIP3    H158450   5.217   2.230  11.502 -2.0571 -1.0857  1.4906
12345TIP3    H258451   5.352   2.288  11.537 -0.8887 -2.0101 -1.3130
12346TIP3   OH258452   0.793   2.096   0.754  0.5721  0.2997 -0.5412
12346TIP3    H158453   0.841   2.140   0.824 -0.5665  2.9376 -1.3223
12346TIP3    H258454   0.707   2.076   0.793  0.7724 -0.4187 -0.4639
12347TIP3   OH258455   3.854   5.588  12.886  0.1896  0.0570 -0.3465
12347TIP3    H158456   3.788   5.532  12.847 -1.7729  1.7633  0.4191
12347TIP3    H258457   3.884   5.644  12.814 -2.5783  2.4013  0.2022
12348TIP3   OH258458   0.836   6.182   2.078 -0.4631 -0.5029 -0.6628
12348TIP3    H158459   0.902   6.130   2.032  1.5913  0.6652  0.9219
12348TIP3    H258460   0.808   6.247   2.014  0.2462 -0.7237 -1.2034
12349TIP3   OH258461   5.231   2.074   1.570  0.0623 -0.4927 -0.0307
12349TIP3    H158462   5.172   2.101   1.640  0.1920  0.6611 -0.3521
12349TIP3    H258463   5.208   2.131   1.497  1.8811  0.2571 -0.0212
12350TIP3   OH258464   2.455   3.939  12.399 -0.5968  0.1754 -0.2333
12350TIP3    H158465   2.474   4.013  12.456  0.8357 -0.5314  0.2227
12350TIP3    H258466   2.361   3.924  12.410 -0.5891  0.8991  0.9090
12351TIP3   OH258467   2.165   5.150   3.651 -0.1062 -0.4857  0.1878
12351TIP3    H158468   2.228   5.211   3.689  0.6212 -0.4165 -1.0975
12351TIP3    H258469   2.186   5.066   3.690  0.2277 -0.2979  0.4110
12352TIP3   OH258470   6.701   3.528   5.785 -0.1344  0.1211  0.5177
12352TIP3    H158471   6.787   3.519   5.745  0.0250 -0.0777  0.9088
12352TIP3    H258472   6.716   3.517   5.878 -0.5695  0.1817  0.5977
12353TIP3   OH258473   1.719   6.344  17.077 -0.5300 -0.1610 -0.1804
12353TIP3    H158474   1.703   6.350  16.982 -1.3282  1.4561  0.0326
12353TIP3    H258475   1.631   6.344  17.115 -0.1994 -0.5162  0.5739
12354TIP3   OH258476   0.205   5.450   1.683  0.2897 -0.5422 -0.0498
12354TIP3    H158477   0.279   5.394   1.658  1.7951  1.1937  0.4217
12354TIP3    H258478   0.244   5.517   1.740 -1.8216 -0.1690  0.9822
12355TIP3   OH258479   3.657   3.316   1.768  0.5191  0.0753 -0.5674
12355TIP3    H158480   3.681   3.407   1.787  1.4912 -0.3024  0.0741
12355TIP3    H258481   3.740   3.274   1.744 -0.1139 -0.3538 -2.0554
12356TIP3   OH258482   3.876   1.069   4.386  0.2191  0.2034 -0.0541
12356TIP3    H158483   3.823   1.093   4.463 -0.8049  1.7477 -1.1900
12356TIP3    H258484   3.851   1.134   4.320  0.9135 -1.2502 -1.7640
12357TIP3   OH258485   6.668   1.681   1.288 -0.2063  0.2579 -0.0481
12357TIP3    H158486   6.650   1.769   1.256  1.2203  0.6408  0.1753
12357TIP3    H258487   6.759   1.684   1.317  0.2244 -1.6200 -1.1455
12358TIP3   OH258488   2.787   1.074   6.335  0.4501  0.3533 -0.4755
12358TIP3    H158489   2.769   1.115   6.250  0.6510  1.6743  0.0983
12358TIP3    H258490   2.828   1.144   6.386  1.9428 -0.9252  0.1318
12359TIP3   OH258491   6.331   3.148  12.154  0.3656 -0.2029 -0.4859
12359TIP3    H158492   6.285   3.168  12.072 -0.5418  1.6554  0.4464
12359TIP3    H258493   6.408   3.204  12.153 -0.1590  0.5520  0.3617
12360TIP3   OH258494   5.461   2.481   0.952 -0.1171  0.8241 -0.0454
12360TIP3    H158495   5.414   2.447   0.875 -1.7041 -1.6252  1.9172
12360TIP3    H258496   5.392   2.516   1.008  1.1330  3.5347 -0.1274
12361TIP3   OH258497   0.221   6.727  16.704 -0.0235 -0.5156  0.0403
12361TIP3    H158498   0.290   6.712  16.768  0.6228 -0.6157 -0.6665
12361TIP3    H258499   0.238   6.664  16.634  0.6560  1.1222 -1.3208
12362TIP3   OH258500   1.418   4.835   1.747 -0.5079  1.0868 -0.9367
12362TIP3    H158501   1.378   4.917   1.718 -0.4112  1.9947  1.4087
12362TIP3    H258502   1.380   4.819   1.833  1.7742  0.2897 -0.0438
12363TIP3   OH258503   4.964   4.207  15.332  0.2191  0.1968 -0.1800
12363TIP3    H158504   5.032   4.235  15.393 -0.4319  0.4628  0.4274
12363TIP3    H258505   4.885   4.197  15.386 -0.3014  0.1818 -0.9268
12364TIP3   OH258506   0.033   2.065   5.239 -0.3928 -0.8429 -0.0421
12364TIP3    H158507  -0.058   2.078   5.211 -0.7588 -0.3926  1.3061
12364TIP3    H258508   0.027   2.056   5.334  0.9184 -1.3956 -0.0068
12365TIP3   OH258509   1.992   3.008  10.378  0.4205 -0.3707  0.0148
12365TIP3    H158510   1.947   2.945  10.322  0.9626 -0.4207 -0.3742
12365TIP3    H258511   2.082   2.974  10.383 -0.1793 -1.6594  2.8352
12366TIP3   OH258512   1.082   0.492   5.219 -0.0692 -0.0487  0.1910
12366TIP3    H158513   1.067   0.443   5.138  0.0546 -0.5113  0.4458
12366TIP3    H258514   1.174   0.518   5.214 -0.5482  1.5492 -0.6953
12367TIP3   OH258515   2.557   5.977   6.350 -0.1303 -0.5720 -0.0292
12367TIP3    H158516   2.558   5.971   6.446  0.3869  0.4462  0.0358
12367TIP3    H258517   2.471   6.014   6.330 -0.8401 -2.2013 -0.0573
12368TIP3   OH258518   3.879   4.693  16.023  0.4747 -0.4262  0.6904
12368TIP3    H158519   3.972   4.681  16.044  1.2059  2.0954 -0.9986
12368TIP3    H258520   3.840   4.726  16.104  1.4684  0.5796  0.7593
12369TIP3   OH258521   5.347   1.135  12.904 -0.5424  0.2728  0.5021
12369TIP3    H158522   5.316   1.073  12.838 -0.5841 -1.2824  1.9405
12369TIP3    H258523   5.430   1.097  12.934  0.2210  1.7543  0.2824
12370TIP3   OH258524   0.811   1.483  15.294  0.3931  0.6124  0.0249
12370TIP3    H158525   0.864   1.507  15.370  0.0508  1.7195 -0.0738
12370TIP3    H258526   0.733   1.442  15.331  0.0234  1.5479  0.2968
12371TIP3   OH258527   6.092   3.353  15.256  1.0203  0.3284 -1.0073
12371TIP3    H158528   6.109   3.271  15.211 -0.5976 -0.8546  0.4402
12371TIP3    H258529   6.073   3.327  15.346  1.7681  2.4126 -0.2144
12372TIP3   OH258530   3.623   6.329  11.984 -0.8679  0.4223  0.1852
12372TIP3    H158531   3.637   6.407  12.038 -0.3225 -0.0560  0.7455
12372TIP3    H258532   3.547   6.286  12.023 -0.5292  0.1251  0.5239
12373TIP3   OH258533   2.204   5.167  15.882  0.1037  0.4646  0.1375
12373TIP3    H158534   2.116   5.151  15.847  0.2679  2.4586 -1.2642
12373TIP3    H258535   2.263   5.139  15.812  0.4970  1.7462 -0.0631
12374TIP3   OH258536   3.198   3.068   1.164 -0.4630  0.1131 -0.2927
12374TIP3    H158537   3.117   3.046   1.208  0.9291  1.4242  3.1250
12374TIP3    H258538   3.192   3.163   1.149  0.7156  0.3535  0.6691
12375TIP3   OH258539   4.789   4.916   5.174  0.0394  0.1323 -0.7370
12375TIP3    H158540   4.799   4.886   5.084  0.5346 -2.8000  0.2348
12375TIP3    H258541   4.878   4.916   5.209 -0.5211 -2.6013  0.8559
12376TIP3   OH258542   4.247   4.801  15.033 -0.8269  0.3409 -0.6020
12376TIP3    H158543   4.306   4.726  15.041 -1.5891 -0.3126 -1.0043
12376TIP3    H258544   4.262   4.834  14.944 -1.0652  0.1761 -0.7025
12377TIP3   OH258545   6.703   6.273   1.656  0.0946 -0.9172 -0.0045
12377TIP3    H158546   6.624   6.292   1.707 -0.8948 -1.6072 -1.2790
12377TIP3    H258547   6.721   6.355   1.609 -0.0135 -0.8536  0.0638
12378TIP3   OH258548   2.017   4.178   5.484 -0.0418  0.1637 -0.2470
12378TIP3    H158549   1.943   4.186   5.424 -0.4850  0.3691  0.3154
12378TIP3    H258550   2.088   4.227   5.443  0.7079 -2.4506 -2.2061
12379TIP3   OH258551   2.478   1.676   0.044  0.2160  0.4926  0.1379
12379TIP3    H158552   2.447   1.661  -0.045  0.7969  1.9032 -0.3061
12379TIP3    H258553   2.521   1.594   0.068 -0.6997 -0.2060 -0.5446
12380TIP3   OH258554   4.843   4.159  16.918 -0.0135 -0.2496  0.1255
12380TIP3    H158555   4.851   4.146  17.013 -0.4409  2.1040  0.5178
12380TIP3    H258556   4.813   4.075  16.885  1.3515 -1.4924  1.9158
12381TIP3   OH258557   6.541   1.905   0.486  0.1284  0.2224  0.0173
12381TIP3    H158558   6.493   1.988   0.487 -0.3497 -0.0545  0.4027
12381TIP3    H258559   6.473   1.838   0.497  0.2518 -0.3609 -2.5301
12382TIP3   OH258560   4.059   6.070   0.400  0.3724  0.3369  0.3233
12382TIP3    H158561   4.037   5.979   0.380  0.0143 -0.1053  2.5187
12382TIP3    H258562   4.002   6.122   0.343  0.1066 -0.8145 -0.4689
12383TIP3   OH258563   2.569   4.657  16.855 -0.0339  0.0829 -0.1396
12383TIP3    H158564   2.655   4.616  16.860 -0.6301 -1.0501  0.9995
12383TIP3    H258565   2.525   4.632  16.936 -1.8235 -0.2415 -1.1774
12384TIP3   OH258566   0.229   3.291  13.753  0.5706 -0.5761 -0.0070
12384TIP3    H158567   0.324   3.300  13.749  0.7106 -1.6986  0.4371
12384TIP3    H258568   0.203   3.275  13.663  0.9161 -1.2018 -0.0013
12385TIP3   OH258569   2.560   5.362   0.017  0.2961 -0.0563 -0.7302
12385TIP3    H158570   2.522   5.397  -0.064 -0.2314  2.5940  0.6257
12385TIP3    H258571   2.651   5.391   0.016 -0.2174  1.6791  0.5339
12386TIP3   OH258572   6.331   5.004   4.521 -0.0676  0.0010 -0.5542
12386TIP3    H158573   6.331   4.920   4.475  1.7378 -0.0472 -0.5107
12386TIP3    H258574   6.296   5.066   4.457  1.1514 -0.3148 -1.5630
12387TIP3   OH258575   6.048   3.039  15.822  0.6100 -0.3638  0.1787
12387TIP3    H158576   6.085   3.126  15.842 -0.8610  0.3229 -0.0025
12387TIP3    H258577   6.070   3.025  15.730 -1.5230  1.0939 -0.6176
12388TIP3   OH258578   6.743   4.662  16.574  0.3841 -0.5799 -0.4365
12388TIP3    H158579   6.771   4.710  16.495 -0.3137 -0.4374 -0.6099
12388TIP3    H258580   6.774   4.573  16.560 -0.6892 -0.8237 -1.4058
12389TIP3   OH258581   1.063   5.725   0.744 -0.2015 -0.7984  0.1248
12389TIP3    H158582   0.999   5.669   0.700 -2.0342  0.2303  1.3798
12389TIP3    H258583   1.068   5.804   0.690  1.2025 -1.5004 -0.8014
12390TIP3   OH258584   3.990   4.600   0.735 -0.4122 -0.4152 -0.0509
12390TIP3    H158585   4.048   4.526   0.752 -0.4515 -0.5457 -0.4689
12390TIP3    H258586   3.978   4.599   0.640 -0.5352  0.0341 -0.0412
12391TIP3   OH258587   1.875   3.467  14.203  0.3119 -0.0231  0.2057
12391TIP3    H158588   1.950   3.459  14.262 -0.1486 -1.4367  0.6020
12391TIP3    H258589   1.844   3.378  14.191 -1.4206  0.5735  0.1725
12392TIP3   OH258590   6.727   2.174   3.884 -0.5748 -0.6729 -0.1716
12392TIP3    H158591   6.730   2.249   3.943 -1.9500  1.2344 -2.4869
12392TIP3    H258592   6.664   2.114   3.924 -0.3209 -0.1155  1.0849
12393TIP3   OH258593   3.287   3.348   5.484  0.1953 -0.2793  0.4108
12393TIP3    H158594   3.289   3.443   5.499  0.4604 -0.0588 -0.9550
12393TIP3    H258595   3.216   3.317   5.540 -1.0475  0.9783 -0.4230
12394TIP3   OH258596   1.642   4.934  12.920  0.3005  0.0492  0.3477
12394TIP3    H158597   1.658   4.860  12.979 -0.3540  0.4746  1.0626
12394TIP3    H258598   1.715   4.993  12.936  1.8234 -1.2560 -1.5465
12395TIP3   OH258599   2.184   4.457   4.898 -0.2237 -0.2996  0.0121
12395TIP3    H158600   2.210   4.513   4.825  1.3352 -1.8157 -0.6121
12395TIP3    H258601   2.092   4.435   4.881 -1.0838  2.5588  0.6019
12396TIP3   OH258602   3.006   2.992  16.827  0.4539  0.4696  0.3896
12396TIP3    H158603   2.935   3.047  16.861  0.3622  0.8054 -0.3378
12396TIP3    H258604   3.036   2.942  16.903 -1.0406 -0.2087  0.5480
12397TIP3   OH258605   6.698   0.592  13.630 -0.5702  0.3058  0.5605
12397TIP3    H158606   6.742   0.537  13.695  2.3300  1.2066 -0.5345
12397TIP3    H258607   6.723   0.554  13.546 -2.1778  0.6746 -0.0892
12398TIP3   OH258608   5.954   3.813  15.770  0.1165  0.4422 -0.1252
12398TIP3    H158609   5.980   3.870  15.842  0.8160  0.6307 -0.5193
12398TIP3    H258610   5.913   3.738  15.812 -0.0911  0.8704  0.4344
12399TIP3   OH258611   5.860   4.956  13.634 -0.3792 -0.1266 -0.0282
12399TIP3    H158612   5.787   4.901  13.663  0.6478 -2.1888 -1.2199
12399TIP3    H258613   5.827   5.046  13.641 -3.0435 -1.0132 -0.6072
12400TIP3   OH258614   0.634   2.458  15.440  0.1948 -0.1612  0.0651
12400TIP3    H158615   0.685   2.432  15.364  1.9991 -2.0597  1.8459
12400TIP3    H258616   0.666   2.546  15.461  1.3454 -0.5458 -0.0199
12401TIP3   OH258617   3.724   4.006   3.547  0.4855 -0.1502  0.3108
12401TIP3    H158618   3.784   4.022   3.474 -0.5212 -3.6905 -1.3929
12401TIP3    H258619   3.651   4.067   3.532  0.9005  0.0641 -0.8914
12402TIP3   OH258620   5.075   0.955  14.155 -0.8819 -0.0544  0.0815
12402TIP3    H158621   5.147   0.943  14.092 -2.8932 -2.8785 -1.8014
12402TIP3    H258622   5.096   0.895  14.227 -0.4736  0.4198  0.3607
12403TIP3   OH258623   0.297   4.436  16.561 -0.3449  0.4551 -0.4347
12403TIP3    H158624   0.373   4.455  16.505  1.5739  1.2198  2.3179
12403TIP3    H258625   0.222   4.458  16.507  1.4099  0.3350 -3.0181
12404TIP3   OH258626   1.086   1.118   3.446  0.5083 -0.4133  0.9440
12404TIP3    H158627   1.055   1.067   3.371  0.5493 -2.0974  2.0562
12404TIP3    H258628   1.018   1.105   3.513  0.8765  0.4122  1.4830
12405TIP3   OH258629   4.895   0.842  15.090 -0.5721 -0.1156 -0.3340
12405TIP3    H158630   4.889   0.756  15.132 -0.6588  0.2417  0.3919
12405TIP3    H258631   4.804   0.867  15.073 -0.5896  0.2321  0.2731
12406TIP3   OH258632   0.090   2.711  16.532 -0.2920  0.0353  0.2602
12406TIP3    H158633   0.071   2.645  16.599  1.3175 -2.0794 -1.3115
12406TIP3    H258634   0.015   2.708  16.473 -1.1410  1.0433  1.2573
12407TIP3   OH258635   1.743   1.880  15.403  0.2826  0.1904 -0.2282
12407TIP3    H158636   1.755   1.924  15.487 -1.9093 -0.9329  0.6860
12407TIP3    H258637   1.694   1.942  15.350 -1.4769 -0.5160  0.5495
12408TIP3   OH258638   4.341   4.866   4.036 -0.4855 -0.4334 -0.1556
12408TIP3    H158639   4.311   4.951   4.003 -0.3378  0.5884  2.1769
12408TIP3    H258640   4.431   4.882   4.065 -0.5856 -1.2781  0.6499
12409TIP3   OH258641   3.324   2.828  17.058  0.1097 -0.0200  0.3351
12409TIP3    H158642   3.292   2.815  17.147  0.1179  1.8545  0.6265
12409TIP3    H258643   3.322   2.923  17.045  0.8957 -0.2154 -1.3720
12410TIP3   OH258644   3.129   5.423  11.308 -0.1776  0.1156  0.1368
12410TIP3    H158645   3.199   5.368  11.343  2.3018  3.9828  1.5860
12410TIP3    H258646   3.175   5.491  11.259 -3.0612  1.8293 -0.2854
12411TIP3   OH258647   0.012   2.108  16.159  0.2345  0.2789 -0.9067
12411TIP3    H158648   0.082   2.047  16.132  1.0270  0.0785  1.4842
12411TIP3    H258649  -0.066   2.053  16.163  0.3001  0.1070 -1.8309
12412TIP3   OH258650   3.452   1.750   1.168  0.3020 -0.0939 -0.4189
12412TIP3    H158651   3.369   1.795   1.150 -0.3057 -0.1134  2.0584
12412TIP3    H258652   3.438   1.662   1.134 -0.7185 -0.0920 -0.0548
12413TIP3   OH258653   1.724   0.975  16.158 -0.0171 -0.2865  0.1363
12413TIP3    H158654   1.792   0.920  16.196 -0.4857 -0.9824 -0.0074
12413TIP3    H258655   1.647   0.918  16.154 -0.3946  0.2528 -0.4030
12414TIP3   OH258656   1.304   2.122  15.747 -0.4162 -0.2418 -1.0436
12414TIP3    H158657   1.310   2.112  15.652 -2.9961 -1.3538 -1.1314
12414TIP3    H258658   1.214   2.097  15.768 -0.0398  0.4968  1.6418
12415TIP3   OH258659   6.064   0.000   5.838 -0.7426  0.3888 -0.3021
12415TIP3    H158660   6.158   0.016   5.846 -0.3859 -1.9247  0.3055
12415TIP3    H258661   6.025   0.045   5.913  0.2877 -1.7756  1.5793
12416TIP3   OH258662   3.412   4.933   0.647  0.4417  0.5729  0.0142
12416TIP3    H158663   3.337   4.875   0.652 -0.3909  1.6815  0.7185
12416TIP3    H258664   3.485   4.877   0.620 -0.6181 -0.5171 -0.5931
12417TIP3   OH258665   5.697   5.989  17.176 -0.2775  0.2144 -0.1486
12417TIP3    H158666   5.672   6.052  17.243  0.7744  0.7184 -0.2073
12417TIP3    H258667   5.783   5.957  17.205 -1.8242 -2.9822  1.1360
12418TIP3   OH258668   2.870   3.655   5.785  0.7358  0.1368  0.0977
12418TIP3    H158669   2.956   3.623   5.760  1.5893  0.6626  2.2632
12418TIP3    H258670   2.815   3.576   5.787  0.9140 -0.0914 -2.0954
12419TIP3   OH258671   6.256   0.082  14.983 -0.2216 -0.0979 -0.1416
12419TIP3    H158672   6.271   0.032  14.903  0.9568  1.1446 -0.7165
12419TIP3    H258673   6.344   0.099  15.017 -0.6990 -0.1760  1.1514
12420TIP3   OH258674   4.033   6.017  15.837 -0.5174  0.1760  0.7115
12420TIP3    H158675   4.111   6.071  15.823  0.7554 -1.4381  1.3962
12420TIP3    H258676   3.962   6.080  15.852  0.4130  1.6830 -1.0907
12421TIP3   OH258677   2.044   5.849  16.313  0.2805  0.0288 -0.3426
12421TIP3    H158678   2.038   5.916  16.245 -1.3434  0.8068  0.5424
12421TIP3    H258679   2.085   5.775  16.270  1.7156  1.4391 -1.4526
12422TIP3   OH258680   6.520   4.146  13.317  0.6233 -0.0032  0.2757
12422TIP3    H158681   6.438   4.100  13.335  0.5472 -0.3446 -0.9460
12422TIP3    H258682   6.499   4.206  13.245  1.4942 -0.2321 -0.1769
12423TIP3   OH258683   6.583   4.216   3.558 -0.2241  0.0174  0.0978
12423TIP3    H158684   6.628   4.301   3.561  1.1317 -0.5583 -2.2975
12423TIP3    H258685   6.653   4.152   3.554 -1.2554 -1.2161  1.4155
12424TIP3   OH258686   3.244   6.360  13.466  0.3670 -0.2814  0.3401
12424TIP3    H158687   3.314   6.296  13.453 -0.2700 -1.0317  0.6099
12424TIP3    H258688   3.166   6.319  13.430  0.0080  0.4617  0.2489
12425TIP3   OH258689   6.012   2.350  13.739  0.2587  0.5979  0.4854
12425TIP3    H158690   5.947   2.281  13.727 -0.2611  1.2031 -0.1815
12425TIP3    H258691   5.963   2.425  13.773  0.5669  1.1150 -0.1888
12426TIP3   OH258692   1.957   0.871  12.085  0.6578 -0.1754 -0.0624
12426TIP3    H158693   2.044   0.894  12.118  1.5744 -0.5609 -2.1133
12426TIP3    H258694   1.943   0.931  12.011 -2.2654  2.1620  2.2839
12427TIP3   OH258695   2.369   2.474  12.804  0.4478  0.5564  0.0731
12427TIP3    H158696   2.394   2.414  12.873 -1.4624  0.5320  0.7782
12427TIP3    H258697   2.274   2.465  12.797  0.1739  3.0913 -0.1572
12428TIP3   OH258698   1.388   5.422   1.017  1.0937  0.5708 -0.0079
12428TIP3    H158699   1.315   5.364   1.041  0.8903  1.1392  0.7807
12428TIP3    H258700   1.357   5.468   0.939  0.6295  0.7651  0.2891
12429TIP3   OH258701   6.449   6.129  11.083  0.0787 -0.5136 -0.6404
12429TIP3    H158702   6.358   6.123  11.054  0.1653  1.0029 -1.2762
12429TIP3    H258703   6.499   6.139  11.002  0.5690  1.1518 -0.1510
12430TIP3   OH258704   0.534   0.032  11.796 -0.0520  0.2883 -0.9425
12430TIP3    H158705   0.451   0.068  11.829 -1.7019 -1.1199 -3.4219
12430TIP3    H258706   0.529   0.046  11.702  2.7342  0.4963 -1.0792
12431TIP3   OH258707   0.478   1.377   1.008 -0.2491 -0.1045  0.4009
12431TIP3    H158708   0.550   1.326   1.044 -2.0535 -0.3196  3.8635
12431TIP3    H258709   0.408   1.314   0.993 -0.8784  0.6236  0.2226
12432TIP3   OH258710   3.313   4.132   2.834  0.6845  0.0538  0.2060
12432TIP3    H158711   3.378   4.099   2.896  1.2293 -1.3081 -1.0722
12432TIP3    H258712   3.355   4.125   2.749 -0.3213  1.2628 -0.4074
12433TIP3   OH258713   5.253   3.186  16.808  0.2112  0.4357 -0.3523
12433TIP3    H158714   5.349   3.183  16.800  0.1326  0.6242 -1.4206
12433TIP3    H258715   5.236   3.265  16.860  0.6077  0.8586 -0.8509
12434TIP3   OH258716   1.068   0.309   4.318  0.1288 -0.1301  0.5016
12434TIP3    H158717   1.150   0.324   4.364  1.2304 -1.4962 -0.9665
12434TIP3    H258718   1.021   0.245   4.372  0.8300 -0.7215  0.4106
12435TIP3   OH258719   0.513   0.843   5.304  0.2145  0.1207  0.2603
12435TIP3    H158720   0.463   0.819   5.226  0.4355  3.3743 -0.9338
12435TIP3    H258721   0.604   0.822   5.280  0.0999 -0.4656  0.3121
12436TIP3   OH258722   1.520   4.377   4.402  0.1867 -0.0874  0.1737
12436TIP3    H158723   1.433   4.410   4.426  0.1498  0.5253 -0.7562
12436TIP3    H258724   1.517   4.283   4.421 -1.0715 -0.2770 -0.9636
12437TIP3   OH258725   1.299   4.671  12.276 -0.0606  0.7115  0.1104
12437TIP3    H158726   1.244   4.749  12.274 -0.1930  0.6050 -0.4371
12437TIP3    H258727   1.380   4.699  12.318  0.0565  1.2413 -0.4776
12438TIP3   OH258728   5.632   4.151  17.082 -0.0120  0.0424 -0.4955
12438TIP3    H158729   5.688   4.188  17.150 -0.8754 -1.2372  0.9604
12438TIP3    H258730   5.665   4.062  17.069 -1.1684 -0.4462 -0.2043
12439TIP3   OH258731   3.145   2.690  16.674 -0.1331 -0.0837 -0.6347
12439TIP3    H158732   3.126   2.759  16.611 -0.0712  0.1022 -0.4495
12439TIP3    H258733   3.132   2.730  16.759  2.7632  0.5838 -0.4396
12440TIP3   OH258734   4.817   5.524  12.718 -0.0492  0.2082  0.0343
12440TIP3    H158735   4.827   5.618  12.733  0.9007  0.1519 -0.2090
12440TIP3    H258736   4.853   5.510  12.630 -1.5710 -0.1451 -0.5577
12441TIP3   OH258737   0.779   6.413   0.380  0.2201  0.0115  0.1381
12441TIP3    H158738   0.849   6.467   0.416  1.9727 -1.8330 -0.3703
12441TIP3    H258739   0.800   6.324   0.411 -1.1161 -0.7776 -1.1594
12442TIP3   OH258740   5.390   3.956   0.287  0.3309  0.4629 -0.3609
12442TIP3    H158741   5.386   3.862   0.301 -1.4714  0.3275 -1.5842
12442TIP3    H258742   5.405   3.993   0.374 -2.0441 -0.7991  0.6184
12443TIP3   OH258743   4.060   2.530  10.903 -0.3011 -0.0092  0.0453
12443TIP3    H158744   4.088   2.538  10.812 -2.5485  1.1923 -0.5883
12443TIP3    H258745   4.073   2.617  10.940  1.3221 -0.6884  1.1139
12444TIP3   OH258746   1.722   0.411  13.966 -0.4740  0.0617 -0.4684
12444TIP3    H158747   1.793   0.471  13.942  0.1623 -0.1541  0.8002
12444TIP3    H258748   1.703   0.363  13.885  0.3497  0.6196 -1.0053
12445TIP3   OH258749   4.209   0.004   2.819 -0.5708  0.6810 -0.2141
12445TIP3    H158750   4.220  -0.037   2.905 -0.1838 -0.2752 -0.7048
12445TIP3    H258751   4.119   0.036   2.818 -1.3922 -1.5255 -0.3692
12446TIP3   OH258752   1.594   1.235   3.710 -0.5067  0.2629 -0.3614
12446TIP3    H158753   1.639   1.154   3.687 -1.4622 -0.0856 -1.0522
12446TIP3    H258754   1.501   1.215   3.700 -0.8545  0.7876  1.6343
12447TIP3   OH258755   6.316   1.734   0.487  0.1767 -0.6101  0.3399
12447TIP3    H158756   6.222   1.752   0.490 -0.0106 -1.2019 -1.3515
12447TIP3    H258757   6.322   1.639   0.497  0.6800 -0.4568  1.6082
12448TIP3   OH258758   2.791   5.300  14.743 -0.3118 -0.1205  0.0056
12448TIP3    H158759   2.795   5.372  14.807 -1.4885  0.5062 -0.6073
12448TIP3    H258760   2.799   5.344  14.658 -0.9411 -0.7208 -0.3639
12449TIP3   OH258761   4.425   1.143   0.825  0.3853 -0.8601  0.3417
12449TIP3    H158762   4.484   1.132   0.899 -0.4437 -0.6130  1.0412
12449TIP3    H258763   4.337   1.133   0.862 -0.1132  1.2414 -0.2426
12450TIP3   OH258764   2.035   4.304   3.391 -0.0387  0.1525 -0.3548
12450TIP3    H158765   2.053   4.226   3.445  2.4817 -0.3179 -1.7679
12450TIP3    H258766   1.960   4.280   3.338 -0.5370 -0.5618  0.6500
12451TIP3   OH258767   5.732   5.032  12.889  0.2509  0.4320 -0.0026
12451TIP3    H158768   5.693   5.114  12.917  0.0613  0.5911 -0.7395
12451TIP3    H258769   5.662   4.967  12.899 -0.3993  0.8193 -1.8827
12452TIP3   OH258770   3.406   3.036  12.774  0.7100  0.0760 -0.3944
12452TIP3    H158771   3.325   3.036  12.824  0.5315 -1.6627 -0.6543
12452TIP3    H258772   3.383   3.076  12.691  0.4238  0.7396  0.0011
12453TIP3   OH258773   4.439   0.046   4.355 -0.4058  0.2504 -0.4374
12453TIP3    H158774   4.449   0.131   4.399 -0.1698  1.1550 -2.1713
12453TIP3    H258775   4.403  -0.012   4.422  0.5459  1.4091  1.1118
12454TIP3   OH258776   6.587   2.140   4.714  0.4975 -0.3026 -0.3291
12454TIP3    H158777   6.532   2.091   4.653 -0.6178 -0.5727  0.8532
12454TIP3    H258778   6.662   2.083   4.730  0.3642 -0.6078 -0.7660
12455TIP3   OH258779   1.976   1.534  13.606  0.2752 -0.1714 -0.0661
12455TIP3    H158780   1.991   1.523  13.699 -0.5478 -0.1714  0.0713
12455TIP3    H258781   1.888   1.499  13.591  0.3741 -0.1172 -0.8291
12456TIP3   OH258782   3.718   5.878   1.364  0.0526 -0.2002  0.1493
12456TIP3    H158783   3.769   5.853   1.287 -0.0484 -1.3102  0.4308
12456TIP3    H258784   3.721   5.801   1.421 -1.4266 -0.0566  0.4397
12457TIP3   OH258785   3.091   2.642   4.553 -0.4865 -0.1330  0.4803
12457TIP3    H158786   3.128   2.712   4.607 -0.3538 -0.6993  1.1327
12457TIP3    H258787   3.088   2.566   4.611 -1.6891 -0.3790  0.1235
12458TIP3   OH258788   5.524   5.082   0.543 -0.3789  0.4090  0.1863
12458TIP3    H158789   5.574   5.157   0.574  0.1377  0.0868  0.1300
12458TIP3    H258790   5.511   5.099   0.449  1.3684 -0.4792 -0.2430
12459TIP3   OH258791   4.960   1.674   6.499  0.4348  0.0550 -0.3722
12459TIP3    H158792   5.020   1.748   6.492 -0.3894  0.7985  0.3279
12459TIP3    H258793   5.007   1.611   6.554 -0.3454  1.6022  2.1369
12460TIP3   OH258794   5.469   5.969  12.121  0.0131  0.1944 -0.2089
12460TIP3    H158795   5.399   6.031  12.101  1.0109  1.2793 -0.3893
12460TIP3    H258796   5.468   5.907  12.048  0.7310  1.5500 -1.3992
12461TIP3   OH258797   2.249   4.657   3.163 -0.0969 -0.1092 -0.1036
12461TIP3    H158798   2.286   4.609   3.089 -0.9817  0.2827 -0.8078
12461TIP3    H258799   2.183   4.714   3.124  0.1421  0.8420  0.8641
12462TIP3   OH258800   4.742   1.744   0.767  0.3589 -0.1077  0.4448
12462TIP3    H158801   4.768   1.661   0.807 -0.0845 -0.4294  0.0728
12462TIP3    H258802   4.819   1.771   0.717  0.4001 -0.4503  0.3208
12463TIP3   OH258803   3.530   2.450  11.512 -0.9800  0.0476  0.7559
12463TIP3    H158804   3.554   2.370  11.464  0.2138  1.3328 -0.8390
12463TIP3    H258805   3.449   2.479  11.470 -0.5531  0.5454  0.2723
12464TIP3   OH258806   3.918   5.545  16.448 -0.5140 -0.3666  0.3986
12464TIP3    H158807   3.863   5.488  16.395 -2.0362  1.1360  0.2984
12464TIP3    H258808   3.940   5.618  16.390 -2.1241  1.2565  1.7605
12465TIP3   OH258809   6.061   6.179   1.676  0.4478  0.3333  0.2406
12465TIP3    H158810   6.120   6.171   1.601  0.0206 -1.4582  0.0649
12465TIP3    H258811   6.118   6.197   1.750  1.2067 -1.0950  0.0193
12466TIP3   OH258812   5.742   2.305   5.569  0.4485  0.1349 -0.0008
12466TIP3    H158813   5.810   2.315   5.635  1.9049 -1.5243 -1.2036
12466TIP3    H258814   5.789   2.285   5.488 -1.4530 -0.7340 -0.9405
12467TIP3   OH258815   4.416   5.951   4.142  0.0739 -0.3220 -0.3825
12467TIP3    H158816   4.368   5.870   4.125 -0.8757  0.2239 -0.2967
12467TIP3    H258817   4.368   5.993   4.213  0.1533  0.6615 -0.9072
12468TIP3   OH258818   0.215   1.919  11.470  0.2382 -0.1392 -0.0330
12468TIP3    H158819   0.130   1.946  11.503 -0.1119 -2.0215  0.6382
12468TIP3    H258820   0.275   1.987  11.501 -1.2492  2.2665 -2.1555
12469TIP3   OH258821   0.527   6.043  16.750 -0.2970 -0.2248  0.0659
12469TIP3    H158822   0.580   6.123  16.755 -1.4286  0.6419 -1.5352
12469TIP3    H258823   0.567   5.984  16.815  0.6079  1.5884  1.1988
12470TIP3   OH258824   5.657   0.213  16.381 -1.0300  0.3405 -0.7573
12470TIP3    H158825   5.725   0.259  16.432 -1.3331 -0.9119  0.8339
12470TIP3    H258826   5.696   0.201  16.295  0.4439  0.4227 -0.1181
12471TIP3   OH258827   6.331   5.073  12.453 -0.2672 -0.8378  0.3611
12471TIP3    H158828   6.410   5.125  12.436 -0.8389  0.2779  1.0596
12471TIP3    H258829   6.287   5.068  12.368 -0.4215  0.2070  0.3636
12472TIP3   OH258830   0.998   2.303  11.416 -0.1801  0.0819  0.2958
12472TIP3    H158831   0.907   2.283  11.393  0.4004  1.6834 -3.9700
12472TIP3    H258832   0.997   2.395  11.442  0.3465  0.5279 -1.1544
12473TIP3   OH258833   4.643   2.964  12.958  0.1766 -0.0560 -0.0896
12473TIP3    H158834   4.702   2.972  12.883  0.0109 -0.8004 -0.3026
12473TIP3    H258835   4.699   2.934  13.029 -0.2490 -2.4513 -0.7297
12474TIP3   OH258836   5.259   6.554   5.293  0.8362 -1.1167 -0.1657
12474TIP3    H158837   5.275   6.568   5.386 -1.1279  0.2995  0.0034
12474TIP3    H258838   5.344   6.532   5.256  1.4625 -2.7317  2.1348
12475TIP3   OH258839   3.684   2.048   6.260 -0.6251  0.2345 -0.2629
12475TIP3    H158840   3.764   2.079   6.301 -0.4737 -0.2604 -0.1868
12475TIP3    H258841   3.624   2.031   6.333  0.3101 -2.5577 -0.0882
12476TIP3   OH258842   2.690   2.440   1.020 -0.0235 -0.7644  0.3806
12476TIP3    H158843   2.622   2.494   1.061  0.2711  0.8434 -1.1568
12476TIP3    H258844   2.772   2.469   1.060  0.0800 -0.4178 -0.0728
12477TIP3   OH258845   4.503   0.432   2.382  0.6137  0.2071 -0.2898
12477TIP3    H158846   4.475   0.422   2.473 -0.5058  0.0402 -0.6410
12477TIP3    H258847   4.578   0.492   2.386 -1.4061  2.7715  0.4432
12478TIP3   OH258848   1.187   4.027  17.192 -0.0467 -0.1681 -0.0261
12478TIP3    H158849   1.095   4.039  17.167 -0.1128  0.0027  0.2974
12478TIP3    H258850   1.194   3.934  17.210 -0.2163 -0.1408  0.1857
12479TIP3   OH258851   3.430   4.587  12.079 -0.1760  0.1060  0.4970
12479TIP3    H158852   3.466   4.622  11.998  2.0566 -0.9770  0.9743
12479TIP3    H258853   3.368   4.653  12.109 -0.5019  0.8254 -1.7176
12480TIP3   OH258854   1.620   1.134   5.222  0.8178 -0.5721 -0.1444
12480TIP3    H158855   1.644   1.096   5.307 -0.6823 -0.4904  0.3346
12480TIP3    H258856   1.576   1.063   5.175 -0.9324  0.1990  0.2913
12481TIP3   OH258857   4.288   1.671  13.928 -0.6199  0.1224 -0.0308
12481TIP3    H158858   4.289   1.755  13.973  0.1990  0.5017 -0.7503
12481TIP3    H258859   4.281   1.693  13.835 -0.8870 -0.6154 -0.1903
12482TIP3   OH258860   4.626   6.571  12.816 -0.4759 -0.3795  0.1556
12482TIP3    H158861   4.568   6.609  12.882  0.3896 -0.2790  0.8770
12482TIP3    H258862   4.713   6.603  12.840  0.1566 -2.1665  0.3004
12483TIP3   OH258863   4.629   0.355  15.610 -0.0321 -0.4253  0.0461
12483TIP3    H158864   4.645   0.444  15.581  1.5053 -0.6177  0.2806
12483TIP3    H258865   4.606   0.364  15.703 -0.9109 -0.1971 -0.1805
12484TIP3   OH258866   4.965   6.585   1.369  0.0565  0.1291 -0.0171
12484TIP3    H158867   4.966   6.612   1.278  3.2769 -1.2001 -0.4556
12484TIP3    H258868   4.984   6.491   1.367 -0.4831 -0.0637  2.0001
12485TIP3   OH258869   4.535   1.650  16.414  0.2840  0.9367  0.0131
12485TIP3    H158870   4.576   1.597  16.345 -1.4971  0.2647 -0.5474
12485TIP3    H258871   4.609   1.683  16.465  1.5045 -0.8063 -0.5675
12486TIP3   OH258872   6.647   6.234  15.675  0.2058 -0.0276 -0.0071
12486TIP3    H158873   6.715   6.298  15.655 -0.2905 -0.0128 -1.6810
12486TIP3    H258874   6.571   6.262  15.624 -0.8846 -0.3798  1.3966
12487TIP3   OH258875   5.893   3.461   1.710  0.1653 -0.2161  0.0251
12487TIP3    H158876   5.936   3.384   1.748 -1.7693 -0.7620  1.1784
12487TIP3    H258877   5.965   3.522   1.691  1.5738 -1.7049  0.4876
12488TIP3   OH258878   1.556   6.707   0.546  0.3834  0.0371  0.5336
12488TIP3    H158879   1.643   6.701   0.584  0.5856 -1.6586 -0.1341
12488TIP3    H258880   1.503   6.647   0.599 -0.0830  0.1049  0.1471
12489TIP3   OH258881   6.128   4.167  13.097 -0.4331 -0.2904  0.2439
12489TIP3    H158882   6.106   4.260  13.105 -0.2486 -0.2309  0.0657
12489TIP3    H258883   6.131   4.135  13.187  0.7441  0.1653  0.3868
12490TIP3   OH258884   0.608   3.243   4.848 -0.0968 -0.7196  0.2961
12490TIP3    H158885   0.657   3.212   4.772  0.4199  0.7874 -0.0028
12490TIP3    H258886   0.529   3.283   4.811  0.1029 -0.0842  0.5382
12491TIP3   OH258887   5.196   6.241   5.499 -0.1994  0.0580 -0.2172
12491TIP3    H158888   5.198   6.218   5.406 -1.2270  2.4286 -0.8629
12491TIP3    H258889   5.107   6.221   5.526  0.2941 -1.2816  0.4490
12492TIP3   OH258890   1.726   3.830   0.174  0.3749 -0.4176 -0.0638
12492TIP3    H158891   1.641   3.872   0.161 -1.1363 -2.6648  2.1025
12492TIP3    H258892   1.771   3.886   0.238 -0.2929 -0.3102  0.3153
12493TIP3   OH258893   6.420   1.183   3.096 -0.0333 -0.0340  0.5440
12493TIP3    H158894   6.489   1.249   3.101 -0.6188  0.4916  2.0716
12493TIP3    H258895   6.343   1.231   3.063  0.0440 -0.3776 -0.1398
12494TIP3   OH258896   0.135   6.434  15.163 -0.3856 -0.8860  0.0147
12494TIP3    H158897   0.165   6.517  15.198  0.5489 -1.0697 -0.3451
12494TIP3    H258898   0.130   6.376  15.239  1.0680 -1.1159 -0.0532
12495TIP3   OH258899   4.640   2.039  13.542 -0.1281  0.0655 -0.0411
12495TIP3    H158900   4.694   2.023  13.619  0.5929  1.3895 -0.2638
12495TIP3    H258901   4.702   2.045  13.469 -0.7865 -0.9787 -0.7037
12496TIP3   OH258902   3.524   6.764  15.401 -0.5372 -0.2576  0.0916
12496TIP3    H158903   3.608   6.729  15.431 -0.5536  0.4519  0.9909
12496TIP3    H258904   3.494   6.820  15.473 -1.2071  0.4466 -0.7227
12497TIP3   OH258905   0.320   5.136  13.214 -0.4592 -0.3614  0.4600
12497TIP3    H158906   0.262   5.114  13.286 -0.6827  1.6451  0.9151
12497TIP3    H258907   0.356   5.222  13.237  0.5210 -0.3120 -1.1604
12498TIP3   OH258908   4.334   1.150  13.120  0.4013  0.3705 -0.3434
12498TIP3    H158909   4.335   1.234  13.074  1.5707 -0.1845 -1.3471
12498TIP3    H258910   4.390   1.163  13.195  1.1857  0.2664 -0.9071
12499TIP3   OH258911   3.917   6.775  16.900 -0.2511  0.2293 -0.1800
12499TIP3    H158912   3.943   6.697  16.949  0.2251  0.4218 -0.1205
12499TIP3    H258913   3.822   6.776  16.904 -0.4703 -2.2497 -3.1121
12500TIP3   OH258914   5.807   3.890  13.872 -0.3051  0.1487  0.5700
12500TIP3    H158915   5.749   3.886  13.948 -1.2920 -0.6122 -0.2001
12500TIP3    H258916   5.848   3.804  13.869 -3.0730 -1.1820 -1.8743
12501TIP3   OH258917   3.378   4.096  13.119  0.2628  0.3132 -0.6577
12501TIP3    H158918   3.326   4.154  13.175  0.7068 -0.8155  0.9529
12501TIP3    H258919   3.316   4.067  13.051 -0.1556  2.0529 -1.0397
12502TIP3   OH258920   4.835   1.331   0.126  0.3868 -0.0625  0.1199
12502TIP3    H158921   4.775   1.345   0.053  1.2290 -0.9715 -0.7635
12502TIP3    H258922   4.780   1.339   0.204 -0.7528 -0.2527 -0.6447
12503TIP3   OH258923   5.568   4.354   1.033  0.2320  0.0678  0.2262
12503TIP3    H158924   5.591   4.443   1.058 -0.3804  0.2549  0.1354
12503TIP3    H258925   5.478   4.342   1.065 -0.4838  0.2370 -1.6618
12504TIP3   OH258926   3.811   5.658   1.476  0.1727 -0.8182 -0.7337
12504TIP3    H158927   3.805   5.563   1.465  0.5085 -0.7207 -1.7460
12504TIP3    H258928   3.904   5.677   1.465  0.3039 -0.5348  0.7836
12505TIP3   OH258929   3.109   2.153  13.945 -0.1660  0.0676  0.0539
12505TIP3    H158930   3.016   2.145  13.966 -0.2967  0.7113 -0.2869
12505TIP3    H258931   3.137   2.063  13.928 -0.6523 -0.1647  0.4718
12506TIP3   OH258932   4.395   1.245   3.470  0.1334  0.1352  0.2795
12506TIP3    H158933   4.331   1.200   3.525 -1.7198  0.5836 -1.4322
12506TIP3    H258934   4.385   1.337   3.493 -1.0139  0.3807 -1.1163
12507TIP3   OH258935   4.908   1.987  13.618  0.1716 -0.2781  0.1640
12507TIP3    H158936   4.958   2.068  13.626 -0.2863 -0.2223  2.5486
12507TIP3    H258937   4.974   1.920  13.599  0.9219  0.1373  1.2927
12508TIP3   OH258938   5.138   6.604  10.787 -0.1660 -0.5238  0.4334
12508TIP3    H158939   5.146   6.584  10.880 -3.8286 -0.6215  0.7784
12508TIP3    H258940   5.080   6.680  10.783  1.7283  0.8793 -1.6905
12509TIP3   OH258941   0.661   3.498   0.270  0.0122  0.0069  0.5399
12509TIP3    H158942   0.701   3.426   0.222 -1.7201 -0.7104  0.1105
12509TIP3    H258943   0.664   3.471   0.362 -0.9797 -0.8063  0.3437
12510TIP3   OH258944   3.185   0.993   0.045  0.4129 -0.1268 -0.4937
12510TIP3    H158945   3.110   0.994   0.105  0.9639 -0.0775  0.1987
12510TIP3    H258946   3.205   0.900   0.034 -0.4302 -0.1957 -1.5456
12511TIP3   OH258947   2.028   0.748  11.668  0.2128 -0.3192  0.3182
12511TIP3    H158948   2.041   0.664  11.624  1.6272 -0.0616  0.2036
12511TIP3    H258949   1.934   0.756  11.678 -0.1013 -0.7816 -1.9349
12512TIP3   OH258950   4.481   2.062   4.454  0.2681  0.2438  0.3914
12512TIP3    H158951   4.565   2.104   4.473 -0.2104  1.4211 -0.0864
12512TIP3    H258952   4.462   2.010   4.532  1.5418 -0.1996  0.4168
12513TIP3   OH258953   4.723   2.960  15.615 -0.0326  0.1477 -0.2298
12513TIP3    H158954   4.638   2.988  15.648  0.0117 -2.2148  2.0502
12513TIP3    H258955   4.718   2.973  15.521 -2.1829  1.8903  0.0910
12514TIP3   OH258956   6.749   3.392   1.227  0.9744  0.4963  0.0798
12514TIP3    H158957   6.739   3.326   1.158  2.2829 -1.5741  1.7841
12514TIP3    H258958   6.826   3.362   1.276  1.7259  3.4637  0.7559
12515TIP3   OH258959   0.738   1.570   5.698 -0.4133  0.7075 -0.2175
12515TIP3    H158960   0.834   1.576   5.700 -0.2819 -0.5366 -1.9554
12515TIP3    H258961   0.718   1.492   5.748 -0.5508  1.1984  0.4963
12516TIP3   OH258962   4.756   1.983   5.362  0.4665  0.2462 -0.7321
12516TIP3    H158963   4.671   2.009   5.398  1.5741  3.7701 -0.3882
12516TIP3    H258964   4.756   2.017   5.272  1.7972  1.0797 -0.4421
12517TIP3   OH258965   6.304   1.779  13.322  0.0023  0.1981  0.1765
12517TIP3    H158966   6.218   1.754  13.288 -0.1220  1.9658 -0.8866
12517TIP3    H258967   6.285   1.832  13.399  0.0659  2.0286 -1.0435
12518TIP3   OH258968   5.326   0.389   2.201 -0.3617 -0.3474  0.5217
12518TIP3    H158969   5.286   0.474   2.219  0.0284 -0.2458  0.8967
12518TIP3    H258970   5.292   0.332   2.270 -0.0576 -0.3222  0.6920
12519TIP3   OH258971   0.778   3.528  16.546 -0.1227 -0.0100 -0.5796
12519TIP3    H158972   0.867   3.494  16.554  0.1525 -0.3271 -4.1065
12519TIP3    H258973   0.725   3.452  16.523 -1.1338  0.3779  0.4048
12520TIP3   OH258974   0.905   1.130   2.033 -0.2494 -0.5400  0.6156
12520TIP3    H158975   0.878   1.040   2.020 -1.0104 -0.0555 -1.4176
12520TIP3    H258976   0.838   1.182   1.989  1.9358  0.8577 -1.2246
12521TIP3   OH258977   6.450   2.067  14.318  0.1144  0.6359 -0.2843
12521TIP3    H158978   6.481   1.981  14.289 -0.2867 -0.0778  1.3654
12521TIP3    H258979   6.364   2.076  14.278 -0.1661 -0.0676  0.1568
12522TIP3   OH258980   6.637   5.363   5.697 -0.1557  0.5231  0.0377
12522TIP3    H158981   6.615   5.331   5.785 -0.9433  2.3884  0.5321
12522TIP3    H258982   6.729   5.338   5.685 -0.9224 -2.5173  0.1138
12523TIP3   OH258983   4.641   5.645  14.831 -0.0760 -0.1814  0.5241
12523TIP3    H158984   4.665   5.617  14.742  0.6682  0.0011  0.6620
12523TIP3    H258985   4.622   5.738  14.822 -0.7546 -0.3319  0.4089
12524TIP3   OH258986   5.680   3.942  11.049  0.8887 -0.4203 -0.0058
12524TIP3    H158987   5.759   3.889  11.051  1.2701  0.1401 -0.2865
12524TIP3    H258988   5.692   4.002  10.976 -0.2600 -1.0479 -0.7240
12525TIP3   OH258989   2.250   3.959  12.956  0.2041 -0.1764  0.0462
12525TIP3    H158990   2.291   3.876  12.933 -0.1856 -0.5183  0.5705
12525TIP3    H258991   2.157   3.938  12.970  0.4245  0.0126  1.9162
12526TIP3   OH258992   3.069   1.405  11.504  0.1003  0.0870  0.1582
12526TIP3    H158993   3.128   1.389  11.578 -0.2779 -0.1676  0.4021
12526TIP3    H258994   2.988   1.435  11.544 -1.3035 -3.3698  0.0931
12527TIP3   OH258995   2.826   5.459   0.926 -0.5430 -0.6922  0.2475
12527TIP3    H158996   2.857   5.518   0.857 -2.6105 -1.2259 -1.2088
12527TIP3    H258997   2.863   5.374   0.902 -1.7503 -0.9993 -0.5683
12528TIP3   OH258998   4.405   4.490   1.408 -0.1730 -0.3009 -0.0012
12528TIP3    H158999   4.446   4.534   1.483  0.3184  0.4489 -0.7033
12528TIP3    H259000   4.349   4.557   1.369  2.4575  0.5072 -2.5433
12529TIP3   OH259001   0.761   1.615   4.391 -0.0119 -0.1452 -0.1110
12529TIP3    H159002   0.818   1.611   4.314  1.5622  0.3668  1.0176
12529TIP3    H259003   0.695   1.681   4.368 -0.1741 -0.7339 -1.4149
12530TIP3   OH259004   1.663   5.822  11.490 -0.1247  0.0238  0.2664
12530TIP3    H159005   1.595   5.764  11.522 -0.2876 -1.0118 -1.9039
12530TIP3    H259006   1.745   5.781  11.518 -0.1770 -2.0744 -2.4899
12531TIP3   OH259007   5.188   6.102  12.675  0.0361 -0.1995 -0.3254
12531TIP3    H159008   5.241   6.044  12.621  0.0293 -0.9678  0.4763
12531TIP3    H259009   5.196   6.066  12.764  0.4923  1.3549  0.2822
12532TIP3   OH259010   1.791   3.454  12.213  0.1428  0.2197 -0.5567
12532TIP3    H159011   1.801   3.449  12.308  0.2457 -2.6820 -0.6979
12532TIP3    H259012   1.704   3.420  12.195  0.5475 -0.3246 -1.5746
12533TIP3   OH259013   1.525   5.043  15.556  0.1423  0.5311  0.4574
12533TIP3    H159014   1.486   5.109  15.499 -3.7380 -0.9664  1.2402
12533TIP3    H259015   1.519   5.081  15.644 -0.9336 -0.3184  0.7580
12534TIP3   OH259016   3.985   0.790   4.584 -0.5335 -0.2086 -0.1810
12534TIP3    H159017   4.020   0.825   4.502 -1.9788  0.0601 -0.6877
12534TIP3    H259018   3.998   0.860   4.648 -0.3823 -0.0234 -0.4175
12535TIP3   OH259019   3.083   5.911  15.592 -0.5641  0.3408  0.4312
12535TIP3    H159020   3.106   6.004  15.596 -0.8348  0.4499 -0.3785
12535TIP3    H259021   3.104   5.885  15.502 -0.7698 -0.3044  0.5651
12536TIP3   OH259022   0.655   3.462   1.703  0.5183 -0.3643 -0.0343
12536TIP3    H159023   0.703   3.421   1.775 -0.2800 -1.5388 -0.1649
12536TIP3    H259024   0.642   3.552   1.732 -0.2690 -0.9650  1.5518
12537TIP3   OH259025   1.624   2.381   3.914 -0.4118 -0.0193 -0.2024
12537TIP3    H159026   1.569   2.344   3.984  0.2248  1.3342  1.0213
12537TIP3    H259027   1.706   2.403   3.957 -0.4923  2.0817 -1.0897
12538TIP3   OH259028   0.875   5.293   3.030  0.5122  0.0302  0.2990
12538TIP3    H159029   0.813   5.301   3.102  0.8612  0.7259  0.5187
12538TIP3    H259030   0.961   5.307   3.070  0.8318 -1.0282  0.0154
12539TIP3   OH259031   2.298   0.057   1.392 -0.0510 -0.1652 -0.0226
12539TIP3    H159032   2.250  -0.020   1.361  1.0968  0.0125 -2.3901
12539TIP3    H259033   2.303   0.046   1.487 -1.2216 -2.2305 -0.1696
12540TIP3   OH259034   4.713   0.621   0.913  0.5824  0.4082 -0.2693
12540TIP3    H159035   4.696   0.605   1.006 -2.3573 -0.4561 -0.8739
12540TIP3    H259036   4.780   0.558   0.889  0.3899 -0.2725  0.9632
12541TIP3   OH259037   5.922   6.318   6.302  0.0360 -0.6160  0.1496
12541TIP3    H159038   5.907   6.341   6.394  2.7746  2.0300  0.0319
12541TIP3    H259039   5.998   6.261   6.304  1.1550  0.8104 -0.5581
12542TIP3   OH259040   0.775   3.074   2.352  0.1914 -0.2864 -0.4174
12542TIP3    H159041   0.785   2.980   2.335  1.9076  0.0567 -1.4534
12542TIP3    H259042   0.792   3.084   2.445 -0.4703 -1.0594 -0.2067
12543TIP3   OH259043   2.393   0.257  14.619  0.3860  0.6886  0.0189
12543TIP3    H159044   2.297   0.253  14.625  0.3374 -0.8098 -1.3354
12543TIP3    H259045   2.424   0.202  14.691  0.1984  0.4761 -0.0603
12544TIP3   OH259046   0.533   5.412  14.609  0.1469  0.1003  0.4852
12544TIP3    H159047   0.554   5.349  14.678  0.9576  2.1427  2.1591
12544TIP3    H259048   0.438   5.416  14.607  0.0688 -1.8595 -0.2849
12545TIP3   OH259049   5.244   0.141  16.432  0.7670  0.0071  0.1740
12545TIP3    H159050   5.244   0.147  16.528  0.4853 -0.4311  0.2010
12545TIP3    H259051   5.318   0.084  16.412  0.5899 -0.2165  0.1519
12546TIP3   OH259052   5.078   2.814   0.623 -0.1161 -0.0213  0.4003
12546TIP3    H159053   5.149   2.752   0.631  0.9011  1.4102  2.9351
12546TIP3    H259054   5.002   2.770   0.662  0.1418 -0.3773  0.4948
12547TIP3   OH259055   2.370   4.590  10.649  0.4135  0.1908 -0.8207
12547TIP3    H159056   2.404   4.542  10.725  0.0425 -1.4874 -1.6808
12547TIP3    H259057   2.399   4.539  10.574 -2.8298 -0.5621 -1.6407
12548TIP3   OH259058   2.189   0.403  12.902  0.0759  0.0962 -0.4149
12548TIP3    H159059   2.186   0.390  12.997  0.8092  2.1822 -0.0973
12548TIP3    H259060   2.099   0.386  12.873 -0.3027  0.0910  0.7304
12549TIP3   OH259061   0.728   5.069  16.245 -0.4117 -0.1130 -0.5657
12549TIP3    H159062   0.684   5.009  16.305  0.7332 -0.5651 -0.1689
12549TIP3    H259063   0.657   5.120  16.206 -1.1394  0.5223  1.5231
12550TIP3   OH259064   5.069   1.588  11.102 -0.4075 -0.2858 -0.0264
12550TIP3    H159065   4.995   1.528  11.092 -0.8902  0.1357  0.9941
12550TIP3    H259066   5.033   1.675  11.086 -0.1931 -0.0593  0.6780
12551TIP3   OH259067   4.290   2.288   5.024 -0.2801  0.0426  0.3674
12551TIP3    H159068   4.313   2.200   5.054 -0.7430  0.2158  1.2522
12551TIP3    H259069   4.334   2.346   5.087 -0.9890  0.4160  0.5145
12552TIP3   OH259070   6.622   3.925   2.825  0.1530  0.5073 -0.6082
12552TIP3    H159071   6.555   3.992   2.808 -0.4209  0.4001  1.0958
12552TIP3    H259072   6.572   3.843   2.833  0.7509  0.0219 -1.7270
12553TIP3   OH259073   5.753   5.809   4.348  0.0327 -0.1915 -0.2073
12553TIP3    H159074   5.683   5.766   4.300 -0.1926 -0.6770  0.5502
12553TIP3    H259075   5.711   5.842   4.427  0.6261 -0.3445  0.1766
12554TIP3   OH259076   2.418   6.489  16.514 -0.2658  0.2159 -0.1876
12554TIP3    H159077   2.452   6.408  16.552  1.5616  0.2976 -1.5455
12554TIP3    H259078   2.457   6.493  16.426  0.1046  2.8121  0.0351
12555TIP3   OH259079   4.760   3.591  16.667  0.5312 -0.1088  0.3469
12555TIP3    H159080   4.780   3.497  16.673  0.4029 -0.1281  0.4765
12555TIP3    H259081   4.762   3.610  16.573 -1.8981 -0.7899  0.1082
12556TIP3   OH259082   5.662   2.901  12.156  0.6236 -0.7686 -0.2177
12556TIP3    H159083   5.628   2.974  12.104 -0.8004 -1.1689  0.1276
12556TIP3    H259084   5.730   2.940  12.210 -0.3661  0.3853  0.2192
12557TIP3   OH259085   6.507   4.558  15.481 -0.5726  0.2687 -0.4285
12557TIP3    H159086   6.502   4.489  15.415 -0.7401  0.1124 -0.2546
12557TIP3    H259087   6.416   4.583  15.497 -0.6040 -0.3713  0.4503
12558TIP3   OH259088   0.781   0.944  13.515  0.1897  0.7147  0.2655
12558TIP3    H159089   0.819   0.961  13.429  2.3597  1.7811  1.3941
12558TIP3    H259090   0.805   0.854  13.534  0.9029  0.9137  0.3313
12559TIP3   OH259091   3.388   2.329  15.728  0.1491  0.0644  0.2323
12559TIP3    H159092   3.429   2.299  15.809  1.9789  2.1726  0.1343
12559TIP3    H259093   3.310   2.273  15.719  0.6915 -1.1806  2.6538
12560TIP3   OH259094   2.618   4.651  11.465  0.5961 -0.2095 -0.3403
12560TIP3    H159095   2.535   4.637  11.420  1.3962 -1.2147 -1.5320
12560TIP3    H259096   2.651   4.734  11.429 -0.5226  0.9081  1.1441
12561TIP3   OH259097   0.858   0.026   3.915 -0.2219 -0.2352  0.0793
12561TIP3    H159098   0.952   0.045   3.908 -0.1282  0.0094  1.8787
12561TIP3    H259099   0.826   0.086   3.982 -1.5727 -0.7086 -0.1168
12562TIP3   OH259100   6.248   1.410   1.044 -0.3983  0.2574 -0.4115
12562TIP3    H159101   6.267   1.317   1.036 -1.8640  0.0084 -1.0594
12562TIP3    H259102   6.298   1.438   1.121  1.5066 -0.6527 -1.2819
12563TIP3   OH259103   1.072   1.556   5.216 -0.0426 -0.1531  0.0135
12563TIP3    H159104   1.105   1.493   5.152 -1.8539  0.7349 -1.8331
12563TIP3    H259105   1.128   1.633   5.205  0.5015 -0.4747  0.4634
12564TIP3   OH259106   2.067   0.443  14.059  0.2647  0.0464  0.0657
12564TIP3    H159107   1.995   0.383  14.079  0.0291 -0.1408 -1.2762
12564TIP3    H259108   2.027   0.511  14.005  0.9427  0.3433 -0.0664
12565TIP3   OH259109   6.637   3.979   2.295 -0.2491  0.6230 -0.0790
12565TIP3    H159110   6.615   3.940   2.379  2.9073  0.0576  0.5398
12565TIP3    H259111   6.583   4.058   2.291 -0.1106  0.9168  2.6995
12566TIP3   OH259112   1.097   0.190  13.724 -0.1892 -0.3763 -0.7267
12566TIP3    H159113   1.011   0.232  13.726 -0.1461 -0.3176  0.5821
12566TIP3    H259114   1.083   0.109  13.674 -0.7513  0.1557 -1.4405
12567TIP3   OH259115   5.753   2.196   4.596  0.3092  0.5330  0.1660
12567TIP3    H159116   5.839   2.209   4.556  0.1754  0.5207 -0.1271
12567TIP3    H259117   5.765   2.222   4.687  1.0326 -0.9803  0.5055
12568TIP3   OH259118   6.106   6.504   4.782  0.2855  0.7792  0.2221
12568TIP3    H159119   6.085   6.549   4.701  0.2122  0.2489 -0.0558
12568TIP3    H259120   6.183   6.450   4.760  0.3421  0.7308  0.5351
12569TIP3   OH259121   1.694   1.970  17.135 -0.3196 -0.1919 -0.4922
12569TIP3    H159122   1.717   2.041  17.075 -0.0480 -0.6623 -0.9471
12569TIP3    H259123   1.766   1.907  17.127 -0.4226 -0.3881  0.1137
12570TIP3   OH259124   3.222   6.544   1.974 -0.0386 -0.1746  0.4455
12570TIP3    H159125   3.197   6.635   1.958 -1.9206 -0.8987 -0.9355
12570TIP3    H259126   3.303   6.550   2.024  0.6274  2.2723 -0.8417
12571TIP3   OH259127   2.028   1.306   0.917  0.8246  0.1658  0.1207
12571TIP3    H159128   2.109   1.353   0.937  0.8128  0.4241 -0.4162
12571TIP3    H259129   1.958   1.370   0.930  0.8386  0.4118 -0.9696
12572TIP3   OH259130   3.101   6.441   1.293  0.2523 -0.8558 -0.2453
12572TIP3    H159131   3.066   6.435   1.382 -0.5343 -1.8587 -0.6014
12572TIP3    H259132   3.045   6.382   1.242  1.7928 -1.6455 -1.0508
12573TIP3   OH259133   0.753   6.083   4.073  0.4945  0.5701  0.1903
12573TIP3    H159134   0.696   6.033   4.015  0.8949 -1.1355  1.2429
12573TIP3    H259135   0.735   6.175   4.051 -3.3448  0.1191  1.1610
12574TIP3   OH259136   4.430   2.281  12.725 -0.1298 -0.0431  0.3759
12574TIP3    H159137   4.366   2.212  12.706  0.1693 -0.4239  0.7280
12574TIP3    H259138   4.377   2.359  12.739 -0.4248 -0.0243 -0.7960
12575TIP3   OH259139   2.338   6.480   0.801 -0.3555 -0.7214 -0.1330
12575TIP3    H159140   2.308   6.475   0.892  0.4828 -2.0802  0.0775
12575TIP3    H259141   2.378   6.567   0.794 -0.9461 -0.3778  0.6278
12576TIP3   OH259142   4.137   3.288  14.793  0.3004 -0.6978 -0.2080
12576TIP3    H159143   4.215   3.240  14.766  0.4473  0.2043 -1.4124
12576TIP3    H259144   4.170   3.374  14.819 -0.3772 -0.0285 -1.5251
12577TIP3   OH259145   1.244   4.729   2.564 -0.0680  0.3702  0.4253
12577TIP3    H159146   1.164   4.716   2.614  0.0068  1.0721  0.7341
12577TIP3    H259147   1.258   4.646   2.519 -1.0399  0.2921  0.2578
12578TIP3   OH259148   5.944   5.864   3.923  0.0633 -0.1586 -0.0173
12578TIP3    H159149   5.857   5.878   3.884  0.4123 -0.9491 -1.1053
12578TIP3    H259150   5.995   5.939   3.892  0.5991 -1.2616 -1.8923
12579TIP3   OH259151   0.596   6.136   6.121  0.2057  0.0682 -0.3349
12579TIP3    H159152   0.595   6.087   6.203 -0.1558  1.1943  0.3539
12579TIP3    H259153   0.504   6.139   6.094  0.3545 -0.5140 -0.9161
12580TIP3   OH259154   4.232   6.142  15.191  0.5355 -0.0872  0.3229
12580TIP3    H159155   4.325   6.141  15.215  0.2982  0.3141  1.2664
12580TIP3    H259156   4.221   6.226  15.145 -0.3125  1.9912  4.1239
12581TIP3   OH259157   1.783   0.616   2.682 -0.4054 -0.5298  0.0790
12581TIP3    H159158   1.796   0.623   2.777 -0.2608  1.3146 -0.0513
12581TIP3    H259159   1.694   0.583   2.672 -1.0862  0.9695  0.8666
12582TIP3   OH259160   4.693   5.964   3.566  0.3559  0.6353  0.7977
12582TIP3    H159161   4.753   6.000   3.501  0.5773  0.7487  1.0659
12582TIP3    H259162   4.628   6.033   3.580 -1.7822 -0.7170 -1.9683
12583TIP3   OH259163   3.928   0.782  13.375  0.0658 -0.2847  0.4201
12583TIP3    H159164   3.902   0.692  13.396  0.6666 -0.2566  1.3394
12583TIP3    H259165   3.986   0.807  13.447  0.4272  0.6091 -0.1735
12584TIP3   OH259166   1.864   5.460  13.273  0.5340  0.1755 -0.2565
12584TIP3    H159167   1.908   5.481  13.355 -0.8875 -0.4097  0.6679
12584TIP3    H259168   1.827   5.543  13.243 -1.0137 -0.0739  0.9435
12585TIP3   OH259169   5.043   2.731   5.146 -0.2140 -0.1523 -0.2460
12585TIP3    H159170   5.015   2.765   5.061  0.1721 -1.6463 -0.9821
12585TIP3    H259171   5.001   2.646   5.153  1.1737 -0.8002  0.2747
12586TIP3   OH259172   5.473   6.412   1.267  0.1146  0.0964  0.6416
12586TIP3    H159173   5.491   6.339   1.326  0.2348 -0.1546  0.3011
12586TIP3    H259174   5.550   6.416   1.210 -0.4423 -0.3226 -0.1506
12587TIP3   OH259175   2.158   4.748   5.177  0.4961  0.1192 -0.0859
12587TIP3    H159176   2.244   4.712   5.154 -0.2081 -1.9613  0.4459
12587TIP3    H259177   2.141   4.814   5.109  2.8113  1.0870  0.2177
12588TIP3   OH259178   3.565   4.977  14.553 -0.0668  0.1591 -0.0206
12588TIP3    H159179   3.552   5.022  14.637  0.0714 -0.4641  0.3418
12588TIP3    H259180   3.660   4.969  14.545 -0.1012 -0.6712  0.2564
12589TIP3   OH259181   4.121   3.331   5.287 -0.3270  0.2290 -0.4141
12589TIP3    H159182   4.030   3.306   5.272 -0.0030 -0.1422 -1.8609
12589TIP3    H259183   4.129   3.338   5.382 -2.3295  2.0368 -0.3310
12590TIP3   OH259184   0.947   0.933  10.990  0.2869  0.3663 -0.0835
12590TIP3    H159185   1.025   0.906  11.037 -0.3286 -0.3675  0.5189
12590TIP3    H259186   0.979   0.997  10.926  1.5979 -1.0619 -0.8878
12591TIP3   OH259187   1.171   0.061   3.850 -0.0275  0.1916  0.5323
12591TIP3    H159188   1.161  -0.022   3.895  1.2816 -1.0035 -1.3178
12591TIP3    H259189   1.192   0.124   3.919  1.7672 -1.5682  1.6164
12592TIP3   OH259190   3.754   6.684  16.078 -0.0906 -0.1896 -0.2286
12592TIP3    H159191   3.767   6.679  16.173 -2.5525 -0.9521  0.0940
12592TIP3    H259192   3.738   6.594  16.051 -0.5692  0.1796 -1.1933
12593TIP3   OH259193   4.533   2.150  14.767 -0.1545  0.4273  0.4251
12593TIP3    H159194   4.443   2.174  14.788 -0.1067  1.8117 -0.9082
12593TIP3    H259195   4.586   2.192  14.834 -0.4851 -0.4226  1.2373
12594TIP3   OH259196   3.577   1.189   1.304 -0.1169 -0.0516 -0.0191
12594TIP3    H159197   3.627   1.257   1.259  1.9544 -1.3307  0.2532
12594TIP3    H259198   3.565   1.222   1.393  0.3880  0.1979 -0.0436
12595TIP3   OH259199   3.460   6.555   3.298  0.0224  0.2207  0.5267
12595TIP3    H159200   3.371   6.578   3.325 -0.1600  0.0662  0.0565
12595TIP3    H259201   3.502   6.639   3.282  0.0123  0.3002  0.9196
12596TIP3   OH259202   2.085   5.972  14.735  0.0263 -0.1010  0.1274
12596TIP3    H159203   2.115   5.882  14.743  0.6233  0.1738  1.0316
12596TIP3    H259204   2.058   5.980  14.643 -0.8275 -1.4333  0.2556
12597TIP3   OH259205   0.540   6.612   3.161  0.0556 -0.1417  0.4394
12597TIP3    H159206   0.476   6.562   3.111  1.4700 -0.3079 -1.2422
12597TIP3    H259207   0.554   6.691   3.109  0.7954  0.1524  1.0785
12598TIP3   OH259208   4.031   3.178  16.905 -0.1266  0.1556  0.1695
12598TIP3    H159209   4.122   3.198  16.883 -0.1743  0.5218  0.3106
12598TIP3    H259210   4.004   3.249  16.962  0.0119 -0.8188  1.4781
12599TIP3   OH259211   3.392   3.859  13.275 -0.0941 -0.3478  0.5689
12599TIP3    H159212   3.409   3.936  13.222  0.6144 -1.5783 -1.0434
12599TIP3    H259213   3.299   3.841  13.262  0.0954 -0.7054 -0.3949
12600TIP3   OH259214   5.382   3.942   1.568  0.2129  0.0757  0.2717
12600TIP3    H159215   5.322   4.014   1.587 -1.1223 -1.2017  0.9364
12600TIP3    H259216   5.406   3.954   1.476 -2.3489 -0.3385 -0.4800
12601TIP3   OH259217   3.858   0.132   0.467 -0.3482  0.5308  0.1714
12601TIP3    H159218   3.819   0.103   0.550  2.3573 -1.8693  0.7003
12601TIP3    H259219   3.922   0.064   0.446  2.0918  3.2729 -1.6910
12602TIP3   OH259220   5.692   0.459   5.219 -0.4135 -0.0133  0.6625
12602TIP3    H159221   5.723   0.474   5.130 -1.8124  0.9093  0.3130
12602TIP3    H259222   5.759   0.404   5.259  0.5470  0.1052 -0.7552
12603TIP3   OH259223   4.073   3.536  16.491  0.2959 -0.5644 -0.0982
12603TIP3    H159224   4.048   3.525  16.399  0.3588 -2.3311  0.0871
12603TIP3    H259225   4.025   3.468  16.538 -0.6530  1.0584  1.3697
12604TIP3   OH259226   6.750   2.859  11.391  0.2304 -1.3568  0.4061
12604TIP3    H159227   6.693   2.882  11.318 -1.0516 -0.3109  1.7031
12604TIP3    H259228   6.700   2.795  11.441  0.5893 -1.1804  1.0006
12605TIP3   OH259229   3.039   5.797  16.754  0.1429  0.1634  0.1422
12605TIP3    H159230   3.003   5.767  16.838 -0.8204  1.2071  0.1094
12605TIP3    H259231   2.992   5.745  16.688  0.0791  0.1594  0.1917
12606TIP3   OH259232   1.588   6.642   4.631 -0.3307 -0.5173 -0.0429
12606TIP3    H159233   1.632   6.615   4.550  1.7799  0.0084  0.8829
12606TIP3    H259234   1.520   6.576   4.644 -0.9574 -0.3864 -2.4358
12607TIP3   OH259235   2.196   2.865  12.092 -0.0376 -0.7239  0.6611
12607TIP3    H159236   2.258   2.802  12.131  0.2866 -0.7268  0.1396
12607TIP3    H259237   2.112   2.819  12.095  0.0848 -0.9414  0.8542
12608TIP3   OH259238   6.337   3.487  16.050 -0.1348  1.0539  0.2585
12608TIP3    H159239   6.353   3.453  16.138  0.4413  2.1810  0.5982
12608TIP3    H259240   6.412   3.455  15.999  0.5632  2.0378  0.6473
12609TIP3   OH259241   5.806   2.247   1.404  0.4923 -0.3584 -0.1818
12609TIP3    H159242   5.868   2.282   1.468 -0.7235  1.1793  0.2028
12609TIP3    H259243   5.764   2.173   1.449 -0.1787  0.5613  0.7200
12610TIP3   OH259244   5.203   1.396   5.979  0.1209 -0.6437 -0.1195
12610TIP3    H159245   5.153   1.457   5.924  0.1481 -0.8901 -0.4173
12610TIP3    H259246   5.139   1.363   6.042  0.4901  0.9930  1.1413
12611TIP3   OH259247   2.301   5.517  15.884  0.5397  0.2835  0.4554
12611TIP3    H159248   2.376   5.534  15.827  0.5347  1.0935  0.6837
12611TIP3    H259249   2.303   5.422  15.899  0.6630  0.0970 -0.7108
12612TIP3   OH259250   1.791   3.756  13.763 -0.2026  0.5310 -0.0628
12612TIP3    H159251   1.708   3.711  13.785 -0.0139 -1.0236 -2.3212
12612TIP3    H259252   1.770   3.807  13.685  1.1589 -0.5921 -1.1994
12613TIP3   OH259253   3.352   5.477   2.048  1.1870 -0.0012  0.3137
12613TIP3    H159254   3.282   5.538   2.069  0.5738 -0.7313  0.3995
12613TIP3    H259255   3.329   5.441   1.963  1.5839 -0.0521  0.2283
12614TIP3   OH259256   1.315   4.343  15.858 -0.3772  0.4643  0.2008
12614TIP3    H159257   1.236   4.381  15.896  0.2746  0.1140  1.9390
12614TIP3    H259258   1.311   4.250  15.883  1.2750  0.7354  1.4705
12615TIP3   OH259259   4.807   1.179   0.598  0.1507 -0.5722  0.1761
12615TIP3    H159260   4.742   1.240   0.563 -0.1571 -0.7563  0.4240
12615TIP3    H259261   4.780   1.094   0.565  0.8513 -0.5096 -0.5597
12616TIP3   OH259262   4.670   6.191   5.944 -0.0966  0.5780 -0.5169
12616TIP3    H159263   4.666   6.098   5.969  2.3475  0.7407  0.6099
12616TIP3    H259264   4.644   6.238   6.022  0.9159  0.8922 -0.3594
12617TIP3   OH259265   6.735   1.575  13.859  0.4218 -1.3390 -0.4763
12617TIP3    H159266   6.774   1.615  13.781  0.1208  0.6368  0.3409
12617TIP3    H259267   6.644   1.560  13.835 -0.1384  0.9871  0.0767
12618TIP3   OH259268   1.736   2.293  13.753  0.2584  0.8901 -0.0141
12618TIP3    H159269   1.687   2.308  13.834  0.1225  0.3030  0.0145
12618TIP3    H259270   1.795   2.221  13.774 -0.5990 -0.0545 -0.7840
12619TIP3   OH259271   1.915   3.325   0.776 -0.0738  0.6091 -0.4113
12619TIP3    H159272   1.897   3.405   0.727  1.8869  1.9962  1.0499
12619TIP3    H259273   1.992   3.346   0.829  0.7092 -2.3681 -0.2672
12620TIP3   OH259274   5.617   1.656  12.576  0.7125  0.2368 -0.9639
12620TIP3    H159275   5.656   1.678  12.491 -0.0095 -1.6754 -1.8108
12620TIP3    H259276   5.532   1.619  12.555  0.3603  0.0904  0.6306
12621TIP3   OH259277   0.475   5.206  14.122 -0.1233 -0.0870  0.0904
12621TIP3    H159278   0.428   5.188  14.041 -0.2845  3.8783 -0.8210
12621TIP3    H259279   0.564   5.230  14.093  0.3919 -0.5820  1.2328
12622TIP3   OH259280   4.776   1.077   0.265 -0.2724 -0.7600  0.1160
12622TIP3    H159281   4.865   1.072   0.231 -0.5449  0.5474 -0.8323
12622TIP3    H259282   4.721   1.074   0.186 -0.9349  1.9285  0.4575
12623TIP3   OH259283   4.395   2.798  13.864  0.1032 -0.4166  0.5785
12623TIP3    H159284   4.379   2.864  13.797 -1.1434  0.6920  1.9454
12623TIP3    H259285   4.377   2.715  13.820  1.0785  0.1669 -0.9767
12624TIP3   OH259286   1.464   4.427   2.702 -0.3845  0.1826  0.0076
12624TIP3    H159287   1.446   4.392   2.614  0.1850 -0.5001  0.1561
12624TIP3    H259288   1.419   4.368   2.761  0.7019 -0.4021  0.2694
12625TIP3   OH259289   0.153   6.591  13.770  0.3822  0.1724  0.3011
12625TIP3    H159290   0.151   6.654  13.698  1.1618  0.1143  0.2216
12625TIP3    H259291   0.243   6.558  13.770 -0.1869 -1.4481 -0.1103
12626TIP3   OH259292   4.400   4.659  15.607 -0.1963 -0.1817 -0.3454
12626TIP3    H159293   4.440   4.746  15.603 -0.3498 -0.1714 -2.1373
12626TIP3    H259294   4.312   4.675  15.642 -0.0326  0.3109 -0.1461
12627TIP3   OH259295   6.310   3.980  13.114 -0.5603  0.3636  0.0553
12627TIP3    H159296   6.322   3.921  13.040  0.2957 -0.0395  0.5047
12627TIP3    H259297   6.250   4.047  13.082 -2.5421 -1.4227 -0.0628
12628TIP3   OH259298   1.273   0.328   2.181  0.1186 -0.1482  0.4072
12628TIP3    H159299   1.246   0.251   2.230 -1.4485 -0.5530 -1.0324
12628TIP3    H259300   1.193   0.378   2.168  0.7825  0.7564 -0.3328
12629TIP3   OH259301   1.327   1.656  13.814 -0.5105  0.2635 -0.3650
12629TIP3    H159302   1.362   1.704  13.739  0.5133  0.0808 -0.0150
12629TIP3    H259303   1.341   1.564  13.793  0.5608  0.2320  0.4018
12630TIP3   OH259304   6.700   2.981   0.915  0.6507 -0.4160  0.2321
12630TIP3    H159305   6.729   3.067   0.943 -1.2684 -0.0179  1.1050
12630TIP3    H259306   6.777   2.925   0.923  1.7704  1.0867  0.1653
12631TIP3   OH259307   3.162   2.363   4.674  0.0324  0.0162 -0.0175
12631TIP3    H159308   3.225   2.373   4.746 -1.3957  0.5277  1.1711
12631TIP3    H259309   3.077   2.376   4.714 -0.7966  0.2942 -1.8072
12632TIP3   OH259310   3.368   5.139   4.562 -0.5985 -0.3538  0.2119
12632TIP3    H159311   3.400   5.095   4.483  0.4183 -0.1563  0.5014
12632TIP3    H259312   3.388   5.077   4.632  0.2098  0.2661  0.5388
12633TIP3   OH259313   6.291   1.107  16.510 -0.0624  0.0199 -0.9319
12633TIP3    H159314   6.270   1.199  16.527 -2.0872 -0.5003 -0.4190
12633TIP3    H259315   6.210   1.071  16.473 -0.2752 -2.2605  1.6586
12634TIP3   OH259316   6.774   1.279   5.569 -0.0278  0.0498  0.0873
12634TIP3    H159317   6.714   1.328   5.625  1.4660 -0.4168  2.1244
12634TIP3    H259318   6.721   1.256   5.492 -1.2718  3.2079 -0.0583
12635TIP3   OH259319   0.339   2.783   3.643 -0.3994  0.2394  0.3445
12635TIP3    H159320   0.409   2.844   3.664 -1.9281  1.6798  1.4386
12635TIP3    H259321   0.299   2.819   3.564 -0.1572 -0.3661 -0.0573
12636TIP3   OH259322   6.340   3.292   0.996  0.2602  0.4115 -0.4090
12636TIP3    H159323   6.373   3.206   1.022  0.1437  0.2525 -0.7735
12636TIP3    H259324   6.334   3.342   1.077  1.3291  0.4121 -0.3296
12637TIP3   OH259325   0.023   6.639  12.042  0.3772  0.0021  0.5985
12637TIP3    H159326   0.023   6.544  12.027  1.6924  0.0832  0.0432
12637TIP3    H259327   0.030   6.647  12.138  0.7718 -0.4601  0.6125
12638TIP3   OH259328   4.991   2.439   4.722 -0.6187 -0.2030 -0.5223
12638TIP3    H159329   4.988   2.353   4.680  1.5187  0.0180 -1.1919
12638TIP3    H259330   5.084   2.456   4.735 -1.0813  1.4197  0.8560
12639TIP3   OH259331   4.238   4.848  15.761  0.1573 -0.2114 -0.8685
12639TIP3    H159332   4.162   4.890  15.801  1.0457  0.4185  0.1850
12639TIP3    H259333   4.204   4.809  15.680 -1.2882  0.0234 -0.3945
12640TIP3   OH259334   3.831   3.750   5.739  0.6631  0.0112  0.1508
12640TIP3    H159335   3.757   3.752   5.677  0.2293 -0.6411  0.6430
12640TIP3    H259336   3.892   3.686   5.702 -0.3419 -1.6068  1.2241
12641TIP3   OH259337   3.348   3.749  12.328  0.1265 -0.0580  0.4552
12641TIP3    H159338   3.345   3.837  12.368  0.2669 -0.3608  1.1462
12641TIP3    H259339   3.274   3.703  12.368 -0.0988 -0.1732 -0.0987
12642TIP3   OH259340   5.931   4.623  13.243  0.4548 -0.7956  0.1665
12642TIP3    H159341   5.866   4.631  13.313  0.1768 -2.6849  0.1687
12642TIP3    H259342   5.884   4.646  13.163  0.4602  0.2591  0.4680
12643TIP3   OH259343   1.919   0.537   4.700  0.1135 -0.1351 -0.1769
12643TIP3    H159344   1.856   0.465   4.687 -0.2116  0.0312  0.4385
12643TIP3    H259345   1.982   0.526   4.629 -1.0169  0.1220 -1.2553
12644TIP3   OH259346   3.117   2.496   6.400  0.1709 -0.6131 -0.0913
12644TIP3    H159347   3.024   2.501   6.422  0.8288  0.5390  2.6208
12644TIP3    H259348   3.143   2.588   6.386  1.2938 -0.7371  1.0560
12645TIP3   OH259349   3.553   3.601  15.660 -0.3562 -0.2849 -0.1304
12645TIP3    H159350   3.562   3.696  15.655 -1.1376 -0.0703  1.8058
12645TIP3    H259351   3.488   3.587  15.730 -0.5004 -2.2222 -0.6187
12646TIP3   OH259352   3.368   3.294  14.946  0.1109 -0.9223 -0.3024
12646TIP3    H159353   3.445   3.325  14.993  0.3486 -1.7887 -0.1287
12646TIP3    H259354   3.360   3.355  14.872 -1.3544  1.6035  1.8531
12647TIP3   OH259355   0.910   5.046  15.097 -0.3514  0.0165  0.2729
12647TIP3    H159356   0.975   5.003  15.042 -1.8206 -1.5234 -0.2867
12647TIP3    H259357   0.916   5.139  15.072  0.8749 -0.2597 -0.5238
12648TIP3   OH259358   6.410   6.412  14.901  0.1199 -0.4502  0.6132
12648TIP3    H159359   6.429   6.318  14.896  1.8875 -0.0725 -0.0929
12648TIP3    H259360   6.394   6.428  14.994 -2.0179 -1.7643  0.5233
12649TIP3   OH259361   4.282   2.276  13.970  0.4364  0.5615 -0.1599
12649TIP3    H159362   4.259   2.185  13.986  2.8296  0.0106  0.3432
12649TIP3    H259363   4.215   2.326  14.015 -1.4137 -0.9387 -1.1829
12650TIP3   OH259364   1.468   4.309  16.126  0.6037  0.4619  0.1905
12650TIP3    H159365   1.407   4.237  16.111 -1.1801  1.7425  0.9975
12650TIP3    H259366   1.541   4.270  16.173 -0.5609 -0.7449  1.0401
12651TIP3   OH259367   2.308   0.668   0.080 -0.2067 -0.2970  0.3534
12651TIP3    H159368   2.381   0.610   0.104 -0.2627 -1.3186 -1.8165
12651TIP3    H259369   2.342   0.756   0.095 -0.0959 -0.8140  3.6374
12652TIP3   OH259370   0.918   5.153  14.175  0.1993 -0.0130 -0.3332
12652TIP3    H159371   0.994   5.212  14.168  2.1048 -2.2452  0.8323
12652TIP3    H259372   0.923   5.099  14.097  0.4243 -0.8586  0.2618
12653TIP3   OH259373   6.289   2.894  13.429 -0.1999 -0.1231  0.2312
12653TIP3    H159374   6.254   2.950  13.359  0.8766 -0.0892 -0.2953
12653TIP3    H259375   6.364   2.943  13.463  0.2011 -0.8335  0.3734
12654TIP3   OH259376   2.822   2.997  16.381 -0.2274 -0.3967  0.1071
12654TIP3    H159377   2.821   3.055  16.457  1.9250  0.0849 -0.1911
12654TIP3    H259378   2.840   3.055  16.307 -0.7029 -1.0831 -0.5531
12655TIP3   OH259379   5.555   5.395  12.476  0.0074 -0.1000 -0.3250
12655TIP3    H159380   5.551   5.308  12.516  0.7727  1.0773  2.4410
12655TIP3    H259381   5.640   5.398  12.433  0.8620  0.0030  1.3508
12656TIP3   OH259382   3.654   1.122   5.390  0.2800 -0.1265  0.0992
12656TIP3    H159383   3.688   1.211   5.389  0.3355 -0.1386  1.0488
12656TIP3    H259384   3.690   1.082   5.469 -2.1901 -0.0252  1.3419
12657TIP3   OH259385   6.469   4.123  14.882 -0.0098 -0.3478  0.5689
12657TIP3    H159386   6.497   4.079  14.963  0.5359 -0.0582  0.5422
12657TIP3    H259387   6.549   4.164  14.849 -0.2117 -0.5537 -0.1714
12658TIP3   OH259388   3.541   0.964  17.099  0.1113 -0.2104 -0.2434
12658TIP3    H159389   3.634   0.985  17.106  0.2782 -0.9558 -0.2021
12658TIP3    H259390   3.502   1.005  17.177  0.6609 -1.2837  0.6076
12659TIP3   OH259391   4.828   0.800  13.636 -0.0185  0.1376 -0.2534
12659TIP3    H159392   4.906   0.842  13.602 -1.4857  2.2647 -1.0714
12659TIP3    H259393   4.823   0.716  13.589 -0.2681  1.6347 -2.9701
12660TIP3   OH259394   6.201   5.744   2.834 -0.0470 -0.0230  0.9361
12660TIP3    H159395   6.294   5.763   2.842  0.3671 -1.6592  0.2428
12660TIP3    H259396   6.170   5.803   2.765  0.4501  0.6255  1.2715
12661TIP3   OH259397   3.961   1.125   1.376  0.5925  0.1524 -0.0675
12661TIP3    H159398   3.976   1.196   1.438  2.4298 -0.7864  0.6078
12661TIP3    H259399   3.882   1.080   1.408  1.1410  0.0885  1.2137
12662TIP3   OH259400   3.478   1.416   5.482  0.1969 -0.3034 -0.2324
12662TIP3    H159401   3.565   1.401   5.444 -0.3399  2.3760 -2.7058
12662TIP3    H259402   3.421   1.431   5.407 -1.6578  1.6183  1.4779
12663TIP3   OH259403   6.438   5.934   5.354  0.5159 -0.4777 -0.0413
12663TIP3    H159404   6.368   5.999   5.361  0.9893 -0.1052  1.1958
12663TIP3    H259405   6.416   5.885   5.274  0.2088  1.2380 -1.0305
12664TIP3   OH259406   4.217   1.693  14.704 -0.3360  0.3742 -0.1617
12664TIP3    H159407   4.198   1.602  14.680 -0.3113  0.3085  0.0626
12664TIP3    H259408   4.291   1.718  14.649 -0.0150  0.0930  0.1414
12665TIP3   OH259409   6.103   2.149   3.764 -0.8816  0.0951  0.0600
12665TIP3    H159410   6.041   2.220   3.781 -2.5878 -1.2189 -0.5697
12665TIP3    H259411   6.152   2.180   3.687 -2.4703  0.0757 -0.9934
12666TIP3   OH259412   1.683   6.521  12.232 -1.6156 -0.0507 -0.2053
12666TIP3    H159413   1.625   6.522  12.156 -1.0988  0.1097 -0.5988
12666TIP3    H259414   1.692   6.429  12.255 -0.4442 -0.2419 -1.3649
12667TIP3   OH259415   0.406   5.266   4.052 -0.2783 -0.2691 -0.0602
12667TIP3    H159416   0.367   5.268   4.139  1.2304 -1.8676  0.6754
12667TIP3    H259417   0.437   5.176   4.041  0.4562  0.1778 -1.8407
12668TIP3   OH259418   4.354   3.611   2.252 -0.2007  0.1788  0.3873
12668TIP3    H159419   4.295   3.686   2.252 -0.5163 -0.0623 -0.2083
12668TIP3    H259420   4.317   3.552   2.318 -0.1813  0.3680  0.5690
12669TIP3   OH259421   6.702   3.034   3.798  0.7778 -0.5064 -0.7731
12669TIP3    H159422   6.646   3.105   3.829 -0.5826 -1.1051 -1.8087
12669TIP3    H259423   6.737   2.995   3.878 -1.1315 -0.7898 -0.0371
12670TIP3   OH259424   0.578   6.528   3.409  0.1773 -0.5138 -0.0003
12670TIP3    H159425   0.575   6.555   3.317  0.1490 -1.5384 -0.3133
12670TIP3    H259426   0.492   6.489   3.426 -0.4685  1.2719  0.9894
12671TIP3   OH259427   2.907   5.582   0.138 -0.0998  0.1202 -0.2151
12671TIP3    H159428   2.964   5.622   0.203  0.7965 -0.9610 -0.3031
12671TIP3    H259429   2.820   5.583   0.177  0.5196 -1.0063  1.2492
12672TIP3   OH259430   1.763   2.387   1.562 -0.0300 -0.0068 -0.2919
12672TIP3    H159431   1.824   2.319   1.590 -1.5232 -0.6848  1.4126
12672TIP3    H259432   1.763   2.381   1.466  0.2320 -2.0663 -0.1835
12673TIP3   OH259433   0.742   0.237   4.104  0.1954 -0.0791 -0.0025
12673TIP3    H159434   0.775   0.182   4.175 -0.2479  1.1733  1.1782
12673TIP3    H259435   0.650   0.214   4.096  0.1037  0.2036  0.2295
12674TIP3   OH259436   4.114   3.385  11.809  0.0671 -0.7722  0.5136
12674TIP3    H159437   4.196   3.421  11.843 -1.0402  1.7627  0.5880
12674TIP3    H259438   4.124   3.389  11.713  0.5051 -1.6259  0.5179
12675TIP3   OH259439   5.211   4.709   3.329  0.1180  0.0280 -0.0395
12675TIP3    H159440   5.213   4.639   3.264  0.0191 -0.1721  0.1684
12675TIP3    H259441   5.220   4.664   3.413  0.5646  0.3123  0.0646
12676TIP3   OH259442   1.760   1.756   3.580 -0.4785  0.5103  0.3886
12676TIP3    H159443   1.775   1.835   3.527 -1.4920  1.4933  1.5145
12676TIP3    H259444   1.810   1.772   3.660  1.2855 -1.0948 -0.3415
12677TIP3   OH259445   5.705   0.571  16.333 -0.0253  0.6798  0.1993
12677TIP3    H159446   5.775   0.629  16.303  0.6643  1.3232  2.9010
12677TIP3    H259447   5.738   0.483  16.315  0.7524  1.0152 -0.0378
12678TIP3   OH259448   2.149   3.690  11.533  0.2143 -0.0762  0.1600
12678TIP3    H159449   2.090   3.614  11.540  0.0155  0.0163 -0.4989
12678TIP3    H259450   2.223   3.658  11.482  0.5775 -0.0911  0.6887
12679TIP3   OH259451   1.434   5.643  14.614 -0.3822  0.0682  0.2156
12679TIP3    H159452   1.418   5.558  14.656  0.8717 -0.9948 -1.4150
12679TIP3    H259453   1.349   5.687  14.615 -1.4883 -1.9995 -0.6791
12680TIP3   OH259454   6.469   0.331   5.037 -0.9389 -0.7150  0.1442
12680TIP3    H159455   6.468   0.287   5.122  1.1096  0.3493  0.7536
12680TIP3    H259456   6.554   0.308   4.999 -0.7011  1.0119 -0.4182
12681TIP3   OH259457   2.643   1.007  15.452 -0.3229 -0.3846  0.3452
12681TIP3    H159458   2.683   0.921  15.460 -0.7840 -0.7084 -0.7635
12681TIP3    H259459   2.681   1.044  15.372  1.3356  1.2375  1.8352
12682TIP3   OH259460   0.837   3.880  12.411  0.4874 -0.0572 -0.0170
12682TIP3    H159461   0.760   3.935  12.400  0.3547 -0.4467 -1.1067
12682TIP3    H259462   0.898   3.910  12.344  1.6682  0.8831  1.4553
12683TIP3   OH259463   0.565   3.661   4.677 -0.0412 -0.1826  0.4954
12683TIP3    H159464   0.562   3.586   4.617  0.7141  0.8477 -0.8725
12683TIP3    H259465   0.480   3.661   4.719 -0.4524 -1.1657 -0.3061
12684TIP3   OH259466   2.048   5.236   2.631 -0.1498 -0.0449  0.0893
12684TIP3    H159467   2.060   5.290   2.709 -1.1912  0.8937 -0.3986
12684TIP3    H259468   1.961   5.197   2.641  0.3620 -1.2099  0.1688
12685TIP3   OH259469   3.890   2.514   0.774  0.4020  0.4895  0.4504
12685TIP3    H159470   3.831   2.522   0.849 -2.4766  1.5174 -1.8288
12685TIP3    H259471   3.945   2.592   0.779 -0.0309  0.7468  1.2947
12686TIP3   OH259472   5.124   6.248   3.447  0.2359  0.2056 -0.1414
12686TIP3    H159473   5.091   6.171   3.492 -1.6855  0.7649 -0.5637
12686TIP3    H259474   5.111   6.320   3.509  1.9059  0.2317  0.2039
12687TIP3   OH259475   0.047   2.420   4.957  0.1716 -0.0725 -0.4074
12687TIP3    H159476  -0.000   2.502   4.946  0.8195  0.1623 -1.5237
12687TIP3    H259477  -0.021   2.353   4.966 -0.4871 -0.0798 -4.3723
12688TIP3   OH259478   6.711   5.911  15.657  0.0609  0.4292  0.2198
12688TIP3    H159479   6.705   6.000  15.692 -1.3780 -0.7805  3.2552
12688TIP3    H259480   6.629   5.898  15.609 -0.5743  0.1476  1.3502
12689TIP3   OH259481   1.989   3.588  12.445  0.8527  0.4797  0.5816
12689TIP3    H159482   2.024   3.525  12.508 -1.3060 -1.6193 -0.2619
12689TIP3    H259483   1.948   3.656  12.500  1.4752  0.1777  1.4461
12690TIP3   OH259484   1.909   4.665   4.643  0.4590 -0.4803 -0.0414
12690TIP3    H159485   1.845   4.728   4.609 -0.4997 -0.8932  0.9903
12690TIP3    H259486   1.931   4.699   4.730  1.6866 -0.3152 -0.4103
12691TIP3   OH259487   2.533   6.417  16.941 -0.5906  0.2012 -0.0187
12691TIP3    H159488   2.469   6.408  17.012 -1.2944  2.5278 -0.2968
12691TIP3    H259489   2.485   6.462  16.871  0.1999 -1.7550 -1.8587
12692TIP3   OH259490   6.740   4.729  11.673 -0.4309 -0.0470  0.0847
12692TIP3    H159491   6.667   4.791  11.674 -0.3045  0.1049 -0.0969
12692TIP3    H259492   6.806   4.771  11.618 -0.5610 -0.5901 -0.4928
12693TIP3   OH259493   0.894   6.609   6.065  0.5141  0.1587  0.1715
12693TIP3    H159494   0.892   6.607   5.969  1.9354 -0.2187  0.1357
12693TIP3    H259495   0.933   6.694   6.086 -1.0010  0.7977  0.4503
12694TIP3   OH259496   1.922   4.969  15.033 -0.0423  0.2667 -0.0486
12694TIP3    H159497   1.946   4.877  15.046 -0.2378  0.2051 -0.1242
12694TIP3    H259498   1.955   4.991  14.947  1.1908  0.6520  0.5159
12695TIP3   OH259499   5.103   5.628  13.182 -0.1040  0.6136 -0.4117
12695TIP3    H159500   5.192   5.596  13.197 -0.0393  0.0675 -1.8826
12695TIP3    H259501   5.047   5.552  13.199 -0.1191  0.3381 -1.6476
12696TIP3   OH259502   1.279   4.489   5.582  0.0639  1.1581 -0.4582
12696TIP3    H159503   1.280   4.393   5.578  0.2739  1.1163  0.3475
12696TIP3    H259504   1.348   4.517   5.523  2.0882  0.6899  1.6075
12697TIP3   OH259505   3.533   5.382  11.883 -0.0286  0.1379  0.2201
12697TIP3    H159506   3.582   5.424  11.812 -0.9459 -0.4727 -0.7793
12697TIP3    H259507   3.598   5.329  11.929  0.5004  0.2640 -0.3716
12698TIP3   OH259508   0.435   4.832  14.301 -0.2777  0.0481  0.2493
12698TIP3    H159509   0.419   4.922  14.329 -2.5984 -0.6245  1.1761
12698TIP3    H259510   0.451   4.784  14.382  2.6626 -0.0927 -0.3635
12699TIP3   OH259511   4.039   5.888  13.878 -0.2509  0.4431 -0.5428
12699TIP3    H159512   4.111   5.931  13.924 -0.9556  0.1869  0.8270
12699TIP3    H259513   3.960   5.921  13.921 -0.8607 -0.8362 -0.6624
12700TIP3   OH259514   6.299   3.478   3.442 -0.1964  0.1820  0.0318
12700TIP3    H159515   6.328   3.486   3.533  1.2040 -0.5452 -0.3525
12700TIP3    H259516   6.372   3.439   3.396 -0.4455  1.6175 -1.6609
12701TIP3   OH259517   0.977   3.884   4.796 -0.1188 -0.2378  0.4726
12701TIP3    H159518   1.042   3.814   4.800  1.4429  1.2223  1.1260
12701TIP3    H259519   0.978   3.923   4.883  0.2358  1.6354 -0.3376
12702TIP3   OH259520   0.070   5.794  11.951  0.3353  0.0862  0.1222
12702TIP3    H159521   0.062   5.712  11.902 -3.6931  0.1410  0.5403
12702TIP3    H259522   0.124   5.850  11.895 -0.3672 -1.4029 -2.0957
12703TIP3   OH259523   1.203   5.499  11.409 -0.8622  0.2190  0.0208
12703TIP3    H159524   1.110   5.493  11.433 -0.9641  1.0579 -0.1433
12703TIP3    H259525   1.230   5.585  11.440  0.1846 -0.4896  1.1334
12704TIP3   OH259526   6.563   0.760  11.433  0.1934  0.5196 -0.6130
12704TIP3    H159527   6.564   0.848  11.470 -1.2001  0.3255 -0.0733
12704TIP3    H259528   6.483   0.721  11.467  0.8932 -1.0260 -0.7009
12705TIP3   OH259529   6.539   2.225   1.081  0.1876 -0.3830  0.1564
12705TIP3    H159530   6.479   2.290   1.117 -0.2873 -1.4215  1.3034
12705TIP3    H259531   6.562   2.170   1.156 -0.4808 -2.3252 -1.0316
12706TIP3   OH259532   1.378   2.821  14.036  0.0916  0.5835 -0.4448
12706TIP3    H159533   1.302   2.877  14.017 -1.1762 -1.1944 -0.6850
12706TIP3    H259534   1.409   2.852  14.121  0.3022  2.6147 -1.2128
12707TIP3   OH259535   2.041   5.662   5.565 -0.4482 -0.0021 -0.0595
12707TIP3    H159536   2.019   5.710   5.486 -0.9402 -0.0701  0.0342
12707TIP3    H259537   1.976   5.690   5.630 -0.2595 -0.2022  0.2210
12708TIP3   OH259538   5.534   6.260  11.607 -0.3282  0.0295 -0.3215
12708TIP3    H159539   5.568   6.333  11.555  0.7091  0.3133  0.7355
12708TIP3    H259540   5.603   6.195  11.604 -0.2265  0.0818  0.7621
12709TIP3   OH259541   6.029   0.058   1.157 -0.1898  0.3369 -0.4157
12709TIP3    H159542   6.034  -0.038   1.150 -2.5920 -0.1468  3.2642
12709TIP3    H259543   6.104   0.082   1.211 -0.2299  0.4214 -0.3979
12710TIP3   OH259544   1.248   4.958  13.324  0.3445 -0.4195  0.5580
12710TIP3    H159545   1.208   5.045  13.328  0.5068 -0.2892 -0.4334
12710TIP3    H259546   1.342   4.975  13.312 -0.0134 -0.6827 -3.3567
12711TIP3   OH259547   0.559   0.508   2.783  0.0201  0.1684 -0.0968
12711TIP3    H159548   0.578   0.423   2.743  2.5965  1.6060 -2.0408
12711TIP3    H259549   0.508   0.555   2.716 -0.6104  0.4854  0.6010
12712TIP3   OH259550   2.622   4.630  14.974 -0.0535 -0.0180  0.1309
12712TIP3    H159551   2.535   4.632  15.014 -0.1435 -1.8600  0.0893
12712TIP3    H259552   2.652   4.720  14.978 -1.9360  0.6348  0.2096
12713TIP3   OH259553   4.250   1.835  12.212 -0.1331 -0.1750 -0.0936
12713TIP3    H159554   4.326   1.822  12.155  0.0687  0.5559  0.0042
12713TIP3    H259555   4.223   1.746  12.237  0.9838 -0.4192  0.2608
12714TIP3   OH259556   3.454   4.335   2.539  0.1219 -0.3653 -0.1551
12714TIP3    H159557   3.488   4.396   2.605 -0.4232  0.4518 -0.6214
12714TIP3    H259558   3.425   4.259   2.590  0.2312  0.0190  0.4920
12715TIP3   OH259559   3.200   3.192   0.602  0.1446  0.7283  0.1376
12715TIP3    H159560   3.218   3.146   0.684  1.8296  0.9482 -0.0920
12715TIP3    H259561   3.187   3.283   0.628  0.4985  0.7669  0.1750
12716TIP3   OH259562   3.216   2.654  11.725  0.1876 -0.4290 -0.4783
12716TIP3    H159563   3.279   2.714  11.765 -0.6423  0.1985 -0.0806
12716TIP3    H259564   3.203   2.689  11.637  1.0942 -1.1021 -0.8836
12717TIP3   OH259565   4.561   4.754  14.051  0.8246  0.6587  0.8474
12717TIP3    H159566   4.626   4.770  14.119 -0.6202 -1.5288  2.8489
12717TIP3    H259567   4.547   4.659  14.054 -2.4782  1.0755  0.5644
12718TIP3   OH259568   2.495   4.889  12.540 -0.1566 -0.2554  0.0882
12718TIP3    H159569   2.514   4.825  12.608  0.7592  0.0743  0.1498
12718TIP3    H259570   2.401   4.906  12.548 -0.2496 -1.0061  0.5766
12719TIP3   OH259571   2.258   3.011  11.096  0.0044  0.3710 -0.3316
12719TIP3    H159572   2.179   3.063  11.109 -1.2569 -1.3074 -1.1296
12719TIP3    H259573   2.228   2.920  11.100  2.0192 -0.3075  0.1387
12720TIP3   OH259574   4.184   4.958  11.383  0.2589 -0.0297  0.1109
12720TIP3    H159575   4.190   4.946  11.477  0.7033 -2.9528 -0.2590
12720TIP3    H259576   4.091   4.950  11.363  0.2094  0.1913  0.2599
12721TIP3   OH259577   1.385   2.980  11.237  0.3808 -0.0739 -0.0909
12721TIP3    H159578   1.427   3.004  11.319 -0.4585 -2.3406  1.0430
12721TIP3    H259579   1.457   2.970  11.175  1.0607  1.1718  0.5004
12722TIP3   OH259580   0.591   2.804   1.397 -0.1239  0.6829  0.4516
12722TIP3    H159581   0.622   2.891   1.370  1.4848  0.0175  0.1418
12722TIP3    H259582   0.611   2.747   1.323 -1.4092  0.0722  0.5515
12723TIP3   OH259583   3.562   5.579   5.650  0.3008  0.2266 -0.4014
12723TIP3    H159584   3.654   5.585   5.677  0.8443 -1.2579 -1.8611
12723TIP3    H259585   3.538   5.488   5.669 -1.2081  0.8978  0.9950
12724TIP3   OH259586   2.441   4.991  12.014  0.1779 -0.5794 -0.4680
12724TIP3    H159587   2.475   4.987  11.925  2.2607 -1.2435  0.3047
12724TIP3    H259588   2.376   5.061  12.013  1.6606  0.8062 -2.0353
12725TIP3   OH259589   5.283   5.033   0.322 -0.1303  0.1591  0.7584
12725TIP3    H159590   5.218   4.998   0.260  2.4851 -0.8101 -1.5330
12725TIP3    H259591   5.341   4.959   0.340  2.3199  1.8427  0.0884
12726TIP3   OH259592   1.128   1.320  13.252 -0.7337 -0.1043 -0.2647
12726TIP3    H159593   1.135   1.315  13.347  1.0653 -0.8511 -0.4055
12726TIP3    H259594   1.195   1.383  13.226 -2.1716  1.1686 -0.9381
12727TIP3   OH259595   4.472   1.813  12.619  0.4688 -0.0086 -0.1085
12727TIP3    H159596   4.559   1.814  12.660  0.7465 -1.0684 -0.6623
12727TIP3    H259597   4.475   1.885  12.555  1.1021 -0.3448 -0.4623
12728TIP3   OH259598   5.234   6.216  14.467  0.4066  0.3947  0.2713
12728TIP3    H159599   5.236   6.142  14.407  0.2808 -0.7775  1.6778
12728TIP3    H259600   5.325   6.247  14.470  0.5847 -0.1094  0.1552
12729TIP3   OH259601   3.763   5.863  11.247 -0.0434 -0.0717  0.1340
12729TIP3    H159602   3.708   5.801  11.199 -0.4182  0.8332 -0.6196
12729TIP3    H259603   3.705   5.901  11.313 -0.0195  0.0441  0.0888
12730TIP3   OH259604   3.795   1.540  13.024 -0.0330 -0.0292 -0.0408
12730TIP3    H159605   3.833   1.580  13.102 -0.1658 -0.2345  0.1304
12730TIP3    H259606   3.870   1.513  12.971  0.0554 -0.4821  0.3197
12731TIP3   OH259607   2.884   1.264   0.553 -0.4677  0.8046  0.1027
12731TIP3    H159608   2.887   1.331   0.621  0.2256 -1.8647  2.8069
12731TIP3    H259609   2.959   1.282   0.498  2.0201 -0.0201  3.1001
12732TIP3   OH259610   5.125   1.748  13.186  0.0142  0.1898  0.6924
12732TIP3    H159611   5.141   1.678  13.250 -0.0295 -1.2765 -0.8698
12732TIP3    H259612   5.186   1.817  13.213  0.1100 -0.4498  2.2323
12733TIP3   OH259613   3.271   0.824  16.598  0.4573 -0.1527 -0.0970
12733TIP3    H159614   3.190   0.819  16.649  0.4318  1.5719  0.0503
12733TIP3    H259615   3.242   0.814  16.507  0.1827 -0.3376  0.0084
12734TIP3   OH259616   4.846   2.039   0.379  0.5180 -0.1614 -0.6814
12734TIP3    H159617   4.908   2.085   0.436 -2.4303  0.7207  1.9509
12734TIP3    H259618   4.809   2.108   0.323  1.6162 -0.6299 -2.0137
12735TIP3   OH259619   3.302   5.336   0.001  0.1292  0.2638  0.1112
12735TIP3    H159620   3.216   5.294   0.006 -0.0468  0.4345 -1.3421
12735TIP3    H259621   3.358   5.282   0.056  0.2377 -2.6595 -2.7358
12736TIP3   OH259622   1.756   0.547   2.264 -0.7293 -0.1054  0.2197
12736TIP3    H159623   1.809   0.558   2.342 -1.3742 -0.9786  0.8017
12736TIP3    H259624   1.818   0.522   2.195 -0.1073  1.0948  0.3470
12737TIP3   OH259625   3.434   4.036  10.471  0.2325 -0.3564 -0.1214
12737TIP3    H159626   3.516   4.070  10.507 -0.7834  0.2189  1.6881
12737TIP3    H259627   3.367   4.096  10.502 -0.9593 -1.1223 -1.1537
12738TIP3   OH259628   4.740   1.268  13.894  0.3241  0.2064  0.1917
12738TIP3    H159629   4.651   1.303  13.895  0.2244  0.0775 -2.1408
12738TIP3    H259630   4.730   1.178  13.862  1.1225 -0.3701  1.5150
12739TIP3   OH259631   0.013   4.748  12.386  0.2552  0.3737  0.0028
12739TIP3    H159632  -0.026   4.834  12.404 -0.1972  0.6067 -1.9627
12739TIP3    H259633   0.033   4.712  12.472 -1.3508  1.6300  0.9322
12740TIP3   OH259634   2.620   3.480   0.466 -0.5065  0.1896  0.1558
12740TIP3    H159635   2.714   3.493   0.466 -0.6152  1.5783 -3.1882
12740TIP3    H259636   2.608   3.389   0.437 -0.1796 -0.3728  1.7810
12741TIP3   OH259637   4.828   1.847   1.784  0.4489 -0.3509  0.5151
12741TIP3    H159638   4.850   1.903   1.858  0.3771  0.0245  0.2510
12741TIP3    H259639   4.906   1.850   1.728  0.6178 -0.8649  0.7129
12742TIP3   OH259640   2.200   1.031   3.772  0.0796 -0.7195 -0.2990
12742TIP3    H159641   2.184   1.042   3.678  3.0458 -0.0060 -0.7438
12742TIP3    H259642   2.139   1.091   3.814  0.4619  0.7954 -1.8702
12743TIP3   OH259643   2.288   0.002   3.926  0.0074 -0.4115 -0.0433
12743TIP3    H159644   2.264   0.029   4.015 -0.3227  0.3206 -0.3485
12743TIP3    H259645   2.215  -0.051   3.896 -1.2926  1.8209 -0.9736
12744TIP3   OH259646   0.454   1.106   0.341  0.5408  0.1365  0.3147
12744TIP3    H159647   0.436   1.067   0.255 -0.1067 -0.4670  0.7243
12744TIP3    H259648   0.473   1.031   0.398 -1.1736  0.3801  1.2221
12745TIP3   OH259649   0.619   1.988  14.379 -0.3489 -0.0269  0.2505
12745TIP3    H159650   0.659   1.900  14.381  0.9768  0.5455 -0.5514
12745TIP3    H259651   0.527   1.972  14.400 -0.0673 -1.5864  0.4126
12746TIP3   OH259652   3.529   4.545   4.129  0.4146  0.3654 -0.1666
12746TIP3    H159653   3.487   4.468   4.092  0.8756  1.4563 -3.1239
12746TIP3    H259654   3.477   4.619   4.096  0.3244  1.3885  2.1281
12747TIP3   OH259655   0.595   1.579   1.964  0.1812  0.2482  0.0412
12747TIP3    H159656   0.546   1.589   2.045  0.2768  0.1788  0.1075
12747TIP3    H259657   0.659   1.650   1.965 -1.8326  2.1418 -1.4250
12748TIP3   OH259658   4.975   5.151   3.920 -0.2004  0.1527  0.0131
12748TIP3    H159659   4.929   5.067   3.920 -0.3575  0.2274  0.8405
12748TIP3    H259660   5.034   5.145   3.995  1.1470  0.0547 -1.0467
12749TIP3   OH259661   0.864   3.680   2.542  0.4118 -0.1209  0.3693
12749TIP3    H159662   0.822   3.665   2.627 -0.1523 -2.2891 -0.2739
12749TIP3    H259663   0.821   3.759   2.508  0.2611  0.4462  1.8336
12750TIP3   OH259664   6.404   5.563   1.436 -0.5043 -0.1525  0.7070
12750TIP3    H159665   6.440   5.587   1.522  0.5210  1.2623 -0.1031
12750TIP3    H259666   6.314   5.597   1.438  0.9373  4.0933 -0.4564
12751TIP3   OH259667   4.650   0.970  10.335 -0.3337  0.2401  0.0110
12751TIP3    H159668   4.601   1.042  10.295  0.1698  0.1847 -0.7159
12751TIP3    H259669   4.605   0.953  10.418 -1.2722  0.4881 -0.4423
12752TIP3   OH259670   3.664   6.226   0.615 -0.1536  0.2756  0.1958
12752TIP3    H159671   3.684   6.137   0.644 -0.9103  0.5732  1.7146
12752TIP3    H259672   3.590   6.216   0.555 -0.6190 -0.0799  0.8189
12753TIP3   OH259673   0.621   1.962  14.782  0.7008 -0.2332  0.3682
12753TIP3    H159674   0.532   1.989  14.802  0.1477 -3.3800  2.4635
12753TIP3    H259675   0.674   1.996  14.854  0.1206 -3.8208  2.5983
12754TIP3   OH259676   0.497   6.244  16.480  0.0058 -0.2760 -0.4469
12754TIP3    H159677   0.529   6.301  16.411  0.8687  1.2408  1.1686
12754TIP3    H259678   0.459   6.303  16.545 -0.5997 -1.6551  0.4938
12755TIP3   OH259679   4.974   5.185  11.686  0.5540  0.1450  0.5667
12755TIP3    H159680   4.938   5.274  11.679 -3.0626 -1.0996  2.0115
12755TIP3    H259681   5.000   5.178  11.778  0.8431 -0.2851  0.4493
12756TIP3   OH259682   0.254   3.247  16.840 -0.4189 -0.0942 -0.0473
12756TIP3    H159683   0.264   3.202  16.756  0.2956  0.4041 -0.2324
12756TIP3    H259684   0.224   3.335  16.817  1.3528  0.5646  0.1201
12757TIP3   OH259685   6.669   3.192   3.075  0.0555  1.0244 -0.1928
12757TIP3    H159686   6.632   3.137   3.006  0.7421  0.6483 -0.2590
12757TIP3    H259687   6.633   3.279   3.058  0.3355  0.9619 -1.0986
12758TIP3   OH259688   0.093   5.931  16.993  0.3805  0.2750 -0.1923
12758TIP3    H159689   0.176   5.946  16.949 -0.0737  2.8481 -0.2470
12758TIP3    H259690   0.061   6.018  17.015 -3.1294 -0.5324 -1.7395
12759TIP3   OH259691   5.003   6.570  14.302  0.0149  0.0769 -0.0047
12759TIP3    H159692   5.094   6.543  14.293 -0.1360 -0.5272  0.2642
12759TIP3    H259693   4.956   6.520  14.235 -0.0418  0.7819 -0.4970
12760TIP3   OH259694   4.456   3.298  12.442  0.1674  0.8803 -0.1023
12760TIP3    H159695   4.536   3.247  12.449 -0.8764 -0.7222  0.6342
12760TIP3    H259696   4.420   3.274  12.357 -0.7319 -0.2794  0.5811
12761TIP3   OH259697   2.419   5.457   3.311 -0.8411  0.0503  0.4693
12761TIP3    H159698   2.400   5.461   3.405  1.9690 -0.4135  1.0918
12761TIP3    H259699   2.390   5.542   3.278 -1.8216  0.2366  1.7505
12762TIP3   OH259700   3.196   1.016   4.842 -0.6568 -0.1993  0.0067
12762TIP3    H159701   3.176   1.107   4.817 -0.6493  0.4212  2.1329
12762TIP3    H259702   3.113   0.983   4.878  0.4297  0.4325  3.3004
12763TIP3   OH259703   6.210   0.083  14.165  0.3549 -0.3390  0.3675
12763TIP3    H159704   6.225   0.160  14.220  2.1614 -0.1764 -0.3280
12763TIP3    H259705   6.125   0.100  14.124 -1.0286 -0.4472  3.0243
12764TIP3   OH259706   1.501   2.809   2.162  0.1533 -0.0952 -0.1104
12764TIP3    H159707   1.585   2.790   2.204  0.1474 -1.7209 -0.8053
12764TIP3    H259708   1.437   2.806   2.234  0.5258 -0.0353  0.2249
12765TIP3   OH259709   4.097   0.404   2.549  0.3266 -0.5125 -0.6569
12765TIP3    H159710   4.048   0.460   2.610  0.4275 -1.8972  0.7457
12765TIP3    H259711   4.078   0.440   2.463 -0.3676  1.0948  0.1454
12766TIP3   OH259712   6.178   6.240  15.767  0.1867  0.1510  0.0759
12766TIP3    H159713   6.238   6.295  15.716 -0.2977  2.1779  1.6045
12766TIP3    H259714   6.219   6.231  15.853  1.0267 -3.2976 -0.6186
12767TIP3   OH259715   6.020   0.631   4.874 -0.1267 -0.0151 -0.5066
12767TIP3    H159716   6.078   0.687   4.823  0.6180  0.3704  0.7607
12767TIP3    H259717   6.076   0.560   4.906 -0.4123  0.1865  0.4554
12768TIP3   OH259718   5.764   1.736   3.810  0.7623 -0.3362 -0.5353
12768TIP3    H159719   5.848   1.779   3.793  1.9327 -1.2791  2.5021
12768TIP3    H259720   5.779   1.645   3.783  1.3798 -0.9436  1.7542
12769TIP3   OH259721   6.159   1.578   3.885 -0.0906  0.1796  0.4288
12769TIP3    H159722   6.165   1.566   3.790 -0.1681 -1.1568  0.5847
12769TIP3    H259723   6.194   1.665   3.900  0.9920 -0.0442 -0.7193
12770TIP3   OH259724   3.700   1.672   2.070 -0.8663 -0.2038 -0.2800
12770TIP3    H159725   3.617   1.677   2.023 -1.2285  1.3271  0.4882
12770TIP3    H259726   3.735   1.761   2.066 -0.9948  0.0136  2.4833
12771TIP3   OH259727   5.529   6.574   5.366 -0.5988 -0.4021 -0.7270
12771TIP3    H159728   5.515   6.644   5.303  0.3182 -0.8474 -1.4370
12771TIP3    H259729   5.567   6.617   5.442 -1.6881  0.1317 -0.4675
12772TIP3   OH259730   2.386   1.076   5.475 -0.1632  0.0502  0.3185
12772TIP3    H159731   2.476   1.099   5.450 -0.2080 -1.5142 -1.4220
12772TIP3    H259732   2.394   0.992   5.520 -0.5800  0.7611  1.7497
12773TIP3   OH259733   4.857   2.164   4.562  0.5341 -0.1368  0.0620
12773TIP3    H159734   4.859   2.089   4.502 -0.6412  1.0765 -1.5155
12773TIP3    H259735   4.881   2.126   4.647  1.7988 -1.9543 -1.0644
12774TIP3   OH259736   2.617   1.611  15.037  0.6467 -0.1995  0.2029
12774TIP3    H159737   2.623   1.642  14.946  2.1960 -0.0622  0.3392
12774TIP3    H259738   2.551   1.668  15.077  1.1978  0.8857 -0.3940
12775TIP3   OH259739   5.438   3.729  15.128 -0.2472  0.5032 -0.1788
12775TIP3    H159740   5.348   3.737  15.096 -0.2626  0.8472 -0.0625
12775TIP3    H259741   5.431   3.751  15.221  0.1307  1.6300 -0.4111
12776TIP3   OH259742   3.522   1.616   0.246 -0.2022  0.1626 -0.0696
12776TIP3    H159743   3.538   1.604   0.339  1.0906  1.2347 -0.1274
12776TIP3    H259744   3.452   1.682   0.242 -0.1873  0.1914  0.1381
12777TIP3   OH259745   3.767   5.556   4.951 -0.4200  0.0059  0.4402
12777TIP3    H159746   3.836   5.611   4.989 -1.0724  1.6837 -0.7498
12777TIP3    H259747   3.741   5.498   5.022  1.8260 -0.2781  1.0743
12778TIP3   OH259748   5.415   2.491  15.580 -0.4316 -0.1487 -0.0888
12778TIP3    H159749   5.476   2.427  15.544 -0.4514  0.2315 -0.8065
12778TIP3    H259750   5.444   2.504  15.670  1.0370  0.6236 -0.6562
12779TIP3   OH259751   1.161   3.913  11.217  0.1005  0.2463  0.4198
12779TIP3    H159752   1.241   3.960  11.194 -0.6767  1.1056 -0.5633
12779TIP3    H259753   1.091   3.961  11.173 -0.8047 -1.3367  0.0977
12780TIP3   OH259754   0.288   5.857  13.211  0.2950  0.1011 -0.4487
12780TIP3    H159755   0.267   5.921  13.279  0.5577 -0.2853  0.0014
12780TIP3    H259756   0.293   5.774  13.258  0.7756 -0.1231 -0.8928
12781TIP3   OH259757   3.991   2.450   3.451 -0.1599  0.2138  0.2468
12781TIP3    H159758   3.961   2.360   3.467 -1.1763  0.3095 -1.0504
12781TIP3    H259759   4.045   2.444   3.373 -0.1598  0.7225  0.2072
12782TIP3   OH259760   0.913   0.069  14.803 -0.5452  0.6197 -0.3679
12782TIP3    H159761   0.864  -0.004  14.842 -1.3091  1.4127  0.1844
12782TIP3    H259762   0.857   0.101  14.732  0.3723 -0.1482 -1.4406
12783TIP3   OH259763   3.022   1.037   4.166  0.6313  0.6990  0.2870
12783TIP3    H159764   3.074   1.091   4.107  1.0090 -0.3967 -0.3914
12783TIP3    H259765   3.049   1.064   4.254  2.0151  0.4491 -0.0568
12784TIP3   OH259766   5.554   5.910   4.857  0.0936  0.6758  0.1189
12784TIP3    H159767   5.565   5.872   4.944  1.4838  3.6548  1.2722
12784TIP3    H259768   5.460   5.904   4.840 -0.0469 -0.9215  1.3148
12785TIP3   OH259769   1.472   3.589   4.409  0.5658 -0.1986 -0.5137
12785TIP3    H159770   1.391   3.541   4.391  0.5570 -0.3950  0.0376
12785TIP3    H259771   1.523   3.530   4.465  0.2194  0.7414  0.8405
12786TIP3   OH259772   6.653   0.898   4.219  0.2001 -0.0485 -0.0456
12786TIP3    H159773   6.593   0.972   4.217  1.5220  1.0135 -1.3574
12786TIP3    H259774   6.597   0.822   4.202 -0.9612  0.7868 -0.0184
12787TIP3   OH259775   3.028   5.590  15.488 -0.4909 -0.2284 -0.6443
12787TIP3    H159776   3.087   5.515  15.497 -1.0506 -0.7891 -1.4637
12787TIP3    H259777   3.053   5.630  15.405  0.6099  1.2278  0.3823
12788TIP3   OH259778   2.911   6.529  10.564 -0.3963  0.2429  0.1531
12788TIP3    H159779   2.911   6.611  10.515  0.0082 -0.4412 -1.0139
12788TIP3    H259780   2.851   6.472  10.516 -0.5819 -0.1951  0.8840
12789TIP3   OH259781   4.131   4.509   1.621 -0.6306  0.1832 -0.6703
12789TIP3    H159782   4.043   4.508   1.584 -1.0171 -0.4198  0.2546
12789TIP3    H259783   4.187   4.473   1.552 -0.9549  1.4753 -1.6208
12790TIP3   OH259784   3.028   4.752  15.114  0.3503 -0.3183 -0.0359
12790TIP3    H159785   3.051   4.788  15.200  1.8052  0.5615 -0.7687
12790TIP3    H259786   2.960   4.687  15.132  1.6658 -1.1844  1.9357
12791TIP3   OH259787   4.580   5.398   0.993  0.0019 -0.3447  0.1808
12791TIP3    H159788   4.572   5.377   1.086  1.3679 -1.4540  0.0639
12791TIP3    H259789   4.649   5.465   0.990 -1.6306  1.3896  0.1664
12792TIP3   OH259790   3.105   2.199   1.954  0.0718  0.4081  0.9752
12792TIP3    H159791   3.023   2.150   1.949  1.0052 -1.3409  2.2972
12792TIP3    H259792   3.083   2.279   2.002 -0.8479 -0.0800  1.3695
12793TIP3   OH259793   5.319   6.166  15.521 -0.5006  0.2669  0.1880
12793TIP3    H159794   5.327   6.087  15.574 -0.2988  0.2548  0.1402
12793TIP3    H259795   5.392   6.222  15.550 -1.1006  0.7581  0.7697
12794TIP3   OH259796   2.379   3.140  14.989  0.7076 -0.6076 -0.4805
12794TIP3    H159797   2.302   3.102  14.948  1.3513 -1.1933 -1.1656
12794TIP3    H259798   2.375   3.233  14.966 -0.1579 -0.5079  0.0704
12795TIP3   OH259799   3.583   0.679  16.070 -0.0743  0.3914  0.8017
12795TIP3    H159800   3.613   0.733  15.998  0.4611 -1.3135 -0.2975
12795TIP3    H259801   3.663   0.661  16.121  0.2923 -1.6419 -0.4202
12796TIP3   OH259802   3.628   4.106  12.692 -0.4886 -0.4499 -0.0382
12796TIP3    H159803   3.554   4.139  12.641 -1.6243 -2.8222  0.0122
12796TIP3    H259804   3.588   4.063  12.768  1.0465  0.1519  1.1425
12797TIP3   OH259805   4.683   3.140   5.461 -0.1441 -0.5432  0.0114
12797TIP3    H159806   4.716   3.119   5.549 -0.2029  0.4039  0.2580
12797TIP3    H259807   4.627   3.216   5.474  0.5765  0.1583 -0.9901
12798TIP3   OH259808   1.737   2.850  13.693  0.1705  0.2643 -0.7054
12798TIP3    H159809   1.733   2.831  13.786 -0.8415 -0.8651 -0.9716
12798TIP3    H259810   1.773   2.939  13.688 -0.1067  0.4624  0.7691
12799TIP3   OH259811   5.173   2.464   2.894 -0.0525 -0.8327 -0.1535
12799TIP3    H159812   5.123   2.463   2.976 -0.8630 -0.7559 -0.6485
12799TIP3    H259813   5.251   2.412   2.914  0.5343  0.4807  1.1587
12800TIP3   OH259814   3.938   3.196  14.326 -0.0048 -0.0536  0.4605
12800TIP3    H159815   3.883   3.266  14.292 -0.4307  0.1405  1.5589
12800TIP3    H259816   3.897   3.115  14.294  1.1054  0.2027 -1.7411
12801TIP3   OH259817   1.584   1.585   2.100 -0.3626 -0.3987 -0.1318
12801TIP3    H159818   1.614   1.671   2.132 -0.8029 -0.3087  0.0484
12801TIP3    H259819   1.626   1.522   2.158 -0.6415 -0.2660  0.2187
12802TIP3   OH259820   2.610   6.741   1.652 -0.1384  0.7577 -0.0051
12802TIP3    H159821   2.640   6.744   1.561 -0.7079 -2.0074 -0.3451
12802TIP3    H259822   2.516   6.726   1.645  0.1754 -1.9990  0.9743
12803TIP3   OH259823   3.402   4.783  15.149  0.3778  0.3540 -0.1895
12803TIP3    H159824   3.429   4.846  15.082 -0.1911  1.0370  0.2216
12803TIP3    H259825   3.318   4.816  15.181 -0.6917 -1.4350 -1.0384
12804TIP3   OH259826   0.573   0.409  13.557  0.1224  0.9423  0.0661
12804TIP3    H159827   0.666   0.414  13.580 -0.2533 -1.4418  2.4302
12804TIP3    H259828   0.560   0.317  13.533 -2.0032  0.7643  1.7619
12805TIP3   OH259829   2.385   4.556   2.937  0.1599 -0.1986 -0.0944
12805TIP3    H159830   2.320   4.594   2.878 -0.1161  0.0903  0.3844
12805TIP3    H259831   2.423   4.484   2.888  0.9184  0.8886 -1.1403
12806TIP3   OH259832   5.535   4.121   1.798 -0.1568 -0.0739 -0.0081
12806TIP3    H159833   5.502   4.191   1.854 -0.2357 -1.7725  2.1787
12806TIP3    H259834   5.456   4.084   1.757 -0.0458  1.5311 -1.7273
12807TIP3   OH259835   5.660   5.030   5.334 -0.3409 -0.2925  0.4240
12807TIP3    H159836   5.688   5.091   5.402 -1.3387  0.7736 -0.1129
12807TIP3    H259837   5.671   5.078   5.252 -1.3880 -0.7333  0.0153
12808TIP3   OH259838   6.282   5.452  12.941  0.2745 -0.1413  0.1930
12808TIP3    H159839   6.296   5.539  12.978  2.0014 -0.8083  1.1771
12808TIP3    H259840   6.261   5.467  12.849 -0.7449  1.3638  0.6602
12809TIP3   OH259841   4.706   1.432   4.411  0.1513 -0.0961  0.3345
12809TIP3    H159842   4.790   1.433   4.366  0.4578  0.2348  0.9160
12809TIP3    H259843   4.641   1.423   4.340  0.6610 -0.2531 -0.1186
12810TIP3   OH259844   5.762   3.466  15.790 -0.1971 -0.0217 -0.2451
12810TIP3    H159845   5.685   3.443  15.843  0.8825  0.0295  1.3909
12810TIP3    H259846   5.784   3.555  15.818 -0.1897  0.3838 -1.5086
12811TIP3   OH259847   0.736   2.588  13.459 -0.2979  0.4286  0.4582
12811TIP3    H159848   0.808   2.580  13.397  1.0594  1.6840  1.8270
12811TIP3    H259849   0.673   2.646  13.416  0.6561  1.3316  0.2703
12812TIP3   OH259850   4.545   2.290   4.680 -0.1732 -0.3851 -0.1834
12812TIP3    H159851   4.462   2.333   4.700 -0.1760 -0.5875  0.2348
12812TIP3    H259852   4.558   2.227   4.751 -0.0734 -0.9402 -0.6840
12813TIP3   OH259853   2.197   0.980  12.603 -0.4756  0.4648  0.4784
12813TIP3    H159854   2.140   0.995  12.678 -0.4601  1.6228  0.2678
12813TIP3    H259855   2.161   1.035  12.533 -1.2981 -1.6172 -0.8100
12814TIP3   OH259856   6.307   6.421   1.965  0.6688 -0.5951  0.0753
12814TIP3    H159857   6.311   6.332   2.000  1.3656 -1.2496 -1.6664
12814TIP3    H259858   6.349   6.475   2.033  1.2155 -1.7287  0.6493
12815TIP3   OH259859   4.180   5.779  13.677  0.2251 -0.0116  0.9640
12815TIP3    H159860   4.116   5.725  13.632 -0.2724  1.4324 -0.1196
12815TIP3    H259861   4.142   5.795  13.764 -0.6633  0.4370  0.4987
12816TIP3   OH259862   4.501   1.446  16.202 -0.3554 -0.1288 -0.8479
12816TIP3    H159863   4.427   1.505  16.186  0.0057  0.3553 -0.7279
12816TIP3    H259864   4.463   1.358  16.194 -0.9593  0.1150 -0.7261
12817TIP3   OH259865   3.578   0.664   0.640 -0.2103  0.0789  0.1588
12817TIP3    H159866   3.495   0.643   0.598  0.7135 -1.9709 -0.7110
12817TIP3    H259867   3.617   0.579   0.661  1.5935  1.0079  0.7137
12818TIP3   OH259868   5.442   3.796  16.627 -0.2182  0.1045  0.0721
12818TIP3    H159869   5.450   3.890  16.611  0.5834 -0.1911 -1.3606
12818TIP3    H259870   5.446   3.787  16.722  1.7246  1.3432  0.1286
12819TIP3   OH259871   3.060   3.850  16.111 -0.1483 -0.6224  0.0911
12819TIP3    H159872   3.100   3.766  16.091  1.0792 -0.3043  1.1672
12819TIP3    H259873   3.126   3.915  16.087  0.1433 -0.1079  2.1274
12820TIP3   OH259874   0.063   5.580   1.965  0.1081 -0.3530  0.4943
12820TIP3    H159875   0.082   5.625   1.883  2.0114 -1.9240  0.0467
12820TIP3    H259876   0.075   5.487   1.945  0.4675 -0.7659  2.5273
12821TIP3   OH259877   3.347   1.101   2.868 -0.3568  0.2362  0.0683
12821TIP3    H159878   3.372   1.050   2.945 -0.2946 -0.0201 -0.1198
12821TIP3    H259879   3.333   1.036   2.800 -1.6892  0.3783  0.2092
12822TIP3   OH259880   3.610   2.610  12.094 -0.1090 -0.2113  0.1480
12822TIP3    H159881   3.595   2.563  12.012 -0.0973 -0.1391  0.1045
12822TIP3    H259882   3.545   2.573  12.154 -0.9205  0.5830 -0.2380
12823TIP3   OH259883   3.351   5.008   2.970  0.1130  0.1017  0.1281
12823TIP3    H159884   3.426   5.068   2.973  1.1245 -0.7983 -3.8413
12823TIP3    H259885   3.287   5.052   2.916 -1.0778 -0.3908  1.1130
12824TIP3   OH259886   4.915   5.223   1.786  0.0520 -0.2366  0.2855
12824TIP3    H159887   5.011   5.222   1.790  0.0906  1.4963  0.0422
12824TIP3    H259888   4.894   5.217   1.693  0.0055  2.7715  0.0748
12825TIP3   OH259889   5.089   4.954   6.523 -0.0070  0.7516 -0.1807
12825TIP3    H159890   5.109   4.937   6.615  0.0685  1.5388 -0.0462
12825TIP3    H259891   5.088   4.868   6.482  1.9093  0.5289  0.1795
12826TIP3   OH259892   0.524   2.135   6.173  0.9524 -0.2501  0.1821
12826TIP3    H159893   0.475   2.128   6.091  1.7851  1.3051 -0.4701
12826TIP3    H259894   0.464   2.178   6.233  0.1207 -1.9433  0.5932
12827TIP3   OH259895   3.104   6.177  11.393 -0.2305 -0.2451  0.6381
12827TIP3    H159896   3.135   6.227  11.469  1.8412 -0.9821  0.3091
12827TIP3    H259897   3.012   6.159  11.413 -0.4960  1.9622  1.6812
12828TIP3   OH259898   3.841   1.262  11.435 -0.1551  0.6551 -0.2637
12828TIP3    H159899   3.878   1.349  11.423 -1.1096  0.9103 -1.3969
12828TIP3    H259900   3.746   1.276  11.442 -0.3180 -0.2864 -0.4608
12829TIP3   OH259901   3.966   1.903  10.681  0.3404 -0.4959  0.4894
12829TIP3    H159902   3.990   1.829  10.625 -0.4684 -2.0439  2.1488
12829TIP3    H259903   3.999   1.879  10.768  1.4154  1.7912  0.7629
12830TIP3   OH259904   2.936   5.873  17.025  1.0349  0.3373  0.0974
12830TIP3    H159905   3.009   5.934  17.018  1.0494  0.3155  0.0584
12830TIP3    H259906   2.974   5.792  17.057  0.9749  0.4274  0.3945
12831TIP3   OH259907   3.561   2.732   4.911 -0.1414 -0.0526 -0.1271
12831TIP3    H159908   3.607   2.794   4.854 -0.5040  1.3482  1.0831
12831TIP3    H259909   3.492   2.784   4.952 -0.9443 -1.4516  0.3123
12832TIP3   OH259910   4.466   6.600  14.193 -0.2654  0.3946  0.4769
12832TIP3    H159911   4.489   6.687  14.226 -2.0752  0.9424  0.3516
12832TIP3    H259912   4.476   6.607  14.098 -3.9677  1.6632  0.0666
12833TIP3   OH259913   4.565   6.722   1.772  0.2738  0.5356 -0.8609
12833TIP3    H159914   4.652   6.718   1.732  0.9208  0.8633  0.5019
12833TIP3    H259915   4.572   6.788   1.840 -0.8676  0.1151 -0.3099
12834TIP3   OH259916   5.571   1.227   1.486  0.0625 -0.2981  0.1947
12834TIP3    H159917   5.571   1.132   1.469 -0.1798 -0.2881  0.1330
12834TIP3    H259918   5.478   1.251   1.484  0.2204  0.2903 -1.7802
12835TIP3   OH259919   2.452   6.032  13.472  0.5318 -0.0363  0.5386
12835TIP3    H159920   2.392   6.002  13.404  0.4109  0.3549  0.4699
12835TIP3    H259921   2.533   6.052  13.425  0.9414 -1.2204  0.7321
12836TIP3   OH259922   5.371   1.266  13.672  0.1902  0.2458 -0.2034
12836TIP3    H159923   5.417   1.182  13.677  0.9520  0.6966  0.4693
12836TIP3    H259924   5.370   1.299  13.762 -1.6551  0.1475 -0.1698
12837TIP3   OH259925   5.601   3.735   1.557  0.1075 -0.6181  0.1733
12837TIP3    H159926   5.510   3.732   1.586  0.2495  2.7237  1.0803
12837TIP3    H259927   5.597   3.774   1.469  0.5635 -1.9101 -0.4460
12838TIP3   OH259928   3.044   4.994   4.495 -0.2113  0.5257  0.3150
12838TIP3    H159929   3.126   4.944   4.490 -0.5228 -0.1018  1.3618
12838TIP3    H259930   2.996   4.954   4.567 -2.1278 -0.1360 -1.2967
12839TIP3   OH259931   6.101   0.244   4.376 -0.1560 -0.4760 -0.1645
12839TIP3    H159932   6.194   0.241   4.401 -0.1895  0.8033  0.2031
12839TIP3    H259933   6.101   0.241   4.281  0.3310  0.4517 -0.2025
12840TIP3   OH259934   3.701   0.847  15.013 -0.1875 -0.3197  0.2518
12840TIP3    H159935   3.636   0.862  14.945 -0.3171 -0.9559  0.2259
12840TIP3    H259936   3.656   0.869  15.095 -0.3830 -0.6023  0.2208
12841TIP3   OH259937   5.360   2.064  15.325 -0.3436 -0.1927  0.0385
12841TIP3    H159938   5.359   2.117  15.245 -0.9273  0.4989  0.4947
12841TIP3    H259939   5.437   2.093  15.373 -0.9446  0.6170  0.5269
12842TIP3   OH259940   2.765   1.422   4.842 -0.4275 -0.3814 -0.5850
12842TIP3    H159941   2.738   1.375   4.763  1.8190 -2.7426 -0.0399
12842TIP3    H259942   2.829   1.486   4.811 -0.3547 -0.5801 -0.8516
12843TIP3   OH259943   5.685   2.318   0.869  0.3054 -0.1050 -0.4161
12843TIP3    H159944   5.708   2.360   0.786  1.3115  0.4749  0.1433
12843TIP3    H259945   5.604   2.360   0.896 -0.1462 -0.4467 -1.2113
12844TIP3   OH259946   2.680   1.517  12.380  0.2138 -0.2161 -0.4824
12844TIP3    H159947   2.689   1.494  12.472 -2.6870 -1.6183 -0.4886
12844TIP3    H259948   2.745   1.463  12.335 -0.3157 -1.6751  0.4738
12845TIP3   OH259949   3.090   0.759   4.717  0.1136 -0.3730 -0.3102
12845TIP3    H159950   3.049   0.821   4.778  0.6498 -0.9283  0.6391
12845TIP3    H259951   3.063   0.789   4.630  1.4617  1.9656  0.0415
12846TIP3   OH259952   6.000   5.173   6.370  0.4849 -0.3172 -0.7129
12846TIP3    H159953   5.963   5.117   6.302  1.3209 -1.9742  0.1830
12846TIP3    H259954   6.014   5.257   6.327  2.8750 -1.9094 -3.1471
12847TIP3   OH259955   0.370   2.209   3.232 -0.4026 -0.3099 -0.6957
12847TIP3    H159956   0.385   2.243   3.320 -0.0332  1.7709 -1.5411
12847TIP3    H259957   0.396   2.280   3.174 -0.2338 -1.8255 -2.5080
12848TIP3   OH259958   1.558   3.207  16.851 -0.2704  0.3069 -0.3113
12848TIP3    H159959   1.550   3.147  16.777  1.5164 -1.2142  0.7075
12848TIP3    H259960   1.621   3.273  16.821 -0.9203  0.7195 -0.7920
12849TIP3   OH259961   5.722   3.124  12.698 -0.1308  0.0076 -0.1612
12849TIP3    H159962   5.666   3.196  12.727  0.3453  0.2077  0.2590
12849TIP3    H259963   5.791   3.166  12.647  0.6520 -0.0514  0.8304
12850TIP3   OH259964   0.753   5.744   0.211 -0.4476  0.4003 -0.2053
12850TIP3    H159965   0.840   5.742   0.250 -1.1011  1.2413  1.3501
12850TIP3    H259966   0.710   5.666   0.245 -0.3587  0.0549 -0.8705
12851TIP3   OH259967   5.668   6.185   0.134  0.3097  0.4623  0.4149
12851TIP3    H159968   5.744   6.179   0.192  1.2239  0.8463 -0.7147
12851TIP3    H259969   5.614   6.253   0.172  2.1967  2.6028 -0.6093
12852TIP3   OH259970   3.916   5.546  15.751  0.2868 -0.1621  0.0071
12852TIP3    H159971   3.990   5.500  15.712 -0.7701 -0.1368 -2.0739
12852TIP3    H259972   3.844   5.534  15.689 -0.5418  2.6295  0.3278
12853TIP3   OH259973   5.575   6.316  17.033  0.0382  0.1541  0.1974
12853TIP3    H159974   5.654   6.366  17.013 -0.6880  1.5689  0.7942
12853TIP3    H259975   5.601   6.256  17.104  0.9057 -0.3221 -0.5109
12854TIP3   OH259976   1.600   3.753  14.737 -0.2214 -0.0067 -0.3167
12854TIP3    H159977   1.692   3.735  14.720  0.3492  1.1782  1.3180
12854TIP3    H259978   1.583   3.837  14.694 -0.0273  0.6594  0.8571
12855TIP3   OH259979   5.478   3.346  15.612  0.1753 -0.4335 -0.5037
12855TIP3    H159980   5.417   3.403  15.659 -0.3774 -0.5775 -1.0269
12855TIP3    H259981   5.513   3.402  15.542 -0.8675 -0.8927 -1.4282
12856TIP3   OH259982   1.008   4.769  16.981 -0.2226 -0.1931 -0.0623
12856TIP3    H159983   1.079   4.711  16.954 -0.0804 -0.4018  0.7598
12856TIP3    H259984   0.928   4.718  16.967 -0.1495 -0.3005 -0.0854
12857TIP3   OH259985   3.341   4.035  14.789 -0.7961 -0.1712  0.1385
12857TIP3    H159986   3.310   4.039  14.699 -1.5215  1.9934  0.4483
12857TIP3    H259987   3.362   3.943  14.804 -1.8881 -0.7512 -1.8205
12858TIP3   OH259988   0.743   6.505  15.997 -0.4722 -0.0376 -0.3979
12858TIP3    H159989   0.801   6.448  16.049 -0.1000  1.5440  0.9519
12858TIP3    H259990   0.801   6.541  15.930 -0.0557  0.9352  0.4738
12859TIP3   OH259991   5.168   1.709   2.888 -0.1865  0.0212  0.8328
12859TIP3    H159992   5.201   1.779   2.944 -3.2318  0.6030  1.9580
12859TIP3    H259993   5.097   1.669   2.937 -0.2014 -2.2070 -0.8862
12860TIP3   OH259994   0.518   6.718  16.327  0.2676 -0.0210  0.1676
12860TIP3    H159995   0.504   6.723  16.421  0.9499  0.9035  0.2268
12860TIP3    H259996   0.539   6.808  16.301 -0.7796 -0.1026 -1.0024
12861TIP3   OH259997   2.269   4.998   0.971 -0.1504  0.5892 -0.1276
12861TIP3    H159998   2.295   4.974   1.060  0.0518  2.0151  0.2180
12861TIP3    H259999   2.205   4.932   0.946  2.7271 -2.2122 -0.4681
12862TIP3   OH260000   4.686   4.414  13.527 -0.2233  0.3163  0.3279
12862TIP3    H160001   4.695   4.323  13.555  0.1839  0.8817  2.1410
12862TIP3    H260002   4.624   4.452  13.589  1.9137  2.0243  1.5268
12863TIP3   OH260003   4.088   5.253   6.030  0.6916  0.6622 -0.1220
12863TIP3    H160004   4.072   5.338   6.070  0.8641 -0.2437  1.9342
12863TIP3    H260005   4.105   5.195   6.104 -0.9453 -1.4870 -1.3698
12864TIP3   OH260006   3.937   3.866   2.621 -0.3669 -0.2478 -0.3182
12864TIP3    H160007   3.906   3.906   2.540 -0.2603 -0.3486 -0.4095
12864TIP3    H260008   3.900   3.920   2.690  1.5543  1.3268 -0.4865
12865TIP3   OH260009   6.090   0.091  15.708  0.6181  0.1278  0.2217
12865TIP3    H160010   6.020   0.064  15.648 -0.3854  0.9612  0.9991
12865TIP3    H260011   6.066   0.051  15.792  1.4444 -0.1332  0.3412
12866TIP3   OH260012   0.449   0.454  14.335 -0.5895 -0.6161  0.4922
12866TIP3    H160013   0.455   0.548  14.354  1.9203 -0.5892 -0.2852
12866TIP3    H260014   0.433   0.414  14.421 -0.1524  0.4115  1.0728
12867TIP3   OH260015   4.095   0.351  17.151 -0.1872  0.6063 -0.2999
12867TIP3    H160016   4.148   0.288  17.200 -1.1347 -0.1294 -0.2197
12867TIP3    H260017   4.097   0.321  17.061  0.2112  1.0497 -0.4427
12868TIP3   OH260018   3.090   3.106   0.325  0.2835  0.0762  0.6467
12868TIP3    H160019   3.024   3.036   0.320 -0.3715  0.7391 -0.2332
12868TIP3    H260020   3.125   3.100   0.414 -1.7133  0.3727  1.4909
12869TIP3   OH260021   1.386   4.906  14.607 -0.5167  0.3968  0.3624
12869TIP3    H160022   1.429   4.974  14.555 -2.0865 -1.4018 -3.4938
12869TIP3    H260023   1.456   4.844  14.627  0.0344  0.9091  0.0417
12870TIP3   OH260024   0.119   1.206   4.267  0.9390 -0.2564 -0.4164
12870TIP3    H160025   0.113   1.301   4.251  1.8106 -0.0338  0.5198
12870TIP3    H260026   0.205   1.195   4.308  0.5975 -1.3898 -0.0091
12871TIP3   OH260027   6.397   0.177   4.763 -0.0553 -0.3444 -0.1981
12871TIP3    H160028   6.342   0.165   4.841 -1.0950  0.8316 -0.7272
12871TIP3    H260029   6.387   0.095   4.714 -0.5566 -0.5204  0.1949
12872TIP3   OH260030   3.684   4.465   0.201  0.2655  0.1281 -0.4818
12872TIP3    H160031   3.769   4.432   0.231 -0.1743 -1.3072 -0.7732
12872TIP3    H260032   3.621   4.401   0.234 -0.6024  0.6188 -1.1783
12873TIP3   OH260033   2.478   1.394  12.764 -0.3396 -0.2010  0.1514
12873TIP3    H160034   2.551   1.369  12.707 -0.8037  0.9271 -0.9505
12873TIP3    H260035   2.426   1.314  12.773  1.2493 -1.1464  1.3187
12874TIP3   OH260036   2.102   5.421  14.340  0.0252 -0.1003 -0.5598
12874TIP3    H160037   2.084   5.343  14.393 -0.4993  0.2295 -0.2485
12874TIP3    H260038   2.016   5.459  14.324  0.3475  0.9178  0.0593
12875TIP3   OH260039   3.337   6.130  13.731  0.2800 -0.9039  0.2633
12875TIP3    H160040   3.289   6.098  13.655 -3.7498  0.7281  1.9486
12875TIP3    H260041   3.376   6.213  13.702 -0.8289 -0.5400 -0.2331
12876TIP3   OH260042   2.441   2.024   3.459  0.0817 -0.2607  0.6243
12876TIP3    H160043   2.354   2.022   3.418  0.4478 -1.4297 -0.1226
12876TIP3    H260044   2.477   2.109   3.434 -0.3543 -0.2948 -0.1354
12877TIP3   OH260045   0.468   3.533   3.719  0.0737  0.1719  0.2196
12877TIP3    H160046   0.379   3.525   3.685 -0.5279 -0.4988  1.8739
12877TIP3    H260047   0.502   3.613   3.680 -1.5520  0.8771  0.2185
12878TIP3   OH260048   4.384   2.786   0.583 -0.5423 -0.2251  1.2384
12878TIP3    H160049   4.404   2.876   0.556 -1.2077 -1.1269 -2.5238
12878TIP3    H260050   4.291   2.789   0.609 -1.4138 -0.3734 -1.7095
12879TIP3   OH260051   2.062   3.374   4.745  0.1170  0.1464 -0.4436
12879TIP3    H160052   2.009   3.319   4.802  2.3324  0.7598  2.3305
12879TIP3    H260053   1.998   3.420   4.690 -2.0644 -0.9289  1.1042
12880TIP3   OH260054   2.293   3.692  16.170 -0.0299  0.1446 -0.0484
12880TIP3    H160055   2.303   3.694  16.075 -0.9296  0.9437 -0.1403
12880TIP3    H260056   2.380   3.672  16.204 -0.1225 -2.2537 -1.1184
12881TIP3   OH260057   2.044   4.449  13.921  0.2875 -0.0845  0.3952
12881TIP3    H160058   1.972   4.512  13.931  0.2212 -0.4394  2.2802
12881TIP3    H260059   2.033   4.387  13.994  0.5208 -2.1329 -1.2611
12882TIP3   OH260060   5.891   5.522  13.988 -0.1809 -0.1170  0.0979
12882TIP3    H160061   5.956   5.552  13.925 -0.3054 -1.6488 -0.8042
12882TIP3    H260062   5.895   5.426  13.982 -0.8209 -0.2585  1.7779
12883TIP3   OH260063   2.255   3.900  14.199  0.0841  0.4916  0.2579
12883TIP3    H160064   2.323   3.856  14.149  0.4257  1.7121 -0.3716
12883TIP3    H260065   2.228   3.973  14.144 -0.2200  1.2818  1.4258
12884TIP3   OH260066   3.973   1.987   3.835  0.1955 -0.2491 -0.2974
12884TIP3    H160067   4.050   2.043   3.842  1.8547 -2.5047 -0.3059
12884TIP3    H260068   3.983   1.923   3.905 -1.8156 -0.4370 -0.1409
12885TIP3   OH260069   2.164   3.367   3.692  0.1174 -0.1512 -0.0668
12885TIP3    H160070   2.083   3.418   3.697  0.1581 -0.0672 -0.2914
12885TIP3    H260071   2.136   3.280   3.663 -0.1520 -0.7069  1.7375
12886TIP3   OH260072   0.955   5.824  15.909  0.5029 -0.5918  0.3123
12886TIP3    H160073   0.915   5.746  15.870 -1.8440  0.9573 -0.4518
12886TIP3    H260074   0.968   5.883  15.835  0.1893  0.6218  1.2240
12887TIP3   OH260075   5.043   5.809   1.313  0.6169 -0.6525  0.1971
12887TIP3    H160076   5.032   5.785   1.221 -0.9780 -1.1182  0.5041
12887TIP3    H260077   4.970   5.868   1.332  1.9135  0.8248  0.7084
12888TIP3   OH260078   0.634   3.471   3.392 -0.3382  0.4231  0.6989
12888TIP3    H160079   0.725   3.470   3.365 -1.0001 -1.3308 -1.5729
12888TIP3    H260080   0.609   3.379   3.401 -1.4564  0.8855  2.8957
12889TIP3   OH260081   1.613   3.310   1.609 -0.1527 -0.0339 -0.3337
12889TIP3    H160082   1.535   3.333   1.658  0.1620 -1.2006  0.7666
12889TIP3    H260083   1.589   3.230   1.562  0.4104 -0.4996  0.1491
12890TIP3   OH260084   5.804   6.441  11.992  0.1293 -0.2829  0.6339
12890TIP3    H160085   5.851   6.515  12.030  1.1618  0.0403 -1.2132
12890TIP3    H260086   5.716   6.474  11.974  0.9508  0.9211 -1.3596
12891TIP3   OH260087   4.057   6.494  14.312 -0.1231  0.2028  0.1756
12891TIP3    H160088   3.994   6.433  14.350 -1.8202  1.2656 -0.8438
12891TIP3    H260089   4.136   6.443  14.300 -0.9756 -1.3218  0.9666
12892TIP3   OH260090   0.413   2.320  12.197 -0.4454  0.0965 -0.0649
12892TIP3    H160091   0.399   2.366  12.115  1.9347  0.3654 -0.3695
12892TIP3    H260092   0.447   2.386  12.257 -0.0764 -0.5497  0.4565
12893TIP3   OH260093   0.988   0.374   1.402 -0.6592 -0.0949 -1.2001
12893TIP3    H160094   0.944   0.459   1.400 -2.3463 -0.9623 -2.1550
12893TIP3    H260095   1.077   0.393   1.373 -1.1939  1.2528 -2.0356
12894TIP3   OH260096   2.130   2.432  12.662  0.0000 -0.2701 -0.6737
12894TIP3    H160097   2.102   2.486  12.736  0.9318 -0.2976 -0.2983
12894TIP3    H260098   2.139   2.493  12.589  0.2224 -0.0559 -0.4672
12895TIP3   OH260099   3.382   4.298  15.973  0.0765 -0.0066 -0.2649
12895TIP3    H160100   3.326   4.307  16.050 -0.5231  1.0353 -0.8126
12895TIP3    H260101   3.402   4.388  15.947 -1.9106 -0.2734 -2.8928
12896TIP3   OH260102   3.433   5.119   4.308  0.9696 -0.1547  0.0139
12896TIP3    H160103   3.407   5.140   4.218  2.9155  1.3614 -0.2146
12896TIP3    H260104   3.519   5.159   4.318  1.4417 -1.6219  2.0729
12897TIP3   OH260105   0.872   3.375   2.486 -0.0815 -0.0720  0.1252
12897TIP3    H160106   0.878   3.335   2.573  1.4492 -2.5179 -1.0386
12897TIP3    H260107   0.801   3.438   2.493  0.2800  0.0358  3.2495
12898TIP3   OH260108   1.359   6.184  12.115  0.4144 -0.0857 -0.4269
12898TIP3    H160109   1.428   6.250  12.120  1.4182 -0.8841 -2.6380
12898TIP3    H260110   1.356   6.160  12.022 -1.1513 -1.8479  0.0394
12899TIP3   OH260111   0.051   2.747   2.161  0.6953 -0.1411  0.9067
12899TIP3    H160112   0.103   2.823   2.137  0.5141 -0.3157 -0.0383
12899TIP3    H260113  -0.035   2.763   2.121  0.2995 -0.2964  1.6694
12900TIP3   OH260114   0.179   3.089   2.930 -0.1066  0.6734  0.0477
12900TIP3    H160115   0.223   3.096   3.015 -0.4661 -0.9443  0.4000
12900TIP3    H260116   0.091   3.059   2.951  0.3869 -1.6272 -0.9876
12901TIP3   OH260117   1.699   6.211   1.954  0.2538  0.1925  0.2610
12901TIP3    H160118   1.701   6.148   2.026  2.1196 -0.3665 -0.2643
12901TIP3    H260119   1.748   6.170   1.883 -1.1983  0.9208 -1.2076
12902TIP3   OH260120   2.402   2.946  16.563  0.2972 -0.5907 -0.0626
12902TIP3    H160121   2.359   2.890  16.628  0.6102  0.3110  0.9455
12902TIP3    H260122   2.336   3.012  16.541  1.2780  1.1150  1.8851
12903TIP3   OH260123   5.201   0.862   2.538 -0.1144  0.1982  0.1386
12903TIP3    H160124   5.235   0.952   2.533 -0.5039  0.4430  1.5861
12903TIP3    H260125   5.131   0.867   2.603 -0.0056 -1.1960  0.3826
12904TIP3   OH260126   6.452   6.390   5.071  0.5418 -0.4137 -0.1333
12904TIP3    H160127   6.435   6.325   5.003 -2.0446 -0.5702  0.6164
12904TIP3    H260128   6.439   6.475   5.029 -0.6525 -0.5007  0.0590
12905TIP3   OH260129   6.566   6.214  16.534  0.1315 -0.7098 -0.3172
12905TIP3    H160130   6.589   6.123  16.517  0.7935 -0.4693 -0.7515
12905TIP3    H260131   6.592   6.229  16.625  0.3060 -0.8718 -0.3432
12906TIP3   OH260132   5.645   3.980   2.012 -0.1785 -0.1025  0.0531
12906TIP3    H160133   5.635   4.009   1.921 -0.1628  0.6670  0.2938
12906TIP3    H260134   5.557   3.983   2.048 -0.1493 -0.1852  0.1308
12907TIP3   OH260135   2.217   1.376   4.891 -0.2839 -0.0852 -0.2807
12907TIP3    H160136   2.307   1.394   4.865 -0.6992  0.1694 -1.5481
12907TIP3    H260137   2.171   1.459   4.880 -0.8974 -0.4615 -0.5989
12908TIP3   OH260138   2.760   1.925  12.796 -0.2562  0.5743 -0.6217
12908TIP3    H160139   2.798   1.898  12.713 -0.5475  1.9096 -1.1918
12908TIP3    H260140   2.668   1.899  12.790  0.1345 -1.0496  0.0543
12909TIP3   OH260141   5.014   4.178  15.836  0.1513  0.0623  0.2357
12909TIP3    H160142   4.950   4.207  15.901  0.1216  0.1313  0.1752
12909TIP3    H260143   4.968   4.113  15.783  0.5262 -0.8449  1.0011
12910TIP3   OH260144   6.124   2.844  16.426  0.5801 -0.1020 -0.8400
12910TIP3    H160145   6.193   2.891  16.472 -1.3904  1.3190  0.7222
12910TIP3    H260146   6.148   2.751  16.436  1.0358  0.2527  1.7377
12911TIP3   OH260147   3.414   6.427   3.007  0.2746  0.2324  0.7954
12911TIP3    H160148   3.452   6.346   3.041 -0.7234  0.2328  1.9594
12911TIP3    H260149   3.404   6.483   3.084 -1.7085  0.3707  0.4540
12912TIP3   OH260150   5.083   5.934  13.166 -0.4150 -0.2837 -0.3035
12912TIP3    H160151   5.080   5.972  13.254  0.3233  1.3188 -0.9638
12912TIP3    H260152   5.112   5.844  13.181  0.0169  0.0638  1.0707
12913TIP3   OH260153   0.608   4.076  12.769  0.0954 -0.1087 -0.2470
12913TIP3    H160154   0.555   4.070  12.689 -1.3904 -0.2433  0.7390
12913TIP3    H260155   0.663   4.153  12.755 -0.0642 -0.1980 -1.4568
12914TIP3   OH260156   6.743   5.685   4.085 -0.0672 -0.6007 -0.4433
12914TIP3    H160157   6.805   5.666   4.015  0.9298  0.6382  0.0909
12914TIP3    H260158   6.687   5.607   4.089  0.0415 -0.8015 -2.4123
12915TIP3   OH260159   0.223   2.802   1.403 -0.0676 -0.3986 -0.2016
12915TIP3    H160160   0.264   2.722   1.369  1.8302  1.1085 -1.5201
12915TIP3    H260161   0.195   2.850   1.325 -0.6894  0.5027  0.5672
12916TIP3   OH260162   3.228   3.403  10.885  0.0207 -0.2798 -0.0946
12916TIP3    H160163   3.306   3.376  10.933  0.3255  1.8243  0.6464
12916TIP3    H260164   3.251   3.388  10.793 -0.4052 -3.8894  0.3038
12917TIP3   OH260165   3.822   0.323   3.918  0.0221  0.4982 -0.3677
12917TIP3    H160166   3.787   0.344   4.004  1.5916  0.3944  0.3251
12917TIP3    H260167   3.752   0.345   3.857 -0.5723  2.0189  0.8216
12918TIP3   OH260168   4.018   5.746   0.358 -0.1229 -0.0446 -0.3590
12918TIP3    H160169   4.061   5.777   0.278 -1.5217 -0.6652 -1.3661
12918TIP3    H260170   4.024   5.650   0.353 -1.0848 -0.1136 -0.2099
12919TIP3   OH260171   3.318   2.168  16.319  0.2792  0.1408  0.9468
12919TIP3    H160172   3.355   2.241  16.368 -1.8814 -0.1414  3.1051
12919TIP3    H260173   3.256   2.209  16.259  1.4219  0.3186 -0.1288
12920TIP3   OH260174   2.716   3.357  13.165  0.1756  0.0274  0.4808
12920TIP3    H160175   2.802   3.320  13.148  0.7817  2.0951 -1.2099
12920TIP3    H260176   2.668   3.288  13.209  2.3927 -1.4854  0.5805
12921TIP3   OH260177   6.031   5.318  15.129  0.2185 -0.2903  0.2223
12921TIP3    H160178   6.009   5.238  15.177  0.5462  0.1673  1.1478
12921TIP3    H260179   5.947   5.364  15.120 -0.3840 -1.8597 -2.4187
12922TIP3   OH260180   6.724   2.922   2.972 -0.4849  0.1173  0.2115
12922TIP3    H160181   6.646   2.932   3.026 -1.6012 -0.2455 -1.3401
12922TIP3    H260182   6.760   2.837   2.999  0.4883  1.1559  2.3213
12923TIP3   OH260183   3.063   5.766  14.914  0.0152  0.3103 -0.2961
12923TIP3    H160184   3.148   5.784  14.954 -0.8346  2.1947  0.7568
12923TIP3    H260185   3.068   5.805  14.827  0.9763 -1.5400 -1.0975
12924TIP3   OH260186   0.043   5.307   3.097 -0.2007 -0.3505  0.1308
12924TIP3    H160187  -0.030   5.300   3.158  0.4977 -2.6811  0.7707
12924TIP3    H260188   0.056   5.401   3.086 -0.3428  0.1785  3.6227
12925TIP3   OH260189   2.870   6.770  16.664  0.1859  0.2595 -0.2183
12925TIP3    H160190   2.938   6.764  16.597 -1.7635 -0.2919 -2.2017
12925TIP3    H260191   2.828   6.684  16.663 -1.6286  1.1401 -0.1872
12926TIP3   OH260192   2.122   3.977   2.496  0.0518 -0.3045 -0.5895
12926TIP3    H160193   2.029   3.967   2.516 -0.1424  2.6320  0.1133
12926TIP3    H260194   2.166   3.969   2.581  0.0928  1.9573 -0.3636
12927TIP3   OH260195   2.950   2.094  11.306 -0.5840 -0.1172 -0.7441
12927TIP3    H160196   2.991   2.017  11.267  0.2706  1.2885 -2.6575
12927TIP3    H260197   2.996   2.105  11.389  0.7728 -0.4084 -1.4453
12928TIP3   OH260198   1.883   5.736   2.733 -0.1500  0.2777 -0.0655
12928TIP3    H160199   1.803   5.787   2.718  0.3602  0.6274 -1.6971
12928TIP3    H260200   1.954   5.794   2.705  0.5161 -0.8896 -0.8473
12929TIP3   OH260201   4.442   5.009  16.390 -0.4104 -0.1761  0.6522
12929TIP3    H160202   4.419   4.998  16.482 -1.8076 -0.2914  0.2971
12929TIP3    H260203   4.359   5.000  16.343 -0.0092  1.7464 -0.4631
12930TIP3   OH260204   4.969   6.125   3.651  0.5543 -0.6353 -0.0292
12930TIP3    H160205   4.922   6.202   3.682 -0.4248 -0.6556 -1.4084
12930TIP3    H260206   4.907   6.053   3.664 -0.3087 -0.4947 -2.9210
12931TIP3   OH260207   6.714   0.640   4.834 -0.3675  0.6088 -0.2911
12931TIP3    H160208   6.802   0.600   4.840 -0.6676 -0.1762 -0.9968
12931TIP3    H260209   6.695   0.667   4.924 -0.3299 -1.2678  0.3158
12932TIP3   OH260210   0.406   5.549   4.613 -0.0980 -0.0793  0.0305
12932TIP3    H160211   0.487   5.500   4.598  1.0232  1.3026  1.3547
12932TIP3    H260212   0.364   5.552   4.527  1.8183  0.1607 -0.9387
12933TIP3   OH260213   5.949   6.348  11.679 -0.1381 -0.4745 -0.5217
12933TIP3    H160214   5.897   6.386  11.609 -1.9236 -0.7967  0.5776
12933TIP3    H260215   6.039   6.348  11.646 -0.9963 -1.0523 -2.9724
12934TIP3   OH260216   1.856   4.559  16.058 -0.0274 -0.0379  0.0376
12934TIP3    H160217   1.934   4.527  16.012 -1.0021  0.7882 -2.2078
12934TIP3    H260218   1.784   4.506  16.023 -0.9456  1.3487 -0.1803
12935TIP3   OH260219   0.433   5.614  13.376  0.2195 -0.3069  0.5135
12935TIP3    H160220   0.412   5.526  13.408 -0.7221  0.6891  2.7598
12935TIP3    H260221   0.528   5.615  13.370  0.2447 -1.4327  0.5958
12936TIP3   OH260222   6.171   1.296   1.885 -0.2043  0.6600 -0.5318
12936TIP3    H160223   6.217   1.367   1.930  0.5115  0.3321 -0.7384
12936TIP3    H260224   6.099   1.339   1.840 -1.9286  0.7902  2.2462
12937TIP3   OH260225   5.664   4.113   3.105  0.3088 -0.3793  0.1309
12937TIP3    H160226   5.615   4.112   3.022 -0.8820 -1.7553  0.8168
12937TIP3    H260227   5.754   4.130   3.079  0.0938 -1.5879 -1.5428
12938TIP3   OH260228   1.359   6.647  15.981 -0.3930  0.0663  0.3536
12938TIP3    H160229   1.367   6.552  15.989  0.2521  0.2623  2.2140
12938TIP3    H260230   1.443   6.681  16.012 -1.2260  1.3077  1.3342
12939TIP3   OH260231   4.049   1.410   4.580  0.3498  0.0272  0.5366
12939TIP3    H160232   4.077   1.491   4.623 -2.4740  1.2063  0.2623
12939TIP3    H260233   4.023   1.353   4.653  0.7796 -0.0137  0.6570
12940TIP3   OH260234   0.311   0.377   0.545  0.1835  0.1600 -0.0914
12940TIP3    H160235   0.381   0.339   0.599  0.4027  0.8323  0.1043
12940TIP3    H260236   0.280   0.451   0.595 -0.8380 -0.2704 -0.0801
12941TIP3   OH260237   0.795   2.051   1.899  0.1331  0.0167 -0.4846
12941TIP3    H160238   0.882   2.056   1.938  0.0243 -2.1573  0.1062
12941TIP3    H260239   0.810   2.064   1.805  1.1053 -0.2958 -0.3811
12942TIP3   OH260240   2.373   5.396  11.941  0.3384 -0.3311  0.4413
12942TIP3    H160241   2.294   5.356  11.977  0.2436 -0.5706 -0.0278
12942TIP3    H260242   2.345   5.432  11.857  0.5112  0.3983  0.6883
12943TIP3   OH260243   0.146   3.575  16.549  0.1797 -0.1734  0.2594
12943TIP3    H160244   0.235   3.551  16.524  0.2362 -0.1723  0.4543
12943TIP3    H260245   0.090   3.522  16.493  0.3033  0.5753 -0.5702
12944TIP3   OH260246   3.769   1.923  13.860  0.0962 -0.3950 -0.2187
12944TIP3    H160247   3.722   1.840  13.848 -0.3501 -0.2621  0.5947
12944TIP3    H260248   3.861   1.897  13.868  0.0302 -0.7571 -0.5912
12945TIP3   OH260249   5.450   2.062  17.066 -0.0795  0.0830  0.0720
12945TIP3    H160250   5.396   2.011  17.126  1.0149 -0.9773  0.1686
12945TIP3    H260251   5.394   2.076  16.989 -0.3977 -1.2468  0.0547
12946TIP3   OH260252   0.556   4.191  14.673 -0.3015  0.1124  0.3548
12946TIP3    H160253   0.475   4.164  14.630 -0.1319  0.3788 -0.1317
12946TIP3    H260254   0.551   4.287  14.676  0.4953  0.1989 -0.6659
12947TIP3   OH260255   6.770   2.505  13.404  0.0476 -0.5810  0.1208
12947TIP3    H160256   6.726   2.427  13.369 -0.1440 -0.5515  0.2976
12947TIP3    H260257   6.863   2.490  13.385 -0.1839  0.0378 -1.5941
12948TIP3   OH260258   1.704   4.133  11.114 -0.1314 -0.2808 -0.4788
12948TIP3    H160259   1.761   4.190  11.062 -0.5542 -0.6169 -1.3221
12948TIP3    H260260   1.656   4.193  11.172  1.7535 -0.0728  0.9169
12949TIP3   OH260261   5.921   6.692   0.560 -0.1561 -0.9976  0.3604
12949TIP3    H160262   5.849   6.673   0.620 -0.4746  3.4811  1.5339
12949TIP3    H260263   6.000   6.669   0.610 -0.5400 -0.3699  1.2712
12950TIP3   OH260264   5.794   0.970  10.312  0.3648 -0.0308 -0.1237
12950TIP3    H160265   5.730   1.020  10.363 -2.0868 -2.6940 -0.4712
12950TIP3    H260266   5.861   0.946  10.376  0.4285  1.8001  0.5212
12951TIP3   OH260267   3.086   2.427  15.360 -0.3711 -0.0790  0.0567
12951TIP3    H160268   3.154   2.406  15.424  1.8606 -0.2247 -2.2591
12951TIP3    H260269   3.091   2.522  15.349  0.2276 -0.2117 -0.9022
12952TIP3   OH260270   6.758   4.154  11.379  0.1631  0.3829  0.5001
12952TIP3    H160271   6.764   4.149  11.475 -1.1898 -0.4560  0.5523
12952TIP3    H260272   6.792   4.241  11.357  1.0800  0.3316  1.6898
12953TIP3   OH260273   1.510   4.819   5.273 -0.3674  0.4234 -0.2505
12953TIP3    H160274   1.529   4.795   5.182  2.2486 -0.9681  0.6244
12953TIP3    H260275   1.474   4.739   5.312  0.0598  0.5271  0.3594
12954TIP3   OH260276   5.717   1.581   2.370  0.0433  0.0657 -0.0833
12954TIP3    H160277   5.628   1.591   2.401  0.3596  0.7087  0.6223
12954TIP3    H260278   5.709   1.574   2.275 -0.7039  0.7375 -0.0697
12955TIP3   OH260279   0.318   4.049  13.661  0.0288 -0.0653  0.2238
12955TIP3    H160280   0.263   3.992  13.715 -0.1098  1.3645  1.5912
12955TIP3    H260281   0.324   4.002  13.577 -2.4079 -0.7540  0.3856
12956TIP3   OH260282   1.677   5.106  14.506  0.2803  0.4695  0.1238
12956TIP3    H160283   1.598   5.078  14.460  1.8126 -0.0224 -2.3182
12956TIP3    H260284   1.676   5.202  14.497  0.0680  0.4504 -0.0812
12957TIP3   OH260285   1.887   1.022  11.855 -0.2038 -0.1432  0.5134
12957TIP3    H160286   1.837   0.941  11.846 -0.3691  0.0326 -0.2341
12957TIP3    H260287   1.820   1.090  11.864 -0.0683 -0.0726  1.0154
12958TIP3   OH260288   3.380   0.685   2.591  0.1099  0.7983  0.1106
12958TIP3    H160289   3.430   0.713   2.515 -0.9417  1.3867 -0.3768
12958TIP3    H260290   3.399   0.751   2.658  1.3571  0.0552  0.5010
12959TIP3   OH260291   6.634   3.046   6.630 -0.0225  0.1224  0.0561
12959TIP3    H160292   6.666   3.100   6.557  0.4000  2.5093  1.9464
12959TIP3    H260293   6.700   2.978   6.640 -0.5735 -0.8362 -2.3918
12960TIP3   OH260294   0.819   0.212   6.036 -0.2181  0.5804  0.0022
12960TIP3    H160295   0.729   0.245   6.045 -0.5651 -0.1661 -0.7101
12960TIP3    H260296   0.837   0.170   6.120 -0.1167  1.7207  0.5658
12961TIP3   OH260297   4.290   2.274  16.611  0.1947 -0.0317  0.2025
12961TIP3    H160298   4.259   2.329  16.683  2.7533 -0.3732  1.6301
12961TIP3    H260299   4.294   2.332  16.535 -2.8490  0.2579  0.2102
12962TIP3   OH260300   2.409   6.627  15.745  0.6743 -0.2131 -0.1460
12962TIP3    H160301   2.471   6.678  15.693  2.3440  2.0231  3.7490
12962TIP3    H260302   2.337   6.687  15.762  0.3272 -0.7708  0.3677
12963TIP3   OH260303   3.375   5.321  15.388 -0.0894  0.0773  0.1527
12963TIP3    H160304   3.348   5.384  15.455  0.4236  0.1411  0.3015
12963TIP3    H260305   3.311   5.251  15.394  0.6288 -0.4688  1.5019
12964TIP3   OH260306   5.422   3.774  15.740 -0.6026 -0.3608  0.3588
12964TIP3    H160307   5.436   3.797  15.648  0.3308 -1.4608  0.2087
12964TIP3    H260308   5.397   3.682  15.738 -1.6284 -0.1052  1.1424
12965TIP3   OH260309   3.423   4.071  16.812  0.0303  0.2591  0.1683
12965TIP3    H160310   3.470   4.094  16.732 -0.0264  0.9679  0.3331
12965TIP3    H260311   3.333   4.056  16.783 -0.3043  1.8766  0.2817
12966TIP3   OH260312   6.042   4.921  13.031 -0.6323  0.1122 -0.5335
12966TIP3    H160313   6.105   4.867  12.983 -1.4072 -0.1272 -1.2906
12966TIP3    H260314   6.079   5.009  13.028 -1.3847  0.3722 -2.8376
12967TIP3   OH260315   0.769   1.355  14.948 -0.5030  0.3343  0.9424
12967TIP3    H160316   0.826   1.320  15.016  1.0358  2.3649  0.7227
12967TIP3    H260317   0.727   1.431  14.987  0.3151  1.4582 -0.3056
12968TIP3   OH260318   3.458   0.137  14.983  0.0993 -0.5887  0.0225
12968TIP3    H160319   3.536   0.102  15.025 -0.1768 -1.5934 -0.2914
12968TIP3    H260320   3.490   0.190  14.910  0.4901 -0.6766  0.1319
12969TIP3   OH260321   3.260   6.375  15.107  0.1648 -0.4206 -0.0026
12969TIP3    H160322   3.293   6.451  15.155  3.9715 -2.8100  1.3847
12969TIP3    H260323   3.295   6.386  15.019 -3.0809  1.6676 -1.1037
12970TIP3   OH260324   0.998   6.214   3.523  0.3042 -0.3355 -0.0687
12970TIP3    H160325   1.039   6.142   3.571  1.2482  1.5521  2.0487
12970TIP3    H260326   0.906   6.211   3.548  0.2109 -1.1644 -0.4834
12971TIP3   OH260327   3.874   1.896  11.908  0.2085  0.1183  0.5459
12971TIP3    H160328   3.968   1.909  11.913  0.4240 -0.3010 -1.7935
12971TIP3    H260329   3.860   1.806  11.938  0.5969  0.0638  0.5556
12972TIP3   OH260330   6.535   2.807  14.947  0.1795 -0.6087 -0.0618
12972TIP3    H160331   6.536   2.712  14.947  0.7588 -0.6075 -0.2234
12972TIP3    H260332   6.491   2.831  14.865  0.3556 -0.7368 -0.1938
12973TIP3   OH260333   1.621   1.237  12.410  0.6663  0.0293  0.4186
12973TIP3    H160334   1.529   1.213  12.407 -0.2851  3.2318  1.2498
12973TIP3    H260335   1.648   1.220  12.500  0.4342  0.4923  0.5806
12974TIP3   OH260336   5.086   6.017   4.042 -0.5508  0.4919 -0.2834
12974TIP3    H160337   5.144   6.091   4.061 -0.0494  0.5029 -1.8281
12974TIP3    H260338   5.140   5.940   4.058  0.9125  0.4937 -4.5617
12975TIP3   OH260339   6.335   4.227  15.668  0.3563  0.1501 -0.3072
12975TIP3    H160340   6.291   4.262  15.590  0.6260  0.8016 -0.1721
12975TIP3    H260341   6.368   4.305  15.713  0.4451 -0.2482  0.3093
12976TIP3   OH260342   6.586   1.027   1.515  0.3585  0.0711 -0.7609
12976TIP3    H160343   6.537   1.090   1.462  1.4212 -0.1396 -2.0372
12976TIP3    H260344   6.595   1.068   1.600  0.2787  1.2701 -1.3239
12977TIP3   OH260345   5.302   0.508   3.902 -0.4441 -0.3212  0.4754
12977TIP3    H160346   5.252   0.436   3.864  2.0957 -1.3615 -1.0394
12977TIP3    H260347   5.307   0.486   3.996 -2.0575 -0.6307  0.5039
12978TIP3   OH260348   0.470   3.213  13.079 -0.1348  0.7207  0.1747
12978TIP3    H160349   0.537   3.280  13.069  1.3942 -0.9100 -0.9436
12978TIP3    H260350   0.517   3.136  13.109 -1.5069 -0.4445 -0.5809
12979TIP3   OH260351   6.243   5.973  16.416  0.1474 -0.1624 -0.3704
12979TIP3    H160352   6.278   5.973  16.506 -0.6008 -0.2382 -0.0757
12979TIP3    H260353   6.287   6.047  16.374 -0.6170  0.8028  0.5031
12980TIP3   OH260354   2.657   3.275   1.970 -0.1463 -0.0402 -0.0614
12980TIP3    H160355   2.565   3.253   1.985 -0.0789 -0.0263  0.3877
12980TIP3    H260356   2.690   3.299   2.057  0.5518 -1.0502 -0.0371
12981TIP3   OH260357   1.116   2.784   2.499  0.3882 -0.7397 -0.3524
12981TIP3    H160358   1.144   2.875   2.505  0.5159 -0.6289 -2.4835
12981TIP3    H260359   1.085   2.763   2.588  0.3299  1.3680  0.1499
12982TIP3   OH260360   4.118   2.344   5.270 -0.2572 -0.0601 -0.3160
12982TIP3    H160361   4.074   2.317   5.190 -0.6088  0.5143 -0.3192
12982TIP3    H260362   4.146   2.434   5.253 -0.8334  0.2614  0.4119
12983TIP3   OH260363   2.782   2.064  15.999  0.0596 -0.3211 -0.0313
12983TIP3    H160364   2.842   2.118  16.049  0.1426 -0.4962  0.0597
12983TIP3    H260365   2.695   2.097  16.020  0.2462  1.8565 -2.3954
12984TIP3   OH260366   5.630   4.122  11.246  0.1425  0.4379 -0.5401
12984TIP3    H160367   5.652   4.209  11.213 -0.8862  0.2234 -1.8048
12984TIP3    H260368   5.660   4.062  11.178  0.3145 -0.1602  0.0609
12985TIP3   OH260369   4.309   0.062  13.148  0.4328 -0.2345 -0.4545
12985TIP3    H160370   4.275  -0.004  13.209  2.0493 -0.3616  0.3309
12985TIP3    H260371   4.234   0.118  13.129 -0.1811 -0.3986  1.3824
12986TIP3   OH260372   4.830   4.905  13.321 -0.0090  0.0935  0.6690
12986TIP3    H160373   4.869   4.834  13.270  1.0390  1.7322 -0.8630
12986TIP3    H260374   4.785   4.959  13.256 -0.0996  1.2823  1.7014
12987TIP3   OH260375   0.652   0.624   3.767  0.2029 -0.4411  0.3404
12987TIP3    H160376   0.659   0.534   3.797 -1.5513 -0.1699  1.6819
12987TIP3    H260377   0.634   0.617   3.673  0.1413 -1.4853  0.4303
12988TIP3   OH260378   0.050   4.749   1.322 -0.1543 -0.1735  0.6055
12988TIP3    H160379   0.067   4.840   1.346  0.1184 -0.1420  0.2936
12988TIP3    H260380  -0.008   4.755   1.246  0.6196 -0.2444  0.0023
12989TIP3   OH260381   4.392   0.437  13.799 -0.3801  0.4721 -0.2049
12989TIP3    H160382   4.409   0.522  13.839 -2.1366  0.9373 -0.4150
12989TIP3    H260383   4.337   0.457  13.723  2.2679 -0.4614 -2.4474
12990TIP3   OH260384   5.058   5.591  15.983  0.2562  0.6535  0.5495
12990TIP3    H160385   5.008   5.575  16.062  0.3699 -0.5902  0.3807
12990TIP3    H260386   5.078   5.685  15.985  0.1172  0.6525  1.8946
12991TIP3   OH260387   6.711   2.264  14.021 -0.5707 -0.1086 -0.1973
12991TIP3    H160388   6.735   2.195  13.960 -1.0531  0.3231 -0.8768
12991TIP3    H260389   6.615   2.262  14.023 -0.6078  0.8795 -0.6239
12992TIP3   OH260390   1.806   3.957   4.947 -1.0931 -0.4793 -0.4118
12992TIP3    H160391   1.719   3.939   4.912 -0.4522 -0.7329 -1.8989
12992TIP3    H260392   1.859   3.976   4.870 -0.4961  2.5747  0.7247
12993TIP3   OH260393   0.960   6.578   4.915 -0.3994 -0.1177 -0.0753
12993TIP3    H160394   0.896   6.561   4.846 -0.6029  0.9296 -0.1520
12993TIP3    H260395   1.045   6.557   4.875 -0.6546 -1.0876 -0.1133
12994TIP3   OH260396   2.364   4.723  12.149  0.3149  0.5052  0.5093
12994TIP3    H160397   2.343   4.813  12.174 -0.9488  0.8673 -1.6411
12994TIP3    H260398   2.401   4.730  12.061  0.9374 -1.0018  0.6272
12995TIP3   OH260399   1.981   6.195  13.184 -0.1961  0.4317  0.2812
12995TIP3    H160400   1.940   6.165  13.265  2.2736 -2.8104  0.4301
12995TIP3    H260401   1.918   6.172  13.116  0.4616 -2.7299  0.6899
12996TIP3   OH260402   5.812   5.148   5.541  0.0728  0.0693 -0.6416
12996TIP3    H160403   5.871   5.190   5.604  0.5825  0.5040 -1.3993
12996TIP3    H260404   5.727   5.187   5.558  0.3337  0.6423 -0.6432
12997TIP3   OH260405   2.926   6.783  12.797  0.0640 -0.0701  0.3349
12997TIP3    H160406   2.893   6.867  12.764  0.6669 -0.2145 -0.6377
12997TIP3    H260407   3.020   6.798  12.809  0.1547 -0.5821  0.2545
12998TIP3   OH260408   0.246   3.523  16.996 -0.3897  0.3180  0.2406
12998TIP3    H160409   0.206   3.489  17.076 -0.0330 -2.5554 -0.7557
12998TIP3    H260410   0.336   3.490  16.998 -0.9048 -1.3307 -2.2264
12999TIP3   OH260411   5.135   1.875   6.494 -0.3878  0.3131 -0.1483
12999TIP3    H160412   5.218   1.850   6.454  0.2171 -0.3102  1.4806
12999TIP3    H260413   5.117   1.962   6.458  0.9429  0.4341 -0.5345
13000TIP3   OH260414   3.393   2.050   3.870  0.6089  0.4023  0.2677
13000TIP3    H160415   3.459   2.065   3.938  1.9040  0.7244 -1.0222
13000TIP3    H260416   3.427   1.977   3.819 -0.8881 -0.5502  0.6067
13001TIP3   OH260417   0.312   5.600   3.401  0.2747 -0.2439  0.5721
13001TIP3    H160418   0.261   5.654   3.462 -2.4692 -1.3037 -0.7106
13001TIP3    H260419   0.325   5.656   3.325 -0.9040 -0.6773  0.0281
13002TIP3   OH260420   1.338   1.491   6.543 -0.3012 -0.1365 -0.5627
13002TIP3    H160421   1.248   1.466   6.523 -0.8832 -0.7060  2.5118
13002TIP3    H260422   1.330   1.570   6.595  0.9792 -0.1655 -0.3087
13003TIP3   OH260423   6.243   6.414   2.901  0.1420 -0.0994 -0.2526
13003TIP3    H160424   6.276   6.474   2.834  0.1997 -0.1711 -0.2883
13003TIP3    H260425   6.322   6.387   2.949 -0.1044  1.3935  1.0285
13004TIP3   OH260426   5.572   6.174  14.732 -0.4265 -0.0556  0.1022
13004TIP3    H160427   5.602   6.145  14.818  0.1610 -0.1126 -0.1195
13004TIP3    H260428   5.487   6.133  14.721  0.8982 -2.6652 -0.7076
13005TIP3   OH260429   0.072   4.587  15.435  0.3383  0.4501 -0.5181
13005TIP3    H160430   0.097   4.680  15.434  0.3487  0.4686  0.6421
13005TIP3    H260431   0.144   4.543  15.480 -0.9580  0.2913  1.4821
13006TIP3   OH260432   2.692   0.822   2.805 -0.2268  0.4309 -0.5729
13006TIP3    H160433   2.714   0.898   2.751 -1.9587  2.4856  1.4490
13006TIP3    H260434   2.634   0.770   2.751 -0.1189  1.2663 -1.5122
13007TIP3   OH260435   0.546   1.676  11.508  0.3446 -0.2482 -0.0733
13007TIP3    H160436   0.578   1.648  11.423 -0.0196 -0.8989 -0.0042
13007TIP3    H260437   0.456   1.643  11.512 -0.2555  1.3506 -0.1723
13008TIP3   OH260438   3.914   6.199   4.306 -0.1891 -0.3384 -0.1579
13008TIP3    H160439   4.008   6.207   4.320 -0.8212  2.4855  3.0521
13008TIP3    H260440   3.885   6.139   4.375 -0.8908 -0.3577 -0.4656
13009TIP3   OH260441   3.944   6.545  17.065 -0.3609  0.7052 -0.4562
13009TIP3    H160442   3.924   6.565  17.156  0.0852 -0.1746 -0.1597
13009TIP3    H260443   4.040   6.539  17.062 -0.3233  1.5533 -1.1622
13010TIP3   OH260444   3.006   2.202  10.888 -0.3738  0.2874  0.3934
13010TIP3    H160445   3.063   2.193  10.965 -1.6403 -0.7403  1.2308
13010TIP3    H260446   3.015   2.119  10.841 -1.0262  0.1857  0.4375
13011TIP3   OH260447   1.429   4.690  15.745  0.3103  0.6257  0.4526
13011TIP3    H160448   1.431   4.622  15.678 -0.8305 -0.2069  1.2391
13011TIP3    H260449   1.494   4.754  15.716  2.2012 -1.3277  0.2583
13012TIP3   OH260450   1.395   4.181  10.526 -0.2558 -0.1945 -0.2719
13012TIP3    H160451   1.347   4.126  10.465  0.2704 -0.8935 -0.0569
13012TIP3    H260452   1.485   4.147  10.524 -0.4451 -0.8574  1.6194
13013TIP3   OH260453   3.806   1.099  15.445 -0.3121 -0.1455 -0.0416
13013TIP3    H160454   3.874   1.164  15.462  0.2954 -0.5430 -0.9188
13013TIP3    H260455   3.778   1.071  15.532  0.8822 -0.2199  0.3259
13014TIP3   OH260456   6.018   1.361   0.426 -0.1741  0.9886 -0.3093
13014TIP3    H160457   5.990   1.373   0.335 -0.5848 -0.0532 -0.3272
13014TIP3    H260458   5.936   1.359   0.475  0.0406  1.3614  0.0584
13015TIP3   OH260459   1.396   6.081   0.656  0.8533  0.2731  0.2077
13015TIP3    H160460   1.387   6.170   0.622  1.7905 -0.1637 -1.2315
13015TIP3    H260461   1.375   6.089   0.749  0.6109  1.9409  0.0278
13016TIP3   OH260462   4.612   2.474   1.579  0.0178  0.1107  0.0953
13016TIP3    H160463   4.704   2.466   1.602 -0.0028 -1.6985 -0.3810
13016TIP3    H260464   4.612   2.496   1.486 -0.0114  0.9297  0.2907
13017TIP3   OH260465   4.906   3.724  13.001  0.3615  0.4000 -0.1069
13017TIP3    H160466   4.922   3.711  13.095  0.0922 -0.6952 -0.2038
13017TIP3    H260467   4.897   3.636  12.966 -1.2495  0.8474 -0.8662
13018TIP3   OH260468   2.012   1.083  16.857 -0.4112 -0.1798 -0.4105
13018TIP3    H160469   1.928   1.130  16.859 -0.5010 -0.3619  0.4388
13018TIP3    H260470   2.068   1.137  16.803 -0.9083  0.2467 -0.5056
13019TIP3   OH260471   2.873   5.925   0.888 -0.1648 -0.8788 -0.1813
13019TIP3    H160472   2.919   5.991   0.837  2.2862  0.2599  3.3493
13019TIP3    H260473   2.926   5.846   0.880  0.0620 -0.7831  0.3967
13020TIP3   OH260474   0.131   3.849  16.666  0.2473 -0.0209 -0.1087
13020TIP3    H160475   0.160   3.762  16.639  0.7537  0.5030 -1.3235
13020TIP3    H260476   0.209   3.890  16.705 -0.1203 -0.2822  0.9132
13021TIP3   OH260477   0.174   2.613  11.476  0.0101 -0.2669  0.4778
13021TIP3    H160478   0.080   2.599  11.490 -0.2337  0.2475 -0.6082
13021TIP3    H260479   0.206   2.647  11.560 -1.0896  1.0742  0.3748
13022TIP3   OH260480   4.089   2.653   4.840 -0.1250 -0.9114 -0.5211
13022TIP3    H160481   4.054   2.742   4.839  1.5570 -0.2354 -0.1508
13022TIP3    H260482   4.014   2.598   4.864 -0.8508  0.5442  0.6131
13023TIP3   OH260483   0.444   4.674   1.563 -0.5776 -0.5532 -0.1394
13023TIP3    H160484   0.437   4.581   1.541  0.7727 -0.7699  0.2791
13023TIP3    H260485   0.500   4.710   1.495 -1.2960  0.0184 -0.4377
13024TIP3   OH260486   5.618   3.472   3.328 -0.3455  0.5921 -0.1269
13024TIP3    H160487   5.678   3.523   3.273 -0.5182 -1.5922 -2.4990
13024TIP3    H260488   5.675   3.420   3.384 -0.1202  1.4568  0.4507
13025TIP3   OH260489   0.153   0.921   0.989 -0.4343 -0.2669 -0.0728
13025TIP3    H160490   0.138   0.890   1.078 -0.4519  0.9993  0.3758
13025TIP3    H260491   0.066   0.941   0.955 -0.4058 -0.4689 -0.2615
13026TIP3   OH260492   3.054   1.591  13.872 -0.1883  0.1597 -0.3031
13026TIP3    H160493   3.024   1.501  13.888 -0.6361  0.2295 -0.7401
13026TIP3    H260494   3.138   1.582  13.827  0.5436 -0.0402  1.0850
13027TIP3   OH260495   2.213   5.343  13.766  0.8440  0.5960 -0.0763
13027TIP3    H160496   2.118   5.352  13.781  0.4459 -1.1748 -1.4487
13027TIP3    H260497   2.252   5.391  13.839 -1.1022  1.8601  0.2041
13028TIP3   OH260498   5.308   3.905   5.492  0.0394 -0.7608  0.4960
13028TIP3    H160499   5.395   3.874   5.517  0.3091 -0.7939 -0.4788
13028TIP3    H260500   5.318   3.936   5.402 -0.0429  2.8769  1.6423
13029TIP3   OH260501   6.702   4.752   1.079 -0.3247  0.1003 -0.0410
13029TIP3    H160502   6.632   4.693   1.108  0.1013 -0.3748  0.0126
13029TIP3    H260503   6.664   4.799   1.004  0.4380 -2.5479 -2.1609
13030TIP3   OH260504   6.658   1.969  15.490 -0.1925  0.2194 -0.0285
13030TIP3    H160505   6.740   1.949  15.443 -0.6371 -0.8825 -0.3496
13030TIP3    H260506   6.674   2.054  15.530  1.5735 -0.5381  0.9354
13031TIP3   OH260507   4.392   5.519   2.573  0.2802  0.4422  0.2717
13031TIP3    H160508   4.479   5.560   2.576  0.2722  0.5488 -0.6448
13031TIP3    H260509   4.407   5.436   2.528 -0.6148  1.8848 -2.8437
13032TIP3   OH260510   6.640   0.700   0.172 -0.6809  0.0938 -0.4944
13032TIP3    H160511   6.577   0.758   0.215 -2.1233  1.2600 -4.0244
13032TIP3    H260512   6.596   0.671   0.092  0.9065 -4.0782 -0.0237
13033TIP3   OH260513   3.772   1.952  11.677 -0.3750 -0.4888  0.2944
13033TIP3    H160514   3.822   1.933  11.757 -2.3258  1.4432  2.0335
13033TIP3    H260515   3.820   2.024  11.636  1.5019 -2.4976 -1.1453
13034TIP3   OH260516   1.976   5.423  15.954  0.4739  0.3623  0.2890
13034TIP3    H160517   2.034   5.498  15.964  2.1017 -0.9711  1.2027
13034TIP3    H260518   1.971   5.384  16.042  0.7996 -1.3899 -0.4408
13035TIP3   OH260519   2.009   6.064   3.677  0.4686  0.5620 -0.1628
13035TIP3    H160520   2.077   6.005   3.709  0.6022  1.8090  1.9578
13035TIP3    H260521   1.963   6.092   3.756 -1.4963  0.9722 -1.4302
13036TIP3   OH260522   0.429   3.693  12.827 -0.1573 -0.1009 -0.6719
13036TIP3    H160523   0.487   3.628  12.788  0.3291  1.0817 -1.9726
13036TIP3    H260524   0.484   3.742  12.887  0.3065  1.2021 -2.1119
13037TIP3   OH260525   4.312   0.766  14.912  0.3141  0.3481  0.4408
13037TIP3    H160526   4.322   0.762  15.007  0.7915 -0.6642  0.3571
13037TIP3    H260527   4.349   0.684  14.880 -0.0660  0.5661 -0.6070
13038TIP3   OH260528   0.245   2.393  13.401 -0.4032  1.0363 -0.2503
13038TIP3    H160529   0.335   2.380  13.430 -0.0054 -1.6437 -2.5734
13038TIP3    H260530   0.200   2.313  13.426 -1.9987  2.0341  0.1775
13039TIP3   OH260531   5.139   2.385  15.714  0.6800 -0.1642 -0.1383
13039TIP3    H160532   5.091   2.323  15.660  0.8295  0.1590 -0.6514
13039TIP3    H260533   5.221   2.399  15.667  0.1314  1.3597 -0.6705
13040TIP3   OH260534   6.262   1.437  11.134 -0.1570  0.4117 -0.0161
13040TIP3    H160535   6.311   1.486  11.069  0.8050  0.8016  0.9920
13040TIP3    H260536   6.221   1.366  11.085  2.4195 -0.6726 -0.6879
13041TIP3   OH260537   1.651   2.330  14.524 -0.2281  0.0026 -0.2577
13041TIP3    H160538   1.738   2.289  14.521  0.2518  1.0740 -2.4656
13041TIP3    H260539   1.668   2.417  14.560 -0.7274 -0.5121  1.2552
13042TIP3   OH260540   4.778   4.166  15.565  0.2509 -0.8083 -0.2264
13042TIP3    H160541   4.797   4.080  15.602 -0.2396 -1.0250 -0.4650
13042TIP3    H260542   4.830   4.227  15.616  0.9285 -1.2948 -0.3308
13043TIP3   OH260543   4.674   5.668  16.452 -0.4864 -0.1281  0.7022
13043TIP3    H160544   4.660   5.618  16.532  1.1716  0.4960  1.3980
13043TIP3    H260545   4.586   5.687  16.420 -1.1452 -1.8353  1.4557
13044TIP3   OH260546   1.447   4.134   2.606  0.0790  0.1961  0.1010
13044TIP3    H160547   1.357   4.166   2.596  0.2588  0.7180  0.1359
13044TIP3    H260548   1.487   4.147   2.521 -0.2362 -1.1744 -0.2576
13045TIP3   OH260549   1.780   3.409  13.048 -0.1980  0.0932  0.8563
13045TIP3    H160550   1.731   3.464  12.987  1.4343  0.2911 -0.3187
13045TIP3    H260551   1.761   3.319  13.021  0.1230  0.1707  0.3761
13046TIP3   OH260552   1.983   0.705   5.097 -0.7507  0.2678 -0.4412
13046TIP3    H160553   2.028   0.697   5.014  1.0486 -1.8209  0.6698
13046TIP3    H260554   1.913   0.639   5.093 -0.2607 -0.2817 -0.0721
13047TIP3   OH260555   4.601   3.712   2.630 -0.0360  0.6855  0.1153
13047TIP3    H160556   4.680   3.763   2.650  3.5882 -4.3245 -0.3933
13047TIP3    H260557   4.578   3.669   2.713 -1.3385  0.9631 -0.0915
13048TIP3   OH260558   3.470   6.483  11.073 -0.4497 -0.4183 -0.0482
13048TIP3    H160559   3.434   6.462  11.159 -1.0257  0.7311 -0.0043
13048TIP3    H260560   3.430   6.421  11.013  0.6413 -1.8192  0.6483
13049TIP3   OH260561   4.476   2.281   3.979 -0.3726  0.3956  0.1520
13049TIP3    H160562   4.513   2.367   3.958 -0.8840  0.0793 -2.2501
13049TIP3    H260563   4.383   2.290   3.960 -0.4838 -0.5986  0.2067
13050TIP3   OH260564   3.793   3.177  13.254  0.9998  0.4486  0.0908
13050TIP3    H160565   3.886   3.166  13.275  1.0267  0.5614  0.0357
13050TIP3    H260566   3.781   3.272  13.252  1.1422  0.4510 -1.0367
13051TIP3   OH260567   0.539   2.957   0.431  0.2467 -0.1616  0.5112
13051TIP3    H160568   0.477   3.000   0.372  3.4316  2.7496 -0.9344
13051TIP3    H260569   0.593   2.903   0.373  1.5234  0.4161  1.1357
13052TIP3   OH260570   5.082   5.230   2.468 -0.7597 -0.2864  0.1486
13052TIP3    H160571   5.040   5.290   2.529 -1.2380  0.1510 -0.6037
13052TIP3    H260572   5.089   5.280   2.386 -0.8014 -1.1158 -0.3681
13053TIP3   OH260573   1.034   3.397  14.156  0.4084  0.4769  0.2020
13053TIP3    H160574   1.069   3.440  14.077 -0.1788 -0.5394 -0.6305
13053TIP3    H260575   0.944   3.374  14.132  0.6368 -0.9956  0.7003
13054TIP3   OH260576   5.197   5.055  12.827 -0.1535  0.0014 -0.0286
13054TIP3    H160577   5.177   5.131  12.772  1.0061  0.3235 -0.0107
13054TIP3    H260578   5.113   5.032  12.867 -0.1512  2.5469  1.5753
13055TIP3   OH260579   1.399   4.208   4.034 -0.2349  0.2123  0.2729
13055TIP3    H160580   1.348   4.134   4.067  1.9622 -0.9825  1.0606
13055TIP3    H260581   1.387   4.276   4.101 -1.6227  0.3164 -0.0653
13056TIP3   OH260582   3.160   2.604  12.989 -0.2277  0.0101  0.1782
13056TIP3    H160583   3.252   2.597  12.965  0.0434 -0.6604  1.3697
13056TIP3    H260584   3.144   2.529  13.046 -1.2627  0.6575  0.7586
13057TIP3   OH260585   1.814   0.554   1.557 -0.0389 -0.1210  0.1685
13057TIP3    H160586   1.801   0.468   1.598 -1.4578 -0.5194 -1.0365
13057TIP3    H260587   1.761   0.614   1.609 -0.9315 -0.4217 -0.3757
13058TIP3   OH260588   2.376   5.631   1.919  0.2749 -0.5976  0.0287
13058TIP3    H160589   2.365   5.660   2.010  0.1172 -1.0671  0.1637
13058TIP3    H260590   2.287   5.611   1.890  0.3915 -1.0476 -0.0240
13059TIP3   OH260591   5.049   0.139   3.976 -0.3537 -0.1084  0.4527
13059TIP3    H160592   5.118   0.074   3.965  0.2222  0.6108 -0.2278
13059TIP3    H260593   4.968   0.088   3.976 -0.1139 -0.5969 -2.9476
13060TIP3   OH260594   6.711   1.053   2.639  0.3686  0.1064 -1.4581
13060TIP3    H160595   6.692   0.960   2.653 -1.9249  0.7320 -0.0227
13060TIP3    H260596   6.660   1.077   2.562 -0.2320  0.4817 -0.9575
13061TIP3   OH260597   4.969   3.346  11.683 -0.0145 -0.4728 -0.0811
13061TIP3    H160598   4.988   3.428  11.728  0.9551  0.8335 -2.8138
13061TIP3    H260599   5.054   3.304  11.673 -0.0155 -0.0106 -2.1046
13062TIP3   OH260600   2.187   1.918   4.391 -0.9510 -0.0505  0.6083
13062TIP3    H160601   2.160   2.010   4.386  0.0445  0.2485  0.5970
13062TIP3    H260602   2.174   1.894   4.483 -0.5141  0.3216  0.7690
13063TIP3   OH260603   6.120   5.709  12.047  0.1975 -0.0195 -0.3871
13063TIP3    H160604   6.035   5.737  12.013  0.9742  0.0495 -2.2880
13063TIP3    H260605   6.125   5.616  12.026  0.2049 -0.2557  0.5959
13064TIP3   OH260606   0.501   4.864   2.404  0.1170 -0.0019  0.0829
13064TIP3    H160607   0.469   4.898   2.320  0.9165 -1.5690 -0.8707
13064TIP3    H260608   0.594   4.887   2.406  0.1473 -0.1478  0.4434
13065TIP3   OH260609   1.010   3.347  16.749 -0.0122 -0.0858  0.2676
13065TIP3    H160610   0.984   3.334  16.658 -0.9871  0.6201  0.4410
13065TIP3    H260611   0.931   3.379  16.793  0.5453 -0.0727  1.2845
13066TIP3   OH260612   6.669   3.852  11.291  0.4676 -0.0429  0.4761
13066TIP3    H160613   6.708   3.803  11.364 -0.1493  0.7341  1.3366
13066TIP3    H260614   6.655   3.940  11.326  1.7289  0.8149 -1.1108
13067TIP3   OH260615   2.872   1.108   1.492 -0.4205  0.2080  0.1345
13067TIP3    H160616   2.912   1.033   1.537 -0.4895  0.5120  0.7134
13067TIP3    H260617   2.778   1.092   1.496 -0.5486  1.2824  2.0056
13068TIP3   OH260618   4.662   2.676  16.430 -0.1522  0.2549 -0.2568
13068TIP3    H160619   4.568   2.658  16.417  0.5948 -3.5915 -1.0773
13068TIP3    H260620   4.682   2.745  16.368 -2.3422  0.7800 -0.4251
13069TIP3   OH260621   5.628   1.531   0.864 -0.3945  0.3147 -0.4844
13069TIP3    H160622   5.608   1.438   0.861  1.2330 -0.1374  1.0277
13069TIP3    H260623   5.608   1.564   0.777 -0.3039 -1.6026 -1.2448
13070TIP3   OH260624   2.851   6.646   1.799  0.5218 -0.7701 -0.7376
13070TIP3    H160625   2.858   6.551   1.808  0.7705 -0.7324 -0.5414
13070TIP3    H260626   2.768   6.660   1.753  0.4334 -1.0765 -0.6692
13071TIP3   OH260627   1.579   0.479  16.528 -0.0872  0.2501  0.1916
13071TIP3    H160628   1.557   0.436  16.446  0.6229 -0.6295  0.4477
13071TIP3    H260629   1.672   0.459  16.541 -0.0864  0.7448  0.9888
13072TIP3   OH260630   2.291   4.667  16.552 -0.0719  0.2918 -1.1419
13072TIP3    H160631   2.199   4.676  16.576  0.6477  2.0041  1.1017
13072TIP3    H260632   2.317   4.583  16.588  0.2269  1.5365  1.6672
13073TIP3   OH260633   0.239   4.423  15.585 -0.6364  0.3989 -0.0690
13073TIP3    H160634   0.313   4.363  15.579 -0.3629  0.4507  2.1892
13073TIP3    H260635   0.182   4.385  15.652 -1.6656  1.3881 -0.3580
13074TIP3   OH260636   6.131   3.630  11.369 -0.1418 -0.1288  0.6194
13074TIP3    H160637   6.123   3.697  11.301  2.7401 -0.9159 -0.5609
13074TIP3    H260638   6.073   3.559  11.340  1.2549 -0.5701 -1.2154
13075TIP3   OH260639   0.391   5.944   4.786 -0.3826 -0.2881 -0.6263
13075TIP3    H160640   0.471   5.904   4.751 -0.7152 -0.1152 -1.6073
13075TIP3    H260641   0.373   6.016   4.726  1.0882  2.3903  1.9846
13076TIP3   OH260642   0.663   6.135  11.296  0.0317 -0.1435 -0.2571
13076TIP3    H160643   0.727   6.087  11.244 -0.0378 -0.9350  0.3749
13076TIP3    H260644   0.701   6.140  11.383 -0.5191 -0.1414 -0.0122
13077TIP3   OH260645   1.726   6.200  12.653 -0.4202 -0.4850  0.6703
13077TIP3    H160646   1.772   6.258  12.592  0.1949 -1.2210  0.4364
13077TIP3    H260647   1.671   6.145  12.597 -2.9324  1.5492  1.0562
13078TIP3   OH260648   3.994   5.642   4.420  0.5763  0.3964  0.2986
13078TIP3    H160649   3.972   5.649   4.327  0.1309  2.1578  0.5318
13078TIP3    H260650   4.058   5.571   4.423  0.5941  0.3104 -1.3560
13079TIP3   OH260651   2.435   4.218  12.148  0.1620 -0.1434 -0.0788
13079TIP3    H160652   2.496   4.270  12.200 -1.3867  1.3793  0.2919
13079TIP3    H260653   2.431   4.262  12.063 -0.7877  0.0884  0.0704
13080TIP3   OH260654   1.401   1.338  11.603  0.4131  0.0490 -0.2286
13080TIP3    H160655   1.387   1.340  11.508  1.1052 -0.1381 -0.3434
13080TIP3    H260656   1.496   1.344  11.613  0.4417 -1.2848  0.3986
13081TIP3   OH260657   2.168   0.050  11.515  0.7278  0.0542 -0.1240
13081TIP3    H160658   2.211   0.081  11.436  1.2657  0.7533  0.4373
13081TIP3    H260659   2.214   0.094  11.587  0.4800 -0.8479  0.5973
13082TIP3   OH260660   2.901   5.445  15.811 -0.2892 -0.1626  0.0706
13082TIP3    H160661   2.958   5.376  15.778  1.0470  0.8044  0.2918
13082TIP3    H260662   2.890   5.425  15.904 -0.7753 -0.6683 -0.0960
13083TIP3   OH260663   2.897   6.124  14.254  0.4561  0.1206 -0.6336
13083TIP3    H160664   2.905   6.129  14.349  1.6755 -1.1804 -0.6417
13083TIP3    H260665   2.950   6.048  14.230 -0.6506 -0.1589 -2.2598
13084TIP3   OH260666   1.811   3.497   1.691 -0.0799  0.6138  0.3244
13084TIP3    H160667   1.756   3.419   1.684 -3.3406  2.9469 -1.5506
13084TIP3    H260668   1.794   3.530   1.780 -0.6046  0.5373  0.2539
13085TIP3   OH260669   0.908   6.283  17.155 -0.0901  0.2807  0.1777
13085TIP3    H160670   0.894   6.352  17.220  0.0510  0.8407 -0.3808
13085TIP3    H260671   0.911   6.202  17.206 -1.7132  0.5258  0.6940
13086TIP3   OH260672   6.532   4.803  15.861  0.6138  0.6898 -0.0628
13086TIP3    H160673   6.473   4.782  15.934  3.2449 -1.3308  1.5739
13086TIP3    H260674   6.473   4.820  15.787 -2.1388  3.1407  2.5501
13087TIP3   OH260675   6.678   0.034   6.251 -0.0360  0.3193  0.0053
13087TIP3    H160676   6.769   0.005   6.243 -0.1263 -0.6786  2.1810
13087TIP3    H260677   6.626  -0.043   6.230 -0.3050 -0.3034  2.7570
13088TIP3   OH260678   4.064   0.412   2.006 -0.2946  0.2767 -0.3205
13088TIP3    H160679   4.141   0.417   2.062  0.4082 -2.4788 -1.0036
13088TIP3    H260680   4.096   0.436   1.919 -0.2768 -0.6040 -0.5542
13089TIP3   OH260681   4.661   2.970  10.616 -0.4976 -0.1467 -0.0646
13089TIP3    H160682   4.730   2.948  10.680 -1.1617  0.9152  1.0338
13089TIP3    H260683   4.622   3.050  10.650 -1.1840  0.1695 -1.5746
13090TIP3   OH260684   2.043   0.040  12.252  0.1740  0.5675 -0.1797
13090TIP3    H160685   2.117  -0.015  12.280  0.4019  0.3375 -1.2314
13090TIP3    H260686   1.970   0.011  12.306 -0.2230 -2.1825 -2.1044
13091TIP3   OH260687   6.740   2.260   1.890  0.6110  0.3629 -0.2075
13091TIP3    H160688   6.806   2.328   1.899  2.0093 -0.8173 -1.3091
13091TIP3    H260689   6.788   2.178   1.900 -0.6167 -0.5127 -1.2790
13092TIP3   OH260690   1.988   4.554   1.077 -0.2098  0.1231  0.0908
13092TIP3    H160691   1.912   4.509   1.041 -0.7611  0.1831  1.1376
13092TIP3    H260692   2.057   4.541   1.013 -0.9729 -0.3569 -0.6389
13093TIP3   OH260693   6.600   0.150   3.953  0.0405 -0.2045  0.1046
13093TIP3    H160694   6.604   0.057   3.978  1.6394 -0.1210  0.1933
13093TIP3    H260695   6.685   0.168   3.913 -0.8786  0.8087 -1.4568
13094TIP3   OH260696   6.105   5.327  14.231 -0.4337 -0.0613  0.2964
13094TIP3    H160697   6.119   5.278  14.150  1.2562  0.5889  0.1886
13094TIP3    H260698   6.134   5.267  14.300  2.2671  1.0117  0.1213
13095TIP3   OH260699   2.422   5.529   4.814 -0.8911 -0.4348  0.1151
13095TIP3    H160700   2.511   5.524   4.779  0.1845  1.6741  2.4249
13095TIP3    H260701   2.379   5.597   4.762 -1.5824 -2.2292 -1.7591
13096TIP3   OH260702   4.113   4.891  12.552 -0.5052 -1.1040  0.2031
13096TIP3    H160703   4.037   4.856  12.506  0.0102 -2.3028  0.2627
13096TIP3    H260704   4.092   4.984  12.565 -1.4604 -1.1735 -0.7829
13097TIP3   OH260705   2.326   2.473   4.680  0.2010  0.3639 -0.0392
13097TIP3    H160706   2.321   2.497   4.588  1.4837  0.7295 -0.0185
13097TIP3    H260707   2.260   2.528   4.723  0.8495  1.4764 -0.4719
13098TIP3   OH260708   6.375   6.741  11.797 -0.3646  0.4820 -0.4716
13098TIP3    H160709   6.345   6.745  11.706 -1.8751  1.0811  0.0198
13098TIP3    H260710   6.460   6.698  11.794 -1.0301 -0.7297 -2.0150
13099TIP3   OH260711   1.218   1.168   6.735 -0.8901  0.1214 -0.1329
13099TIP3    H160712   1.228   1.074   6.720  0.5328 -0.0768  1.7628
13099TIP3    H260713   1.300   1.206   6.706 -0.3761  0.4082  1.6104
13100TIP3   OH260714   6.211   4.224  14.870  0.1716 -0.6638 -0.4600
13100TIP3    H160715   6.297   4.183  14.875 -0.6050 -2.2954  0.2313
13100TIP3    H260716   6.226   4.310  14.833  1.9737 -1.3158 -1.2570
13101TIP3   OH260717   6.087   1.167  15.039  0.1598 -0.0120 -0.4498
13101TIP3    H160718   6.009   1.121  15.006 -0.4766  0.7829 -0.0665
13101TIP3    H260719   6.086   1.150  15.133  0.7212 -0.3949 -0.5089
13102TIP3   OH260720   4.712   1.025  15.831  0.1769 -0.1078  0.5851
13102TIP3    H160721   4.792   0.977  15.849  0.4311 -0.2904 -1.0049
13102TIP3    H260722   4.706   1.028  15.736 -0.5397  1.8403  0.6696
13103TIP3   OH260723   2.148   5.536  11.293  0.0964  0.1087  0.0640
13103TIP3    H160724   2.064   5.509  11.329 -0.0544  1.4224  0.7261
13103TIP3    H260725   2.147   5.632  11.299  2.1589  0.0798  1.2800
13104TIP3   OH260726   6.356   5.703  16.390  0.0559  0.0275  0.0711
13104TIP3    H160727   6.264   5.731  16.393  0.0116 -0.1174  0.0940
13104TIP3    H260728   6.351   5.608  16.376  0.2158  0.5874 -4.5304
13105TIP3   OH260729   3.409   6.667  13.300  0.6722  0.4556 -0.3059
13105TIP3    H160730   3.375   6.710  13.379 -0.3032 -0.4963 -0.2131
13105TIP3    H260731   3.463   6.596  13.333 -0.0315 -0.1693 -0.5011
13106TIP3   OH260732   2.555   5.972   0.660  0.0118 -0.4315  0.3131
13106TIP3    H160733   2.585   6.056   0.627 -2.0533  0.1780 -0.0932
13106TIP3    H260734   2.553   5.983   0.755  1.1814 -0.5259  0.3505
13107TIP3   OH260735   5.810   3.092   0.013 -0.1827 -0.1068  0.3015
13107TIP3    H160736   5.838   3.113   0.102  0.1292 -1.0229  0.4257
13107TIP3    H260737   5.763   3.009   0.021 -1.4602  0.5593 -0.1703
13108TIP3   OH260738   4.021   3.329   3.662 -0.0134 -0.3885  0.7645
13108TIP3    H160739   4.112   3.303   3.671  0.7554  1.6835 -0.7530
13108TIP3    H260740   4.018   3.419   3.693 -1.0206  0.3945 -1.4966
13109TIP3   OH260741   1.115   2.417  13.689  0.0619  0.0066  0.1050
13109TIP3    H160742   1.185   2.352  13.685  0.9484  1.0313 -1.8679
13109TIP3    H260743   1.035   2.367  13.669  0.7337 -0.4883 -1.4337
13110TIP3   OH260744   0.490   6.488  17.086  0.0597 -0.1853 -0.3834
13110TIP3    H160745   0.429   6.415  17.088 -0.7212  0.4780  0.4660
13110TIP3    H260746   0.574   6.448  17.064 -1.3729 -0.5733 -5.6844
13111TIP3   OH260747   1.738   4.186  17.134  0.1272 -0.1961 -0.5417
13111TIP3    H160748   1.722   4.224  17.048  1.3095 -0.9592 -1.1006
13111TIP3    H260749   1.685   4.107  17.136  0.1540 -0.2156 -0.5984
13112TIP3   OH260750   5.169   5.403   2.258  0.3828  0.2281 -0.6235
13112TIP3    H160751   5.184   5.389   2.164  1.7184  1.3760 -0.5986
13112TIP3    H260752   5.181   5.497   2.270  1.7287 -0.1216  0.9507
13113TIP3   OH260753   6.321   3.139  14.987 -0.2364  0.1343 -0.5980
13113TIP3    H160754   6.303   3.231  15.007 -0.1789  0.1018 -0.3950
13113TIP3    H260755   6.286   3.091  15.062 -2.1476 -0.1670 -1.6542
13114TIP3   OH260756   0.320   3.022  11.639 -0.4830  0.1308 -0.1459
13114TIP3    H160757   0.240   3.017  11.691  0.1297  0.6694  0.8581
13114TIP3    H260758   0.292   3.056  11.554 -1.5780 -1.2935 -0.3752
13115TIP3   OH260759   4.102   0.693  16.281  0.2069 -0.1685  0.8531
13115TIP3    H160760   4.033   0.759  16.282  1.6503  1.3776  1.3727
13115TIP3    H260761   4.168   0.728  16.221 -0.2118 -2.4331 -0.9787
13116TIP3   OH260762   0.128   0.349   0.905  0.6291  0.4208  0.1524
13116TIP3    H160763   0.068   0.356   0.980  0.2498  0.0939 -0.1210
13116TIP3    H260764   0.215   0.339   0.945  0.3818 -0.1414  0.5490
13117TIP3   OH260765   6.437   3.792   3.735 -0.1290  0.3713  0.2033
13117TIP3    H160766   6.419   3.881   3.703  0.5580  0.6740  0.6398
13117TIP3    H260767   6.390   3.735   3.675  0.5060  0.9673 -0.8779
13118TIP3   OH260768   0.688   2.554   5.646  0.2366 -0.5175 -0.2292
13118TIP3    H160769   0.754   2.547   5.715 -0.6180  1.0481  0.7822
13118TIP3    H260770   0.710   2.636   5.601 -0.2739 -0.6151 -0.6571
13119TIP3   OH260771   1.656   5.945   2.740 -0.7138  0.0566 -0.6276
13119TIP3    H160772   1.620   5.967   2.826  2.2779  0.3993  0.6205
13119TIP3    H260773   1.586   5.898   2.695 -1.7773 -1.5493  2.6055
13120TIP3   OH260774   6.015   5.405   4.786  0.9059 -0.1058  0.4493
13120TIP3    H160775   6.069   5.337   4.747  2.0205  1.9687 -1.7521
13120TIP3    H260776   5.949   5.425   4.720  0.5415  0.9002  1.0986
13121TIP3   OH260777   4.931   5.841  14.134  0.6444 -0.5991 -0.7752
13121TIP3    H160778   4.860   5.842  14.071  0.8474 -1.2004 -1.0064
13121TIP3    H260779   5.011   5.842  14.081  0.8192 -1.7195 -0.5453
13122TIP3   OH260780   3.544   5.956  13.451 -0.0935  0.3921  0.4007
13122TIP3    H160781   3.549   5.978  13.544 -0.4946 -0.1286  0.5520
13122TIP3    H260782   3.464   5.905  13.443 -0.1865  0.6323 -0.2756
13123TIP3   OH260783   5.959   6.211  16.066  0.6061  0.4022  0.3144
13123TIP3    H160784   5.995   6.298  16.054  1.1827 -0.0132 -1.1985
13123TIP3    H260785   6.034   6.157  16.090  0.4083  0.1644  0.3953
13124TIP3   OH260786   3.779   6.203   5.953 -0.6972 -0.1285 -0.1150
13124TIP3    H160787   3.770   6.141   6.026 -2.8227 -1.0796 -1.1475
13124TIP3    H260788   3.691   6.207   5.914  0.4210  0.2484 -2.6989
13125TIP3   OH260789   2.907   5.602   0.693 -0.0413  0.2316  0.3308
13125TIP3    H160790   2.835   5.665   0.690 -0.1497  0.1124  0.4108
13125TIP3    H260791   2.873   5.524   0.650  1.0614  1.2037 -2.3952
13126TIP3   OH260792   0.508   4.422   1.143  0.4792  0.6481 -0.0605
13126TIP3    H160793   0.437   4.438   1.205  0.0382 -1.6232  0.0719
13126TIP3    H260794   0.561   4.502   1.146 -1.9441  2.2885 -0.0373
13127TIP3   OH260795   0.179   2.931   1.183  0.1373  0.3786 -0.0859
13127TIP3    H160796   0.171   2.880   1.103 -0.1899 -0.9559  0.7955
13127TIP3    H260797   0.240   3.001   1.160  0.0972 -0.0199 -1.4788
13128TIP3   OH260798   2.493   5.886   1.743 -0.0913  0.2146  0.2558
13128TIP3    H160799   2.414   5.903   1.795 -1.5109  0.2815 -1.8696
13128TIP3    H260800   2.556   5.853   1.806 -2.6980 -2.5374  1.5563
13129TIP3   OH260801   0.300   0.242   4.388  0.4759 -0.6123 -0.4719
13129TIP3    H160802   0.283   0.271   4.478  2.3077  0.1818 -0.3557
13129TIP3    H260803   0.213   0.235   4.348 -0.1887  3.2750  0.0607
13130TIP3   OH260804   6.470   6.741   0.937  0.4280 -0.0706 -0.1686
13130TIP3    H160805   6.487   6.832   0.914  0.5008  0.1409  0.7226
13130TIP3    H260806   6.557   6.703   0.951  0.4592 -0.5723 -1.6334
13131TIP3   OH260807   0.396   6.005  15.834 -0.1910 -0.3675 -0.0337
13131TIP3    H160808   0.489   5.997  15.817 -0.5212 -3.5027 -0.6175
13131TIP3    H260809   0.356   6.009  15.747 -0.6649  0.1593  0.2052
13132TIP3   OH260810   0.363   2.899  12.132  0.0693  0.5489  0.3937
13132TIP3    H160811   0.294   2.964  12.119 -0.9186 -0.6195 -0.4272
13132TIP3    H260812   0.442   2.941  12.099 -1.1845  0.1145 -3.4656
13133TIP3   OH260813   2.547   5.507  13.192  0.2543  0.2054 -0.1172
13133TIP3    H160814   2.527   5.586  13.242 -1.2330 -2.0325  3.0627
13133TIP3    H260815   2.636   5.484  13.217  0.2866  0.3044 -0.1444
13134TIP3   OH260816   0.003   3.207  10.760  0.6442  0.0148  0.5769
13134TIP3    H160817  -0.020   3.281  10.815 -0.4824 -1.0783  1.6166
13134TIP3    H260818  -0.014   3.238  10.671 -1.7795  0.3541  1.1244
13135TIP3   OH260819   0.151   5.311  14.286 -0.4708 -0.2522 -1.0504
13135TIP3    H160820   0.123   5.251  14.216  1.0847 -1.0524 -0.9989
13135TIP3    H260821   0.104   5.280  14.363  0.5263 -1.5786 -0.9690
13136TIP3   OH260822   5.059   6.787  16.017 -0.3251 -0.4624 -0.2577
13136TIP3    H160823   5.081   6.700  16.052 -2.4727 -0.6454  0.7332
13136TIP3    H260824   5.029   6.837  16.094 -1.1581  0.4545 -1.1581
13137TIP3   OH260825   5.964   3.093   4.026 -0.0503  0.0318 -0.2244
13137TIP3    H160826   6.026   3.165   4.036 -1.9383  1.7419 -0.5628
13137TIP3    H260827   5.882   3.135   4.001 -1.3505 -2.1910  0.1764
13138TIP3   OH260828   6.402   5.494  15.297  0.1649  0.0126 -0.2340
13138TIP3    H160829   6.316   5.537  15.286 -0.2168 -0.9033 -0.9200
13138TIP3    H260830   6.439   5.493  15.208  0.9799  0.5796  0.0938
13139TIP3   OH260831   1.998   5.795  12.804  0.4595 -0.5477  0.0961
13139TIP3    H160832   1.922   5.832  12.760 -0.6239 -1.2206  1.3631
13139TIP3    H260833   2.071   5.813  12.746 -0.6940 -0.0028 -1.1969
13140TIP3   OH260834   3.547   0.533  16.451 -0.1315  0.0442  0.4084
13140TIP3    H160835   3.490   0.518  16.526 -0.8862 -0.4394 -0.2504
13140TIP3    H260836   3.529   0.460  16.392  1.6994 -0.5060  0.5026
13141TIP3   OH260837   1.938   0.753   6.056 -0.4514 -0.0824  0.4727
13141TIP3    H160838   1.996   0.678   6.044 -0.6715 -0.6889  3.0200
13141TIP3    H260839   1.855   0.716   6.084 -0.7269  1.0610  1.2087
13142TIP3   OH260840   4.194   1.108  15.911  0.2792  0.2641 -0.0244
13142TIP3    H160841   4.232   1.193  15.934 -0.5477  1.0218 -1.3933
13142TIP3    H260842   4.162   1.074  15.995  4.2699 -0.6053  1.2378
13143TIP3   OH260843   5.639   4.784  13.714 -0.0281 -0.0079 -0.0090
13143TIP3    H160844   5.611   4.815  13.800 -0.8724  0.0825 -0.3069
13143TIP3    H260845   5.563   4.799  13.657  0.2264 -0.8523 -0.5842
13144TIP3   OH260846   6.445   5.044   4.965 -0.1238 -0.5269 -0.7094
13144TIP3    H160847   6.356   5.021   4.938 -0.7506  0.3313  0.5593
13144TIP3    H260848   6.488   4.960   4.980 -2.1211 -0.9864  3.0522
13145TIP3   OH260849   0.747   4.421  16.604 -0.4052  0.9012  0.2976
13145TIP3    H160850   0.667   4.380  16.571  1.0218 -1.5097 -0.3314
13145TIP3    H260851   0.751   4.394  16.696  0.5469 -0.5106 -0.1235
13146TIP3   OH260852   4.873   5.510  12.455 -0.0204 -0.2296  0.1951
13146TIP3    H160853   4.833   5.587  12.415  1.7553  0.8646  0.4716
13146TIP3    H260854   4.946   5.487  12.397  1.3071  0.1365  1.6501
13147TIP3   OH260855   1.844   3.739  12.638  0.3668  0.2279  0.4089
13147TIP3    H160856   1.912   3.795  12.675  0.8440  0.6644 -1.0751
13147TIP3    H260857   1.821   3.679  12.708  0.9147  1.3324  1.5413
13148TIP3   OH260858   3.731   2.013  14.366 -0.4327  0.7370  0.4416
13148TIP3    H160859   3.652   1.973  14.328  0.1277  0.1705 -0.1385
13148TIP3    H260860   3.718   2.005  14.461 -0.6919 -0.1163  0.3441
13149TIP3   OH260861   5.962   5.025   3.298  0.5786 -0.0628  0.0769
13149TIP3    H160862   5.912   5.106   3.285 -0.1258 -0.5159 -0.0327
13149TIP3    H260863   5.951   4.977   3.216  0.8860 -0.3321  0.1936
13150TIP3   OH260864   3.574   1.286   6.328 -0.4535 -0.2155 -0.8781
13150TIP3    H160865   3.610   1.241   6.405  0.5244 -0.3913 -1.4339
13150TIP3    H260866   3.484   1.306   6.352 -0.3224 -0.7821  0.1017
13151TIP3   OH260867   1.267   5.175   1.869 -0.4264  0.1362  0.1484
13151TIP3    H160868   1.236   5.194   1.958 -0.4835 -0.1130  0.1834
13151TIP3    H260869   1.205   5.110   1.835 -1.6660  1.8198 -0.8599
13152TIP3   OH260870   2.203   2.039  11.944  0.1910  0.2982  0.2511
13152TIP3    H160871   2.160   1.965  11.901 -1.8433  1.6511 -0.0916
13152TIP3    H260872   2.157   2.049  12.027  0.1665  1.4565  0.1044
13153TIP3   OH260873   5.808   3.613   5.833  0.0200 -1.1814 -0.0062
13153TIP3    H160874   5.720   3.611   5.794  0.3967 -0.0728 -0.9383
13153TIP3    H260875   5.804   3.682   5.898  0.3514 -0.7539 -0.4328
13154TIP3   OH260876   5.909   6.388   2.790 -0.4712  0.6587  0.2707
13154TIP3    H160877   5.824   6.349   2.810 -0.2597  0.9233  1.7378
13154TIP3    H260878   5.890   6.481   2.775 -0.5769  0.5277 -0.4466
13155TIP3   OH260879   3.866   5.047  11.561 -0.0436  0.3315  0.4681
13155TIP3    H160880   3.904   5.034  11.474 -0.1278 -1.2834  0.6578
13155TIP3    H260881   3.772   5.055  11.545 -0.0786 -0.1463  0.4157
13156TIP3   OH260882   4.827   1.344   3.446 -0.3839 -0.2454  0.1193
13156TIP3    H160883   4.771   1.420   3.425 -1.1997 -0.3265  1.9568
13156TIP3    H260884   4.768   1.269   3.442 -0.6002 -0.2436  2.8284
13157TIP3   OH260885   5.202   6.124   2.947  0.3847 -0.1517 -0.3070
13157TIP3    H160886   5.108   6.130   2.963  0.6079 -1.6178  1.8229
13157TIP3    H260887   5.235   6.213   2.964 -0.5905  0.3317 -0.9314
13158TIP3   OH260888   0.065   3.972   1.003 -0.4344  0.3495  0.4707
13158TIP3    H160889   0.047   3.915   0.928 -0.4819 -0.6678  1.2424
13158TIP3    H260890   0.005   4.045   0.993  0.6841  1.0566 -1.3795
13159TIP3   OH260891   4.522   2.311  15.213 -0.1838  0.1067 -0.2035
13159TIP3    H160892   4.465   2.384  15.236  0.6008  0.5011  0.5598
13159TIP3    H260893   4.609   2.339  15.241 -0.2792 -2.2429  2.8073
13160TIP3   OH260894   5.814   3.494   1.116 -0.5258 -0.0491  0.2540
13160TIP3    H160895   5.858   3.412   1.096 -0.1746  0.2330 -0.1573
13160TIP3    H260896   5.725   3.484   1.082 -0.2890 -0.0197 -0.3817
13161TIP3   OH260897   3.569   3.702  13.419 -0.5220 -0.8397 -0.1999
13161TIP3    H160898   3.500   3.730  13.358 -0.9868 -1.4415  0.0461
13161TIP3    H260899   3.522   3.675  13.497  0.0152 -1.0545  0.0463
13162TIP3   OH260900   3.747   3.726   0.179 -0.2429 -0.2607 -0.0800
13162TIP3    H160901   3.660   3.705   0.145 -1.2189 -0.4754  2.4278
13162TIP3    H260902   3.796   3.756   0.103 -1.6817 -2.6961 -2.0586
13163TIP3   OH260903   2.868   4.084   3.410  0.6484  0.5303  0.0970
13163TIP3    H160904   2.909   4.170   3.424  1.7886  0.1340 -0.7737
13163TIP3    H260905   2.831   4.089   3.322  0.9732  0.0239 -0.0686
13164TIP3   OH260906   2.273   5.443   3.888  0.5068  0.3190  0.6077
13164TIP3    H160907   2.311   5.518   3.843  0.9015 -1.2904 -1.8076
13164TIP3    H260908   2.179   5.463   3.895  0.4969  0.7149 -0.6676
13165TIP3   OH260909   4.699   2.270  15.615  0.0964 -0.3123  0.4027
13165TIP3    H160910   4.666   2.353  15.580  1.1842 -0.4026 -0.8472
13165TIP3    H260911   4.793   2.283  15.624  0.0099 -0.7163  2.1823
13166TIP3   OH260912   2.275   3.038  13.804 -0.0267 -0.0075 -0.1152
13166TIP3    H160913   2.313   3.022  13.718  1.4438  0.8310  0.3633
13166TIP3    H260914   2.213   2.965  13.817  1.1643 -1.2076 -1.0619
13167TIP3   OH260915   0.921   0.358  15.083 -0.3238  0.7709  0.8763
13167TIP3    H160916   0.975   0.399  15.150  1.0984  0.4845 -0.0791
13167TIP3    H260917   0.893   0.431  15.027  2.5231  0.4806 -1.0499
13168TIP3   OH260918   6.643   5.889   4.964 -0.3204  0.9001 -0.1650
13168TIP3    H160919   6.559   5.861   4.925 -0.2440  1.1964 -0.5421
13168TIP3    H260920   6.626   5.977   4.997 -0.0726  1.0800 -0.5129
13169TIP3   OH260921   3.260   0.082  11.544  0.1484  0.0156 -0.0495
13169TIP3    H160922   3.286   0.100  11.635  0.1391 -0.5094  0.0548
13169TIP3    H260923   3.339   0.048  11.503  0.6805  1.9859 -0.7357
13170TIP3   OH260924   0.386   1.484   5.636 -0.4419  0.0027  0.1170
13170TIP3    H160925   0.445   1.437   5.696 -0.4468  1.0407  0.9442
13170TIP3    H260926   0.337   1.414   5.592 -0.0468 -0.7956  0.9092
13171TIP3   OH260927   6.231   0.905  13.251  0.0290 -0.5779 -0.4862
13171TIP3    H160928   6.234   0.813  13.276  0.6124 -0.0637  1.4593
13171TIP3    H260929   6.321   0.926  13.224  0.2053 -0.2535  0.3394
13172TIP3   OH260930   6.373   3.164   0.458  0.3638  0.1465  0.8060
13172TIP3    H160931   6.367   3.221   0.534  1.2629  0.8039  0.3923
13172TIP3    H260932   6.318   3.206   0.392  0.2508  0.0181  0.8175
13173TIP3   OH260933   1.311   6.426  12.572 -0.0624 -0.3878 -0.3624
13173TIP3    H160934   1.225   6.463  12.553 -0.0571 -0.0170  0.3006
13173TIP3    H260935   1.330   6.368  12.499 -0.3861  0.3833 -1.0636
13174TIP3   OH260936   4.539   1.189   1.079 -0.1022  0.1792 -0.0177
13174TIP3    H160937   4.609   1.197   1.144  0.5812  0.5979 -0.7974
13174TIP3    H260938   4.497   1.105   1.099 -0.6195  0.8080  1.6682
13175TIP3   OH260939   6.271   2.882  12.213  0.0095  0.2217 -0.1701
13175TIP3    H160940   6.269   2.977  12.224 -0.0479  0.2416 -0.3490
13175TIP3    H260941   6.332   2.867  12.141 -0.8527  0.2003 -0.9184
13176TIP3   OH260942   4.227   2.750  13.351  0.0553  0.6363 -0.0331
13176TIP3    H160943   4.320   2.768  13.369 -0.3221  1.2855  1.3674
13176TIP3    H260944   4.228   2.671  13.298  1.3809  0.0070  0.8779
13177TIP3   OH260945   6.705   3.938  14.264  0.7437  0.2296  0.0222
13177TIP3    H160946   6.631   3.906  14.315  1.2405 -1.1930 -0.1053
13177TIP3    H260947   6.768   3.969  14.329  0.7437 -0.1619  0.2093
13178TIP3   OH260948   4.282   2.603  11.236 -0.1935 -1.0005 -0.0435
13178TIP3    H160949   4.212   2.539  11.223  1.8244 -3.1264 -0.7527
13178TIP3    H260950   4.310   2.625  11.147 -1.0003  1.0392  0.1948
13179TIP3   OH260951   5.578   0.419  11.380  0.5832 -0.2540  0.1855
13179TIP3    H160952   5.576   0.477  11.305  0.3292 -0.9002 -0.3156
13179TIP3    H260953   5.623   0.468  11.448  0.2302  0.5807 -0.1826
13180TIP3   OH260954   2.375   4.630  11.344 -0.4481  0.4318 -0.8562
13180TIP3    H160955   2.284   4.604  11.335 -0.3208 -0.2859 -0.0705
13180TIP3    H260956   2.417   4.595  11.265 -0.3198 -1.5934  0.0914
13181TIP3   OH260957   3.490   0.677  11.689  0.7226  0.2584  0.4589
13181TIP3    H160958   3.466   0.768  11.709 -0.3779  0.3030 -0.9492
13181TIP3    H260959   3.582   0.681  11.665  0.7030  0.9897  0.4993
13182TIP3   OH260960   4.559   1.413   6.631  0.7603 -0.1480 -0.2501
13182TIP3    H160961   4.619   1.468   6.580  1.1387  0.6907  1.0545
13182TIP3    H260962   4.617   1.357   6.683  0.3872 -0.4326 -0.1460
13183TIP3   OH260963   6.021   1.748  17.160 -0.1270 -0.7317  0.2958
13183TIP3    H160964   6.115   1.741  17.179 -0.3783 -1.2168  1.4122
13183TIP3    H260965   6.012   1.831  17.114  1.0635 -1.3931 -1.1897
13184TIP3   OH260966   3.796   0.512  16.165 -0.1084  0.3996 -0.2069
13184TIP3    H160967   3.771   0.439  16.109  2.6201 -1.2624  0.6421
13184TIP3    H260968   3.851   0.568  16.110 -0.5169  0.7655 -0.2531
13185TIP3   OH260969   2.005   2.784   5.299 -0.3211  0.2543 -0.1169
13185TIP3    H160970   1.958   2.856   5.258  0.4272  0.3032 -0.9146
13185TIP3    H260971   2.086   2.824   5.331 -0.3737 -0.0250  0.3693
13186TIP3   OH260972   6.130   2.180  15.836 -0.3701  0.3883  0.3656
13186TIP3    H160973   6.123   2.109  15.900 -0.1215 -0.3064 -0.3759
13186TIP3    H260974   6.223   2.202  15.835 -0.2054 -0.3421 -0.5556
13187TIP3   OH260975   2.184   2.103   1.971 -0.4269 -0.1689 -0.0759
13187TIP3    H160976   2.257   2.057   2.012 -0.1551  0.4207  0.1128
13187TIP3    H260977   2.162   2.050   1.894 -0.2132 -0.6824  0.2116
13188TIP3   OH260978   1.395   3.091   5.287  0.2534  0.1879  0.1004
13188TIP3    H160979   1.315   3.050   5.255 -1.3169  2.0621  1.5416
13188TIP3    H260980   1.403   3.172   5.237 -0.9219  1.9521  2.6520
13189TIP3   OH260981   3.998   3.787  14.600 -0.0237 -0.3493  0.2039
13189TIP3    H160982   4.093   3.777  14.590 -0.0572 -0.1237 -0.3382
13189TIP3    H260983   3.960   3.727  14.536 -0.2573 -1.0314  0.9760
13190TIP3   OH260984   2.692   6.099  15.688  0.2084  0.1608 -0.0298
13190TIP3    H160985   2.684   6.189  15.655  1.9956  0.1794 -0.4705
13190TIP3    H260986   2.785   6.090  15.709 -0.0602 -1.4228  0.5097
13191TIP3   OH260987   6.266   6.691   3.567  0.1384  0.0765  0.0933
13191TIP3    H160988   6.274   6.596   3.576  2.2122  0.4200  2.5131
13191TIP3    H260989   6.198   6.716   3.630 -0.4226  0.2000 -0.5586
13192TIP3   OH260990   1.508   2.215   5.607  0.0895 -0.6995 -0.5210
13192TIP3    H160991   1.426   2.250   5.575 -0.5029 -2.1394 -0.6072
13192TIP3    H260992   1.567   2.291   5.609 -1.2034  0.3293 -0.5068
13193TIP3   OH260993   0.034   3.690   1.903 -0.0538 -0.2792  0.3003
13193TIP3    H160994   0.074   3.608   1.931  0.3420  0.2916  1.4546
13193TIP3    H260995   0.003   3.731   1.984 -2.2544 -0.3101 -0.4747
13194TIP3   OH260996   5.536   5.536  15.465 -0.3762 -0.1643 -0.4035
13194TIP3    H160997   5.581   5.589  15.399 -3.6487  2.1627 -0.9283
13194TIP3    H260998   5.443   5.545  15.443 -1.3193 -2.2515  2.4195
13195TIP3   OH260999   5.987   6.301  13.318  0.2974  0.0838  0.2006
13195TIP3    H161000   6.022   6.347  13.395 -1.7492  1.1115  0.5372
13195TIP3    H261001   5.964   6.371  13.257  0.6198 -0.6733 -0.8012
13196TIP3   OH261002   2.765   5.555  13.503 -0.3186 -0.1184 -0.1300
13196TIP3    H161003   2.817   5.625  13.463 -0.6167  1.0779  1.5021
13196TIP3    H261004   2.693   5.601  13.546 -2.1959 -1.6788 -1.5303
13197TIP3   OH261005   5.662   1.399  10.707  0.2777  0.5225  0.3490
13197TIP3    H161006   5.742   1.443  10.677  0.3263 -0.1500 -0.5042
13197TIP3    H261007   5.592   1.440  10.657  0.3351 -0.4464 -0.5423
13198TIP3   OH261008   4.323   0.768  13.439  0.3256 -0.0697  0.5338
13198TIP3    H161009   4.307   0.784  13.346 -0.6634  0.3926  0.7835
13198TIP3    H261010   4.418   0.781  13.449  0.0803  2.2753  0.0536
13199TIP3   OH261011   3.990   1.087   0.663 -0.3533 -0.8797  0.2303
13199TIP3    H161012   4.053   1.154   0.690 -2.0080  0.3796  1.0971
13199TIP3    H261013   3.991   1.091   0.567  0.8041 -0.8158  0.2361
13200TIP3   OH261014   5.079   4.233   3.166  0.2225 -0.1159 -0.1800
13200TIP3    H161015   4.989   4.221   3.136  0.0107 -1.9630  1.0882
13200TIP3    H261016   5.072   4.296   3.237 -0.2797 -1.2937  0.8349
13201TIP3   OH261017   1.562   3.039   4.789 -0.5053  0.0258 -0.1106
13201TIP3    H161018   1.472   3.019   4.816 -0.1241 -1.3193  0.1825
13201TIP3    H261019   1.613   2.965   4.820  0.5613  0.3242 -1.1360
13202TIP3   OH261020   0.491   6.211   0.180 -0.8129 -0.4076  0.3093
13202TIP3    H161021   0.403   6.244   0.165 -0.1029  1.2332 -0.3494
13202TIP3    H261022   0.548   6.274   0.136  0.7808 -0.6904  1.9198
13203TIP3   OH261023   5.445   5.911  13.344  0.5830 -0.4377  0.0067
13203TIP3    H161024   5.483   5.915  13.432 -0.3942  1.4755  0.3538
13203TIP3    H261025   5.422   5.819  13.332 -0.2976 -0.5170  2.1927
13204TIP3   OH261026   4.023   6.331   4.785  0.0993  0.3567  0.3925
13204TIP3    H161027   3.965   6.257   4.768 -0.1388  0.2133  1.7819
13204TIP3    H261028   4.111   6.294   4.780  0.0632  0.4220 -0.9809
13205TIP3   OH261029   6.245   2.662   0.475 -0.2968  0.1956 -0.1798
13205TIP3    H161030   6.296   2.740   0.493  0.4528 -0.7167  1.8237
13205TIP3    H261031   6.306   2.589   0.487 -2.3452 -1.0304  4.1015
13206TIP3   OH261032   4.854   4.373  16.473 -0.5319  0.2514 -0.0445
13206TIP3    H161033   4.888   4.351  16.386  1.5356  0.7169  0.6200
13206TIP3    H261034   4.766   4.335  16.474 -0.2915 -0.4503 -2.0470
13207TIP3   OH261035   5.238   3.523  16.748  0.0945 -0.2876  0.1559
13207TIP3    H161036   5.145   3.545  16.751 -0.0165 -0.4954 -1.2553
13207TIP3    H261037   5.275   3.560  16.828 -0.9087  1.2258 -0.0688
13208TIP3   OH261038   3.213   4.215  10.913  0.2974 -0.0479 -0.0039
13208TIP3    H161039   3.298   4.259  10.902 -0.5797  1.4421 -0.9997
13208TIP3    H261040   3.223   4.132  10.865  1.9167 -0.9055  1.7594
13209TIP3   OH261041   1.484   5.038  16.317  0.2989 -0.7882 -0.0793
13209TIP3    H161042   1.458   4.946  16.320 -0.9133 -0.4561  0.1589
13209TIP3    H261043   1.533   5.051  16.398 -0.1989 -1.0435  0.2717
13210TIP3   OH261044   6.182   4.083   2.602  0.0050  0.2278  0.4263
13210TIP3    H161045   6.173   4.173   2.570  0.6044  0.3692  0.6508
13210TIP3    H261046   6.262   4.084   2.654  0.3544 -0.5932 -0.0906
13211TIP3   OH261047   1.331   3.517   1.509 -0.4043  0.3420 -0.0033
13211TIP3    H161048   1.296   3.539   1.422  0.3544  1.7656  0.0265
13211TIP3    H261049   1.421   3.549   1.507  0.1372 -1.1317  0.7433
13212TIP3   OH261050   0.301   2.831   1.678 -0.2455  0.5433  0.0026
13212TIP3    H161051   0.265   2.809   1.592 -1.4087 -0.8494  0.8229
13212TIP3    H261052   0.392   2.802   1.674  0.2477  2.1439 -1.3532
13213TIP3   OH261053   4.938   6.063   4.896 -0.3769 -0.1990  0.0544
13213TIP3    H161054   4.939   6.149   4.853  1.0023 -0.9790 -1.5568
13213TIP3    H261055   5.031   6.041   4.908 -0.6936 -1.9283 -0.5391
13214TIP3   OH261056   2.957   4.435  11.143 -0.0085 -1.3357  0.2427
13214TIP3    H161057   3.049   4.409  11.139  0.3788  0.0864 -0.2164
13214TIP3    H261058   2.945   4.470  11.231 -0.4154 -2.5761  0.7012
13215TIP3   OH261059   0.286   2.568   1.254  0.1303  0.0175  0.1800
13215TIP3    H161060   0.236   2.505   1.203  1.3250  0.8012 -2.0401
13215TIP3    H261061   0.357   2.517   1.293  1.0518 -0.0741 -1.5542
13216TIP3   OH261062   3.269   5.616  16.317 -0.1794  0.6591  0.0919
13216TIP3    H161063   3.337   5.668  16.275  0.2424  0.5364  0.6241
13216TIP3    H261064   3.236   5.671  16.388 -1.6791  1.3219 -1.0925
13217TIP3   OH261065   4.425   2.926   3.182 -0.0434  0.2938 -0.3152
13217TIP3    H161066   4.384   2.842   3.203  1.8385 -0.9529 -1.5113
13217TIP3    H261067   4.507   2.925   3.231  0.3646  1.0837 -0.9717
13218TIP3   OH261068   4.180   3.941   5.883  0.0567  0.1410 -0.5785
13218TIP3    H161069   4.105   3.964   5.829 -0.5223 -2.0728 -0.7565
13218TIP3    H261070   4.142   3.913   5.966  0.9394  3.5322  1.0702
13219TIP3   OH261071   6.501   4.176   2.576  0.0137 -0.0027 -0.3646
13219TIP3    H161072   6.467   4.196   2.489  1.4614  1.8496 -0.5374
13219TIP3    H261073   6.500   4.081   2.581  0.2045 -0.1310 -2.5322
13220TIP3   OH261074   1.159   2.432  13.270 -0.6960 -0.6393  0.3157
13220TIP3    H161075   1.079   2.380  13.262 -1.3145  0.4658 -0.9948
13220TIP3    H261076   1.230   2.369  13.263 -1.4296 -1.3174 -1.1783
13221TIP3   OH261077   3.203   4.999   3.209  0.3440  0.0524  0.2490
13221TIP3    H161078   3.271   4.991   3.141  0.7296  0.9447  0.5296
13221TIP3    H261079   3.203   5.091   3.232 -0.2933 -0.1250  0.9583
13222TIP3   OH261080   1.453   0.462   0.917 -0.5084  0.0470  0.6848
13222TIP3    H161081   1.473   0.401   0.847 -0.4108 -0.5730  1.2447
13222TIP3    H261082   1.522   0.446   0.983 -0.3197  0.9431  0.7199
13223TIP3   OH261083   6.735   0.869  11.884  0.2229 -0.2732 -0.7966
13223TIP3    H161084   6.702   0.780  11.898 -1.5231  0.2101 -1.6077
13223TIP3    H261085   6.799   0.883  11.953 -1.9499 -0.9761  1.4138
13224TIP3   OH261086   1.429   5.518   2.737  0.2320 -0.5476  0.3111
13224TIP3    H161087   1.490   5.563   2.678 -0.0405 -0.9112 -0.2468
13224TIP3    H261088   1.419   5.578   2.811  1.0962 -0.3900  0.3023
13225TIP3   OH261089   2.516   4.003  11.615  0.0581 -0.2502 -0.4197
13225TIP3    H161090   2.514   3.918  11.570 -1.3466 -0.9948  0.9965
13225TIP3    H261091   2.475   4.064  11.554  2.7134 -0.1641 -2.2113
13226TIP3   OH261092   2.088   0.739   3.887 -0.4134  0.0201  0.6610
13226TIP3    H161093   2.066   0.832   3.877 -0.4764  0.0522  1.0911
13226TIP3    H261094   2.069   0.700   3.802  1.2286  0.7316 -0.0439
13227TIP3   OH261095   3.266   5.216   6.423  0.1136 -0.1550  0.6942
13227TIP3    H161096   3.332   5.147   6.437 -0.6281 -0.9369  0.3968
13227TIP3    H261097   3.184   5.168   6.416 -0.4584  0.8061  0.8661
13228TIP3   OH261098   5.699   4.539  14.951 -0.5171 -0.0025 -0.0629
13228TIP3    H161099   5.688   4.625  14.912 -2.2127 -0.0884  0.1945
13228TIP3    H261100   5.746   4.488  14.884 -1.7380  0.3923 -1.2428
13229TIP3   OH261101   5.646   4.456   4.107 -0.2924  0.0013 -0.0201
13229TIP3    H161102   5.701   4.388   4.148 -1.7349 -1.0584  0.1891
13229TIP3    H261103   5.649   4.529   4.169  1.4539  0.2404 -0.3513
13230TIP3   OH261104   2.985   0.608  13.918 -0.1085  0.2112 -0.3491
13230TIP3    H161105   3.020   0.676  13.861  0.7803  0.1603  0.1358
13230TIP3    H261106   2.934   0.552  13.860  0.6230  0.2699 -1.0550
13231TIP3   OH261107   5.231   3.604   2.651 -0.3342  0.1689  0.2500
13231TIP3    H161108   5.289   3.673   2.620  1.1938 -0.9750  0.5147
13231TIP3    H261109   5.211   3.628   2.741  1.2466 -0.3759  0.7678
13232TIP3   OH261110   5.231   2.930  15.778  0.2790  0.8827 -0.1133
13232TIP3    H161111   5.145   2.937  15.736 -0.2411  1.4436  1.0346
13232TIP3    H261112   5.215   2.950  15.870  1.5324  0.3354  0.2366
13233TIP3   OH261113   6.276   4.816   2.480  0.1113  0.4805  0.4211
13233TIP3    H161114   6.269   4.882   2.411  1.1401  0.9589  0.7592
13233TIP3    H261115   6.367   4.823   2.509 -0.1066 -0.2713  1.2724
13234TIP3   OH261116   3.134   4.249  12.233  0.0713  0.5376  0.7061
13234TIP3    H161117   3.155   4.156  12.244 -1.5249 -0.3474 -2.9773
13234TIP3    H261118   3.213   4.287  12.195  0.1472  0.3407  0.6682
13235TIP3   OH261119   0.282   2.065  15.701  0.6851 -0.2469  0.2150
13235TIP3    H161120   0.297   2.072  15.795 -1.8685 -0.4356  0.6667
13235TIP3    H261121   0.290   1.972  15.682 -0.2758 -0.3942  0.5189
13236TIP3   OH261122   1.312   5.821   4.967  0.2749 -0.0842  0.1514
13236TIP3    H161123   1.398   5.843   4.930 -0.2745  2.0311  0.0612
13236TIP3    H261124   1.287   5.899   5.016 -1.1015 -1.1170  1.1142
13237TIP3   OH261125   0.832   0.347  14.058  0.1885 -0.3694 -0.4039
13237TIP3    H161126   0.804   0.408  14.126 -1.5465 -0.9520 -0.5622
13237TIP3    H261127   0.872   0.274  14.106  1.4578  0.4759 -0.1697
13238TIP3   OH261128   2.314   5.219   1.701 -0.4053  0.1041 -0.3116
13238TIP3    H161129   2.323   5.180   1.787  0.2874 -0.2408 -0.5363
13238TIP3    H261130   2.289   5.147   1.643  1.4123 -0.1490 -0.8279
13239TIP3   OH261131   3.013   6.104   3.919 -0.1929 -0.5978 -0.0053
13239TIP3    H161132   3.088   6.071   3.870 -0.0887 -1.2019  0.5545
13239TIP3    H261133   3.050   6.161   3.985 -0.3998  0.9757 -1.2128
13240TIP3   OH261134   2.295   5.017  11.065  0.1551 -0.0226  0.0387
13240TIP3    H161135   2.390   5.011  11.076  0.3713  0.9567 -1.2432
13240TIP3    H261136   2.276   5.111  11.065 -0.8965 -0.2181  0.8789
13241TIP3   OH261137   0.477   0.179   2.179 -0.0260 -0.7236  0.3259
13241TIP3    H161138   0.419   0.104   2.168 -0.2611 -0.3323 -1.2339
13241TIP3    H261139   0.543   0.170   2.110 -0.3424  0.7483 -0.1944
13242TIP3   OH261140   4.053   6.553  13.858 -0.2641 -0.2857  0.2574
13242TIP3    H161141   4.102   6.585  13.934 -0.4712  0.8666 -0.0869
13242TIP3    H261142   4.096   6.594  13.783 -1.3902  0.2991 -0.0873
13243TIP3   OH261143   0.403   1.927  12.640 -0.6720 -0.4158  0.4163
13243TIP3    H161144   0.335   1.947  12.575 -0.3780 -0.0815  0.2162
13243TIP3    H261145   0.420   1.833  12.627 -0.5051 -0.3150 -0.0888
13244TIP3   OH261146   6.057   2.968   3.467  0.1156  0.2540 -0.2183
13244TIP3    H161147   6.140   2.927   3.492 -0.7046 -2.5176 -1.8726
13244TIP3    H261148   6.028   3.014   3.546  2.6262  0.2755  0.7217
13245TIP3   OH261149   2.420   2.445  13.563  0.5510  0.5056  0.0975
13245TIP3    H161150   2.393   2.514  13.502 -2.2514 -1.2458 -0.6879
13245TIP3    H261151   2.367   2.460  13.641 -0.1366 -0.7890 -0.1100
13246TIP3   OH261152   5.282   1.589  14.579 -0.0211 -0.2981  0.3332
13246TIP3    H161153   5.356   1.598  14.519  0.1506 -0.5680  0.5009
13246TIP3    H261154   5.206   1.620  14.530  0.2476  0.2362  0.2499
13247TIP3   OH261155   4.305   2.287  16.987  0.2733 -0.0311  0.4222
13247TIP3    H161156   4.388   2.331  17.003  0.0102  0.2888  0.8840
13247TIP3    H261157   4.258   2.344  16.926 -0.4061  0.7325  1.6516
13248TIP3   OH261158   2.420   1.054  16.865  0.3910 -0.1068 -0.4235
13248TIP3    H161159   2.439   0.995  16.938 -0.5172 -1.9622 -1.6392
13248TIP3    H261160   2.455   1.009  16.788  1.3652  1.8324 -1.1426
13249TIP3   OH261161   2.607   0.467  12.854 -0.6590 -0.4051  0.8759
13249TIP3    H161162   2.622   0.403  12.784 -2.8672 -1.6131  1.4687
13249TIP3    H261163   2.604   0.551  12.809  0.7417 -0.8677 -0.1129
13250TIP3   OH261164   2.752   5.019  15.282  0.0190  0.0844  0.4389
13250TIP3    H161165   2.684   4.977  15.335 -1.1777 -0.2132 -1.2798
13250TIP3    H261166   2.759   4.964  15.204 -0.3140  2.0680 -1.0343
13251TIP3   OH261167   3.544   4.557  15.974 -0.1452  0.6923  0.0959
13251TIP3    H161168   3.622   4.552  15.920 -0.7708  0.6129 -0.8020
13251TIP3    H261169   3.488   4.622  15.932 -0.1028  1.5683  1.3420
13252TIP3   OH261170   1.072   0.924   0.631 -0.2229  0.2753  0.1947
13252TIP3    H161171   0.997   0.899   0.577 -0.0604  0.5468 -0.1620
13252TIP3    H261172   1.078   0.855   0.697  0.2932 -0.7041 -0.8460
13253TIP3   OH261173   1.571   2.089   0.103  0.0435  0.2907  0.5565
13253TIP3    H161174   1.589   2.031   0.029 -1.1009 -0.0521  0.5304
13253TIP3    H261175   1.497   2.047   0.148  0.1855  0.9389  1.4016
13254TIP3   OH261176   0.680   5.597   5.710  0.1723  0.5951 -0.0181
13254TIP3    H161177   0.643   5.536   5.646 -1.6767  0.7861  0.8583
13254TIP3    H261178   0.761   5.554   5.739 -0.6716 -1.0428 -0.0427
13255TIP3   OH261179   3.842   1.882   1.388  0.1307 -0.1717  0.5090
13255TIP3    H161180   3.771   1.819   1.397 -0.2663  0.4939  2.2136
13255TIP3    H261181   3.916   1.840   1.432 -0.4047  0.9446  2.5155
13256TIP3   OH261182   5.302   2.720  11.870  0.1812  0.2797  0.2169
13256TIP3    H161183   5.235   2.668  11.913 -0.6660  1.8286  0.7848
13256TIP3    H261184   5.385   2.683  11.900 -0.3860  1.5293  3.4162
13257TIP3   OH261185   2.200   4.242   4.580 -0.2381  0.2628 -0.6123
13257TIP3    H161186   2.131   4.239   4.646 -1.4734 -3.0652 -1.9218
13257TIP3    H261187   2.262   4.174   4.607 -0.3678 -0.5988 -2.4335
13258TIP3   OH261188   0.766   4.692  16.579 -0.2264 -0.0639 -0.2256
13258TIP3    H161189   0.750   4.600  16.601  0.7544  0.4017  2.6660
13258TIP3    H261190   0.848   4.690  16.529  1.2670 -0.5720  2.1395
13259TIP3   OH261191   5.407   4.755   1.424  0.6124  0.3191  0.3318
13259TIP3    H161192   5.403   4.851   1.424 -2.2937  0.2186  1.1913
13259TIP3    H261193   5.410   4.731   1.516 -0.3969 -0.4775  0.1623
13260TIP3   OH261194   6.111   6.729   1.638  0.9126 -0.2820 -0.3905
13260TIP3    H161195   6.027   6.773   1.647  1.5729  0.8828  0.2027
13260TIP3    H261196   6.117   6.671   1.713  1.1542  0.5161  0.2087
13261TIP3   OH261197   5.207   5.876  14.528  0.5299  0.2991  0.7432
13261TIP3    H161198   5.238   5.897  14.440 -1.6597  0.2736 -0.0660
13261TIP3    H261199   5.195   5.781  14.528  0.2264  0.3349  0.9484
13262TIP3   OH261200   2.825   6.604   0.784  0.2159 -0.9606  0.2824
13262TIP3    H161201   2.771   6.676   0.752  1.4734 -0.2621 -0.3063
13262TIP3    H261202   2.843   6.552   0.706 -0.8690 -2.0586  0.7395
13263TIP3   OH261203   4.461   6.229   1.284  0.0242  0.4429 -0.8837
13263TIP3    H161204   4.514   6.180   1.346  0.5485 -0.0610 -1.7207
13263TIP3    H261205   4.392   6.268   1.338  0.8410  0.5473  0.1045
13264TIP3   OH261206   3.396   1.332  10.749 -0.0249 -0.0948  0.2445
13264TIP3    H161207   3.430   1.252  10.790 -1.6549 -0.2083  1.4207
13264TIP3    H261208   3.471   1.391  10.746  1.3484 -1.8344 -1.1321
13265TIP3   OH261209   5.144   5.505  11.425 -0.2114  0.5175  0.4556
13265TIP3    H161210   5.216   5.474  11.479  0.9216  0.1284 -1.2238
13265TIP3    H261211   5.076   5.439  11.435  0.8844 -0.7749 -0.4006
13266TIP3   OH261212   6.576   5.143  16.851  0.3086  0.4707  0.2421
13266TIP3    H161213   6.559   5.206  16.921  1.7688  1.4677 -0.2564
13266TIP3    H261214   6.614   5.067  16.895 -1.0183  0.1239  0.7988
13267TIP3   OH261215   1.288   0.597   3.683 -0.1889  0.0144  0.0775
13267TIP3    H161216   1.297   0.583   3.588  1.1761  1.4462 -0.0281
13267TIP3    H261217   1.354   0.541   3.722 -1.5365 -1.4668  0.2702
13268TIP3   OH261218   5.361   1.024  17.105 -0.0709 -0.3810 -0.0426
13268TIP3    H161219   5.397   0.953  17.051  0.3448 -0.5988  0.5252
13268TIP3    H261220   5.281   1.049  17.059  0.0273 -0.8927 -0.5078
13269TIP3   OH261221   6.446   2.828   0.122  0.9491  0.2480  0.0802
13269TIP3    H161222   6.405   2.760   0.175  1.0629  1.6231  2.0116
13269TIP3    H261223   6.373   2.886   0.098  1.1158  0.3756 -0.1148
13270TIP3   OH261224   0.000   2.286  12.054  0.5269  0.1776  0.8025
13270TIP3    H161225  -0.084   2.287  12.100  0.3202 -2.4835  0.5989
13270TIP3    H261226   0.066   2.293  12.124  0.1542 -0.7303  1.2635
13271TIP3   OH261227   1.357   0.117  16.959  0.2484 -0.1847  0.5582
13271TIP3    H161228   1.438   0.166  16.948  0.1183 -0.2466 -0.6921
13271TIP3    H261229   1.341   0.076  16.874 -0.2494 -1.4757  1.2595
13272TIP3   OH261230   1.663   3.845   3.258 -0.3258 -0.5865  0.1552
13272TIP3    H161231   1.641   3.937   3.243 -2.0289 -0.8285  1.0231
13272TIP3    H261232   1.619   3.798   3.188  1.3325 -0.6775 -0.8515
13273TIP3   OH261233   6.536   5.069   4.024 -0.1093 -0.0176 -0.0361
13273TIP3    H161234   6.511   4.996   3.967  1.2535 -1.1666  0.7918
13273TIP3    H261235   6.614   5.106   3.981 -0.4593  0.5833 -0.1496
13274TIP3   OH261236   3.621   2.013   0.034 -0.2659 -0.6074 -0.0140
13274TIP3    H161237   3.538   2.002  -0.012  0.3420 -1.5419 -0.9209
13274TIP3    H261238   3.622   1.944   0.100  0.1190 -1.0718 -0.5044
13275TIP3   OH261239   0.577   2.025  11.283 -0.3502 -0.0257 -0.2918
13275TIP3    H161240   0.516   1.956  11.258 -0.9693  0.5802 -0.4421
13275TIP3    H261241   0.577   2.086  11.210 -1.7452  1.4553  0.9155
13276TIP3   OH261242   1.501   5.144   6.148 -0.2678 -0.1127  0.4000
13276TIP3    H161243   1.556   5.223   6.147  1.6668 -1.4167 -0.1706
13276TIP3    H261244   1.557   5.077   6.187 -1.1680 -1.6944 -0.9809
13277TIP3   OH261245   1.694   1.444   3.857  0.4088 -0.3345 -0.0408
13277TIP3    H161246   1.626   1.511   3.855  1.3782  0.6106 -2.0809
13277TIP3    H261247   1.647   1.362   3.841 -0.1714  0.3979 -2.3001
13278TIP3   OH261248   3.839   6.159   4.763 -0.4621  0.4413 -0.3185
13278TIP3    H161249   3.790   6.144   4.682  0.3931 -0.1495 -0.7443
13278TIP3    H261250   3.805   6.093   4.823 -0.2066  0.0296 -0.6152
13279TIP3   OH261251   3.286   2.843  11.208  0.1792 -0.0347  0.0820
13279TIP3    H161252   3.230   2.783  11.256  0.8469 -0.4899  0.2915
13279TIP3    H261253   3.244   2.929  11.219 -0.8502 -0.4828 -0.3463
13280TIP3   OH261254   4.792   5.339   0.715 -0.1201 -0.0995 -0.2579
13280TIP3    H161255   4.756   5.363   0.629  0.4934  2.0262  0.0492
13280TIP3    H261256   4.860   5.404   0.731  0.6432 -1.2546  1.2812
13281TIP3   OH261257   0.205   5.461  15.483  0.3276  0.3843  0.6009
13281TIP3    H161258   0.161   5.542  15.458  0.1795  0.8542  2.2930
13281TIP3    H261259   0.140   5.392  15.471 -0.2958  0.8347  1.3800
13282TIP3   OH261260   3.224   1.728   2.537  0.1564 -0.0856  0.9286
13282TIP3    H161261   3.297   1.686   2.493 -0.1307  2.0331 -1.7143
13282TIP3    H261262   3.150   1.670   2.522  0.1183  0.4784 -1.2943
13283TIP3   OH261263   3.416   5.350   5.756 -0.5846 -0.1778  0.6392
13283TIP3    H161264   3.416   5.273   5.698 -0.7527 -1.2262  1.9894
13283TIP3    H261265   3.481   5.329   5.824  0.5162  1.5648  0.1561
13284TIP3   OH261266   3.415   5.942   3.962 -0.0967  0.5359  0.1149
13284TIP3    H161267   3.452   5.860   3.928 -2.9129  0.0826 -1.9872
13284TIP3    H261268   3.458   6.010   3.910  1.2407  0.3372  0.9317
13285TIP3   OH261269   3.806   2.183  14.961 -0.0519  0.9098  0.0919
13285TIP3    H161270   3.806   2.185  14.865 -1.3990  0.3770  0.0571
13285TIP3    H261271   3.863   2.255  14.987  0.9303  0.5847 -1.1098
13286TIP3   OH261272   1.193   0.489  12.307 -0.2565  0.3981 -0.0345
13286TIP3    H161273   1.238   0.415  12.267 -0.3032 -0.4033  1.3667
13286TIP3    H261274   1.250   0.517  12.379 -1.0949  0.5528  0.5878
13287TIP3   OH261275   5.188   4.778  15.925 -0.3343  0.2072 -0.1468
13287TIP3    H161276   5.172   4.685  15.940 -1.5172  0.4096 -0.1413
13287TIP3    H261277   5.198   4.786  15.830  3.2767 -0.4612  0.1139
13288TIP3   OH261278   4.427   5.291  12.055  0.0706  0.3922  0.2694
13288TIP3    H161279   4.443   5.376  12.015  1.2396 -0.1959 -0.5645
13288TIP3    H261280   4.509   5.271  12.101  0.3612 -0.9621 -0.8206
13289TIP3   OH261281   6.535   6.151   0.668  0.2283 -0.1463  0.0617
13289TIP3    H161282   6.493   6.065   0.662 -2.0347  1.0624 -3.1124
13289TIP3    H261283   6.598   6.153   0.596 -1.1241  1.5126 -1.1189
13290TIP3   OH261284   6.164   0.374   6.423  0.2718 -0.1805  0.2853
13290TIP3    H161285   6.144   0.281   6.434  0.2748 -0.0927  1.0565
13290TIP3    H261286   6.259   0.380   6.437  0.5025 -0.2568 -1.1176
13291TIP3   OH261287   6.322   5.919   3.529 -0.6472  0.1223 -0.6108
13291TIP3    H161288   6.238   5.957   3.557 -0.7561 -0.0250 -0.7347
13291TIP3    H261289   6.308   5.897   3.437 -0.6852 -0.5110 -0.4536
13292TIP3   OH261290   5.428   2.903  13.597 -0.5187 -0.3753 -0.2343
13292TIP3    H161291   5.385   2.823  13.568 -0.2674 -0.6545  0.1530
13292TIP3    H261292   5.480   2.931  13.521  1.2090 -1.8383  0.3508
13293TIP3   OH261293   3.746   3.498  13.407  0.0652 -0.1715 -0.2896
13293TIP3    H161294   3.695   3.578  13.395  1.4116  0.8880  0.8735
13293TIP3    H261295   3.691   3.443  13.462  0.1548  0.9352  0.9162
13294TIP3   OH261296   1.910   0.480  17.150 -0.5683 -0.5139 -0.4114
13294TIP3    H161297   1.840   0.431  17.106 -0.2311  0.5580 -2.1720
13294TIP3    H261298   1.870   0.565  17.171 -0.2194 -0.4141 -0.1465
13295TIP3   OH261299   6.232   0.302   5.544 -0.1051 -0.2302  0.7020
13295TIP3    H161300   6.286   0.304   5.623 -0.4712  2.7202  0.9387
13295TIP3    H261301   6.145   0.329   5.574 -0.7620 -1.0897 -0.3733
13296TIP3   OH261302   1.717   5.367  16.435 -0.2316  0.3683 -0.3438
13296TIP3    H161303   1.745   5.450  16.473  1.6875 -0.0329 -0.8478
13296TIP3    H261304   1.657   5.392  16.364 -0.3854  1.2745  0.1026
13297TIP3   OH261305   5.494   5.417   3.365  0.1208  0.1714 -0.1428
13297TIP3    H161306   5.441   5.478   3.416  2.6145  1.2372  1.2357
13297TIP3    H261307   5.441   5.338   3.359 -1.4267  1.0570  1.5734
13298TIP3   OH261308   1.196   4.499  11.380  0.6198  0.3007  0.0025
13298TIP3    H161309   1.277   4.473  11.336  1.0136  0.3431  0.7059
13298TIP3    H261310   1.218   4.501  11.473  0.0242  1.0769  0.1320
13299TIP3   OH261311   1.654   5.369  13.798  0.4218  0.0459 -0.5407
13299TIP3    H161312   1.565   5.336  13.811  0.4042  0.4358  0.3723
13299TIP3    H261313   1.656   5.452  13.845  1.6052 -0.5104  0.4198
13300TIP3   OH261314   0.963   4.251  14.428 -0.4073  0.3000 -0.4008
13300TIP3    H161315   0.907   4.183  14.465 -0.1639 -0.1021 -0.7650
13300TIP3    H261316   1.049   4.210  14.423  0.8638  2.1937  3.8853
13301TIP3   OH261317   5.005   6.106  15.517  0.1721 -0.3685  0.4257
13301TIP3    H161318   5.055   6.136  15.593 -1.3408  1.1319  0.8597
13301TIP3    H261319   4.923   6.074  15.553 -0.3971 -0.0206 -0.5353
13302TIP3   OH261320   4.346   3.550   6.596  0.3446  0.3778  0.3955
13302TIP3    H161321   4.377   3.559   6.686 -0.1486 -1.2027  0.7381
13302TIP3    H261322   4.413   3.497   6.553 -0.6643 -1.0451  0.5256
13303TIP3   OH261323   1.636   0.350  13.678 -0.0355  0.5534 -0.5693
13303TIP3    H161324   1.549   0.311  13.670 -0.1234  0.8533 -1.0758
13303TIP3    H261325   1.639   0.417  13.610  0.2352  1.2151  0.0882
13304TIP3   OH261326   3.296   1.745  15.985 -0.1511  0.0682 -0.5944
13304TIP3    H161327   3.358   1.785  16.046 -0.4897 -0.4569  0.1009
13304TIP3    H261328   3.304   1.797  15.905 -0.0016  1.0204  0.0316
13305TIP3   OH261329   6.315   4.930  11.243  0.5317 -0.4018  0.4853
13305TIP3    H161330   6.281   4.919  11.155  1.4371 -0.4106  0.1353
13305TIP3    H261331   6.304   4.844  11.284 -0.5972 -0.1885  0.6352
13306TIP3   OH261332   0.613   2.138  11.534 -0.2023 -0.4143 -0.1212
13306TIP3    H161333   0.591   2.071  11.598 -1.3333 -0.6008 -0.6889
13306TIP3    H261334   0.584   2.102  11.450  1.0344 -0.0670 -0.7011
13307TIP3   OH261335   0.492   5.130  10.818 -0.1586 -0.2553 -0.2509
13307TIP3    H161336   0.564   5.194  10.824 -0.8174  0.4701 -0.0136
13307TIP3    H261337   0.481   5.115  10.724  0.7684 -0.9000 -0.2608
13308TIP3   OH261338   4.256   5.614  12.647  0.2122 -0.6845  0.0524
13308TIP3    H161339   4.236   5.594  12.556  0.9283 -1.1419 -0.0084
13308TIP3    H261340   4.326   5.679  12.643 -0.7094  0.3173  0.2676
13309TIP3   OH261341   4.564   1.115  14.824  0.4376 -0.0551 -0.3426
13309TIP3    H161342   4.570   1.208  14.846  0.3696 -0.7329  2.8185
13309TIP3    H261343   4.655   1.087  14.813  0.4414  0.4560 -1.6102
13310TIP3   OH261344   1.280   4.528  12.028  0.2765 -0.5238 -0.2626
13310TIP3    H161345   1.364   4.552  11.989 -0.0339  0.6912 -0.2141
13310TIP3    H261346   1.290   4.546  12.122 -0.1078 -0.1600 -0.2875
13311TIP3   OH261347   5.987   2.226   5.933  0.2795  0.2192  0.0553
13311TIP3    H161348   6.029   2.147   5.968  1.0014  1.6679  2.6505
13311TIP3    H261349   5.906   2.234   5.983  0.2160  1.1193 -0.1862
13312TIP3   OH261350   6.642   2.681   3.849 -0.1226 -0.1514 -0.3117
13312TIP3    H161351   6.733   2.666   3.823 -0.0366 -1.4676  0.6919
13312TIP3    H261352   6.594   2.605   3.816 -0.2848 -1.0480  1.9344
13313TIP3   OH261353   3.503   2.242   1.435  0.2686  0.4961 -0.2945
13313TIP3    H161354   3.490   2.334   1.414 -1.0923  0.0462 -1.4950
13313TIP3    H261355   3.571   2.212   1.375  0.8335  0.7485  0.2117
13314TIP3   OH261356   0.419   0.665  12.470  0.1796  0.2746 -0.8794
13314TIP3    H161357   0.366   0.736  12.507  1.9213  0.9277  0.4398
13314TIP3    H261358   0.415   0.596  12.536 -0.4396 -0.3596 -1.5726
13315TIP3   OH261359   6.302   5.256   0.787  0.1721  0.3155 -0.0241
13315TIP3    H161360   6.322   5.194   0.857  2.1053  0.6518 -0.2537
13315TIP3    H261361   6.217   5.293   0.812  1.7767  2.0172  3.3392
13316TIP3   OH261362   4.092   4.478  10.900 -0.3013  0.7315  0.3479
13316TIP3    H161363   4.049   4.430  10.972  1.5025  0.9329  1.5918
13316TIP3    H261364   4.127   4.409  10.844  1.6031  0.5203  1.7206
13317TIP3   OH261365   5.477   0.018  16.427 -0.4049  0.0076 -0.1762
13317TIP3    H161366   5.513  -0.048  16.487 -1.3169 -1.2141 -0.9384
13317TIP3    H261367   5.549   0.080  16.414  1.3605 -2.2182 -1.4468
13318TIP3   OH261368   1.283   3.630   1.254  0.1369  0.3232 -0.2519
13318TIP3    H161369   1.323   3.611   1.169 -0.4129  0.6722 -0.5928
13318TIP3    H261370   1.308   3.721   1.273 -0.0092  0.3538 -0.1989
13319TIP3   OH261371   5.927   4.154   5.664  0.3798 -0.4811  0.8287
13319TIP3    H161372   5.976   4.187   5.589 -0.9823 -0.6188 -0.1513
13319TIP3    H261373   5.918   4.230   5.722  1.1587 -0.2903  0.6935
13320TIP3   OH261374   6.399   6.384  15.593  0.3786  0.1995 -0.4499
13320TIP3    H161375   6.326   6.425  15.546  0.1268  1.1965  0.7675
13320TIP3    H261376   6.460   6.456  15.609  0.1799  0.0200  1.2523
13321TIP3   OH261377   1.831   5.069   1.632 -0.3942 -0.0290  0.5459
13321TIP3    H161378   1.823   5.106   1.720 -0.0201 -0.0005  0.5696
13321TIP3    H261379   1.909   5.110   1.596  0.4488 -1.3402  0.8459
13322TIP3   OH261380   1.349   1.051  11.589 -0.5964 -0.2373 -0.3480
13322TIP3    H161381   1.288   1.028  11.520 -1.7633  0.0418  0.5825
13322TIP3    H261382   1.329   1.142  11.610 -1.1834 -0.7260  1.2952
13323TIP3   OH261383   2.210   2.537  11.388 -0.0719 -0.7517 -0.1636
13323TIP3    H161384   2.206   2.546  11.293 -0.0274 -0.2366 -0.1184
13323TIP3    H261385   2.303   2.536  11.408 -0.0500  2.1031  0.1288
13324TIP3   OH261386   5.081   3.008   2.950  0.1993 -0.0625 -0.0649
13324TIP3    H161387   5.042   2.997   3.036  0.5002 -0.7957 -0.0140
13324TIP3    H261388   5.076   3.102   2.932 -2.3032 -0.2463 -0.3982
13325TIP3   OH261389   1.281   3.798   4.529  0.7506  0.0877 -0.5575
13325TIP3    H161390   1.336   3.744   4.473  0.9047  2.0086 -2.3109
13325TIP3    H261391   1.248   3.867   4.472 -1.1562  0.6455  1.1314
13326TIP3   OH261392   1.804   1.197  12.962 -0.1481 -0.1689  0.0606
13326TIP3    H161393   1.869   1.262  12.936 -1.7071  0.2167 -3.1286
13326TIP3    H261394   1.728   1.250  12.989 -1.6510 -0.5345 -3.1473
13327TIP3   OH261395   3.941   3.099   6.710  0.1505 -0.4485  0.2614
13327TIP3    H161396   3.868   3.151   6.744  0.0194 -0.0948 -0.5319
13327TIP3    H261397   3.899   3.033   6.654  0.3096 -1.4871  1.3618
13328TIP3   OH261398   4.007   6.379   1.807  0.5193 -0.4647 -0.0735
13328TIP3    H161399   3.976   6.385   1.898  2.9316 -0.9315  0.8094
13328TIP3    H261400   3.927   6.376   1.755 -0.9114 -0.4606  2.0579
13329TIP3   OH261401   5.415   6.537  14.630 -0.2768 -0.1953  0.3091
13329TIP3    H161402   5.352   6.500  14.569  0.2149 -0.0920 -0.2662
13329TIP3    H261403   5.416   6.630  14.610 -1.9011  0.2271  2.1146
13330TIP3   OH261404   0.922   0.731  11.887  0.1042  0.6867  0.3751
13330TIP3    H161405   0.844   0.780  11.861  0.6550  0.4157 -1.9096
13330TIP3    H261406   0.985   0.799  11.912 -0.3254  0.9697  0.7109
13331TIP3   OH261407   3.092   4.946   2.747 -0.2345 -0.5647 -0.0923
13331TIP3    H161408   3.000   4.924   2.762 -0.3473  0.8901  1.4685
13331TIP3    H261409   3.141   4.868   2.772 -0.8580 -0.3289  1.8822
13332TIP3   OH261410   0.587   1.925   4.990 -0.2312 -0.3107  0.2340
13332TIP3    H161411   0.513   1.886   5.038 -1.0666  0.4308 -0.4297
13332TIP3    H261412   0.548   1.997   4.941  0.7790 -0.4796 -0.8421
13333TIP3   OH261413   4.761   1.719  14.444  0.0983  0.4034 -0.0378
13333TIP3    H161414   4.757   1.653  14.374 -0.9131  1.1713 -0.7083
13333TIP3    H261415   4.698   1.786  14.418  0.0825  0.9457  1.3683
13334TIP3   OH261416   0.543   4.346   3.620  0.1328  0.0724  0.1012
13334TIP3    H161417   0.504   4.259   3.636  2.6017 -0.3580  4.8416
13334TIP3    H261418   0.625   4.327   3.575  0.0580  0.0656 -0.0327
13335TIP3   OH261419   3.172   4.314   6.144  0.0909 -0.9481  0.6965
13335TIP3    H161420   3.212   4.353   6.222  0.4723  0.7574 -0.3477
13335TIP3    H261421   3.126   4.237   6.178  1.7473 -1.2455  2.3407
13336TIP3   OH261422   3.235   4.661   6.523  0.0231  0.0060  0.2347
13336TIP3    H161423   3.230   4.565   6.514 -1.1181  0.0049  0.7879
13336TIP3    H261424   3.311   4.686   6.470 -0.4885 -1.0693 -1.0474
13337TIP3   OH261425   6.209   4.982   2.263 -0.0614 -0.0124  0.0515
13337TIP3    H161426   6.302   4.975   2.243  0.0904  1.0116  0.3292
13337TIP3    H261427   6.182   5.066   2.225 -0.5348  0.3754  1.1934
13338TIP3   OH261428   1.792   6.008   1.587  0.9866 -0.2282 -0.7826
13338TIP3    H161429   1.793   6.070   1.514  0.9678 -1.1554 -1.5795
13338TIP3    H261430   1.741   5.934   1.554  0.1420 -0.2417  0.5142
13339TIP3   OH261431   3.427   0.379  13.779  0.1927  0.4597 -0.1752
13339TIP3    H161432   3.497   0.420  13.830  0.5343 -0.5053  0.1408
13339TIP3    H261433   3.348   0.393  13.830 -0.1428  2.9794 -1.3087
13340TIP3   OH261434   2.228   0.443  13.182 -0.1108  0.3230 -0.3045
13340TIP3    H161435   2.144   0.399  13.177 -0.9869  1.9510 -0.4565
13340TIP3    H261436   2.214   0.515  13.244  1.2212  0.5053 -0.1893
13341TIP3   OH261437   4.178   5.329   5.190 -0.5746 -0.1491 -0.2080
13341TIP3    H161438   4.117   5.296   5.124 -0.4503 -0.3520 -0.2218
13341TIP3    H261439   4.122   5.365   5.259 -0.7202 -1.1984  0.2222
13342TIP3   OH261440   0.982   2.308  12.053  0.4561 -0.4964 -0.0298
13342TIP3    H161441   0.893   2.310  12.088  0.5947  1.0402  0.3034
13342TIP3    H261442   1.035   2.272  12.123  0.6990  2.3850  1.3568
13343TIP3   OH261443   5.814   5.010   0.144  0.1835  0.2634 -0.1836
13343TIP3    H161444   5.815   4.922   0.182  0.0256  0.9502  1.4720
13343TIP3    H261445   5.730   5.047   0.171  0.5747  1.1956 -0.2218
13344TIP3   OH261446   3.424   1.300   0.601  0.2481  0.1813  0.0005
13344TIP3    H161447   3.422   1.240   0.527  1.7198 -0.2984  0.3442
13344TIP3    H261448   3.469   1.378   0.567 -0.7498  0.7123 -0.1440
13345TIP3   OH261449   6.688   3.195  16.045 -0.0883 -0.6091 -0.3212
13345TIP3    H161450   6.736   3.261  16.094 -0.3218 -0.5097 -0.2254
13345TIP3    H261451   6.622   3.162  16.106  0.7862 -1.7807  0.0206
13346TIP3   OH261452   4.598   6.389   5.434  0.3270 -0.3088  0.2948
13346TIP3    H161453   4.523   6.329   5.428 -0.1647  0.1036  2.2167
13346TIP3    H261454   4.561   6.471   5.466  1.3721  0.3489 -0.1506
13347TIP3   OH261455   4.879   6.046  10.541  0.3175  0.1150 -0.0307
13347TIP3    H161456   4.910   5.972  10.489  0.0045 -0.2263  0.2674
13347TIP3    H261457   4.931   6.042  10.622  0.7500  0.5997 -0.2805
13348TIP3   OH261458   4.353   3.104   5.389  0.1450 -0.5852  0.2539
13348TIP3    H161459   4.302   3.182   5.414  1.5400 -0.4260  2.7588
13348TIP3    H261460   4.337   3.042   5.460  1.9598 -1.1981  0.1406
13349TIP3   OH261461   0.361   6.534  13.343 -0.2214  0.2788 -0.2852
13349TIP3    H161462   0.430   6.520  13.408 -2.7978  0.6698  2.6282
13349TIP3    H261463   0.327   6.447  13.324  1.3137  0.0342 -2.0756
13350TIP3   OH261464   1.113   0.398   3.957 -0.0716 -0.2217 -0.2729
13350TIP3    H161465   1.177   0.461   3.991 -0.4761 -0.1892  0.4320
13350TIP3    H261466   1.130   0.318   4.006 -1.9590  0.3926  1.4253
13351TIP3   OH261467   2.041   0.925  16.585  0.4931 -0.0680 -0.3488
13351TIP3    H161468   2.051   1.020  16.580 -0.9141  0.1049 -0.0214
13351TIP3    H261469   2.127   0.893  16.613  0.5315  1.2479  1.1152
13352TIP3   OH261470   0.518   6.265  11.955  0.4970  0.0182 -0.4698
13352TIP3    H161471   0.495   6.339  11.900  2.0104 -1.1647 -2.7484
13352TIP3    H261472   0.605   6.285  11.989 -0.0044  0.2712  0.7141
13353TIP3   OH261473   2.357   0.765   4.536 -0.4050  0.0443 -0.1696
13353TIP3    H161474   2.263   0.779   4.522 -0.3761  0.8523  0.4067
13353TIP3    H261475   2.361   0.688   4.592 -0.7014 -0.3121 -0.6322
13354TIP3   OH261476   2.751   4.850  13.978 -0.1541 -0.1785  0.6606
13354TIP3    H161477   2.789   4.876  13.895 -0.7496 -0.4225  0.3126
13354TIP3    H261478   2.771   4.923  14.038 -3.0708  1.8160 -0.6635
13355TIP3   OH261479   0.213   0.946  16.837 -0.0918 -0.6598  0.4952
13355TIP3    H161480   0.155   0.947  16.761 -0.5163 -2.8820  0.7441
13355TIP3    H261481   0.300   0.930  16.801 -0.0955 -0.4405  0.3828
13356TIP3   OH261482   3.513   3.845  12.040  0.1824  0.4817 -0.1275
13356TIP3    H161483   3.490   3.755  12.063 -1.0019  0.5275 -1.0875
13356TIP3    H261484   3.559   3.838  11.956 -0.2547  0.7940 -0.3998
13357TIP3   OH261485   1.380   0.778  12.772 -0.0378  0.7848  0.8879
13357TIP3    H161486   1.378   0.846  12.704 -0.6063 -0.7685 -0.7085
13357TIP3    H261487   1.295   0.786  12.817 -0.8953 -0.0465 -0.5306
13358TIP3   OH261488   0.617   4.698   1.986 -0.2670  0.5189 -0.2084
13358TIP3    H161489   0.588   4.624   2.039  0.1989  0.6096  0.1797
13358TIP3    H261490   0.667   4.659   1.915 -0.5515  0.4218 -0.3553
13359TIP3   OH261491   3.985   2.687   0.488 -0.4736 -0.1046  0.1979
13359TIP3    H161492   4.012   2.726   0.572 -0.9230  1.0424 -0.1860
13359TIP3    H261493   3.896   2.654   0.504 -0.1014 -0.9809  0.5161
13360TIP3   OH261494   3.247   2.805   4.713 -0.3637 -0.1082  0.3117
13360TIP3    H161495   3.287   2.825   4.798 -0.8363  3.2002 -0.1685
13360TIP3    H261496   3.317   2.823   4.649 -0.7185 -0.3520 -0.1473
13361TIP3   OH261497   5.597   5.430   1.711 -0.1085 -0.0169 -0.5637
13361TIP3    H161498   5.613   5.504   1.651 -0.2958  1.4839  1.1885
13361TIP3    H261499   5.549   5.469   1.784  0.2255 -1.8005  0.6366
13362TIP3   OH261500   5.318   5.465  10.333  0.6045 -0.2665  0.3814
13362TIP3    H161501   5.318   5.478  10.238  1.2665  1.9056  0.6518
13362TIP3    H261502   5.385   5.525  10.365 -0.4917 -0.0566  2.3432
13363TIP3   OH261503   2.421   5.144   5.893 -0.0871 -0.1504 -0.6347
13363TIP3    H161504   2.517   5.137   5.894 -0.1827 -2.3897  2.1338
13363TIP3    H261505   2.394   5.085   5.823  0.5230 -0.8900 -0.2639
13364TIP3   OH261506   0.447   1.654  12.614  0.0254  0.7237  0.0936
13364TIP3    H161507   0.366   1.613  12.585  1.1893 -1.1934 -0.5971
13364TIP3    H261508   0.515   1.615  12.558  1.5001  1.7322  1.1371
13365TIP3   OH261509   3.876   5.027  17.101 -0.3160  0.1768 -0.7007
13365TIP3    H161510   3.934   5.092  17.062 -0.5752  0.9239  0.1527
13365TIP3    H261511   3.835   5.072  17.174 -0.9915 -0.7503 -0.4998
13366TIP3   OH261512   4.860   4.168  12.494 -0.2332  0.1052 -0.9305
13366TIP3    H161513   4.785   4.112  12.511 -0.0788  0.6006  1.4638
13366TIP3    H261514   4.936   4.111  12.504 -0.0813  0.6832  1.4044
13367TIP3   OH261515   5.609   3.991  13.379 -0.0821 -0.8862  0.3505
13367TIP3    H161516   5.641   3.935  13.450 -1.9254  1.6870  3.3427
13367TIP3    H261517   5.519   3.961  13.364 -0.5276  0.1971  0.8386
13368TIP3   OH261518   4.353   6.176  14.173  0.5516 -0.2873  0.4545
13368TIP3    H161519   4.341   6.084  14.195  0.8104 -0.4301 -0.0020
13368TIP3    H261520   4.350   6.179  14.078  0.6310  0.1668  0.4628
13369TIP3   OH261521   5.059   1.603  13.646  0.4016 -0.2414 -0.1378
13369TIP3    H161522   5.033   1.520  13.605  0.9618 -0.6450  0.3080
13369TIP3    H261523   4.990   1.621  13.710 -0.4940  0.4120 -1.2867
13370TIP3   OH261524   5.074   2.428   5.652  0.5470 -0.1704  0.0572
13370TIP3    H161525   5.010   2.446   5.721  0.6842 -1.2845  0.4804
13370TIP3    H261526   5.082   2.511   5.605  0.2665  0.5236  1.2266
13371TIP3   OH261527   5.479   1.739  13.819 -0.0937 -0.0253  0.2278
13371TIP3    H161528   5.509   1.791  13.744  0.5990 -0.7257  0.0157
13371TIP3    H261529   5.475   1.802  13.891 -0.4143  0.5809 -0.3082
13372TIP3   OH261530   3.971   0.467  13.091 -0.1853 -0.0867  0.0126
13372TIP3    H161531   3.883   0.437  13.113  0.4991 -0.0869  3.0809
13372TIP3    H261532   3.961   0.561  13.074 -1.1796 -0.5985 -2.4273
13373TIP3   OH261533   1.201   3.252  15.253  0.0205 -0.2746  0.1943
13373TIP3    H161534   1.246   3.169  15.234  1.3611  0.7307 -1.1585
13373TIP3    H261535   1.243   3.284  15.333 -0.7417 -1.0683  0.9141
13374TIP3   OH261536   0.035   0.507  16.327  0.0528 -0.0879  0.5136
13374TIP3    H161537   0.018   0.419  16.359 -1.8856 -0.6204 -1.8451
13374TIP3    H261538   0.010   0.564  16.400 -1.4902 -1.3875  1.0338
13375TIP3   OH261539   0.753   6.371   4.028  0.0780  0.0367 -0.3182
13375TIP3    H161540   0.711   6.362   3.943 -1.4362  0.1124  0.4051
13375TIP3    H261541   0.705   6.441   4.072  1.1157  0.2952  0.4445
13376TIP3   OH261542   4.225   0.182   4.584  0.0481  0.1394  0.0417
13376TIP3    H161543   4.189   0.229   4.509 -0.6444 -0.2904  0.0948
13376TIP3    H261544   4.214   0.089   4.561  3.8874 -0.0964 -1.3043
13377TIP3   OH261545   4.239   5.860   0.234  0.7881  0.3211 -0.0141
13377TIP3    H161546   4.254   5.953   0.252 -0.0117  0.4107  0.2357
13377TIP3    H261547   4.320   5.817   0.261  0.1193  0.6262  2.6092
13378TIP3   OH261548   0.007   2.640  12.494  0.2075 -0.0306  0.3243
13378TIP3    H161549   0.043   2.660  12.580  1.5856 -1.0214  0.0013
13378TIP3    H261550   0.009   2.544  12.490 -2.0093 -0.0879  0.0933
13379TIP3   OH261551   1.637   6.383   3.731 -0.2897 -0.0274  0.5159
13379TIP3    H161552   1.657   6.370   3.638  0.7402 -0.7769  0.8323
13379TIP3    H261553   1.593   6.468   3.734  0.6174  0.4997 -0.5346
13380TIP3   OH261554   0.169   4.404   4.159  0.6585 -0.2884 -0.3656
13380TIP3    H161555   0.220   4.461   4.216 -0.6395  0.3533  0.1678
13380TIP3    H261556   0.120   4.348   4.220 -0.3825  0.0899 -0.8633
13381TIP3   OH261557   2.842   2.212   0.994  0.6931  0.1890 -0.4299
13381TIP3    H161558   2.756   2.175   0.973  0.1403  0.4544  1.2640
13381TIP3    H261559   2.825   2.304   1.011  1.1532  0.0744  0.7389
13382TIP3   OH261560   5.501   4.302  13.450 -0.2174 -0.1931 -0.7581
13382TIP3    H161561   5.476   4.392  13.468 -1.3028 -0.1621 -2.3406
13382TIP3    H261562   5.555   4.307  13.371  0.9362 -0.7820 -0.0278
13383TIP3   OH261563   0.732   3.593   2.778  0.6500 -0.0217  0.1968
13383TIP3    H161564   0.685   3.527   2.728  3.9541 -1.2111 -1.4799
13383TIP3    H261565   0.740   3.556   2.866  1.1964 -1.2200 -0.3505
13384TIP3   OH261566   5.050   5.461   0.684 -0.4305  0.0506 -0.0860
13384TIP3    H161567   5.128   5.416   0.651 -0.6524  0.4486 -1.1613
13384TIP3    H261568   5.081   5.548   0.708 -0.2766 -0.2269  0.7557
13385TIP3   OH261569   0.507   3.908  11.822  0.4785  0.3947  0.5115
13385TIP3    H161570   0.564   3.915  11.746 -1.6553  1.0885 -1.0469
13385TIP3    H261571   0.536   3.978  11.880  0.4399  1.5021 -0.7964
13386TIP3   OH261572   3.213   4.787   4.894 -0.2913  0.5007  0.0433
13386TIP3    H161573   3.120   4.769   4.902 -0.2222 -0.3196 -0.8777
13386TIP3    H261574   3.221   4.881   4.910 -1.4129  0.7840 -0.9811
13387TIP3   OH261575   2.745   5.185   1.830 -0.0864  0.8103 -0.4182
13387TIP3    H161576   2.695   5.175   1.749  0.1329 -0.1928 -0.4333
13387TIP3    H261577   2.758   5.280   1.839 -2.3245  1.1199 -0.2055
13388TIP3   OH261578   1.106   4.362  13.507 -0.1929 -0.4482  0.5683
13388TIP3    H161579   1.150   4.400  13.583  0.3297 -0.0317  0.0536
13388TIP3    H261580   1.069   4.280  13.540 -1.0578  0.3398  1.5931
13389TIP3   OH261581   3.618   1.169  16.633 -0.3113  0.7518 -0.0166
13389TIP3    H161582   3.551   1.105  16.655  3.4191 -3.3798  0.0024
13389TIP3    H261583   3.613   1.177  16.538 -0.0626 -0.4474 -0.1351
13390TIP3   OH261584   4.413   4.678   5.179 -0.5194 -0.1384  0.1320
13390TIP3    H161585   4.388   4.586   5.187 -1.0542  0.0490  0.6942
13390TIP3    H261586   4.404   4.713   5.267 -1.6151  0.7710 -0.3268
13391TIP3   OH261587   1.149   1.434  16.018 -0.7083 -0.9356  0.0257
13391TIP3    H161588   1.183   1.523  16.027 -1.2808 -0.6428 -0.6653
13391TIP3    H261589   1.215   1.388  15.966 -1.4428 -0.3112 -1.4941
13392TIP3   OH261590   4.303   1.392  14.983 -0.8373 -0.1300  0.4560
13392TIP3    H161591   4.272   1.379  14.894  0.1810 -0.6221  0.1683
13392TIP3    H261592   4.291   1.485  15.000 -0.7767  0.0103 -0.2844
13393TIP3   OH261593   5.825   4.214  13.626 -0.5046 -0.1782 -1.0351
13393TIP3    H161594   5.780   4.264  13.695  1.0637 -1.4467  0.9303
13393TIP3    H261595   5.792   4.253  13.545 -1.9987  1.7003  0.3980
13394TIP3   OH261596   5.370   3.394   4.049 -0.0766  0.2077  0.2563
13394TIP3    H161597   5.412   3.349   4.122 -1.8958 -1.0612  0.5431
13394TIP3    H261598   5.298   3.443   4.089  0.0074  0.9194 -0.4559
13395TIP3   OH261599   1.537   2.781  10.294 -0.3291 -0.4249 -0.2343
13395TIP3    H161600   1.594   2.754  10.366 -1.7101  1.3662  1.5831
13395TIP3    H261601   1.457   2.730  10.307 -1.7176  2.0676  1.3060
13396TIP3   OH261602   6.194   0.163   3.465 -0.1898 -0.1885 -0.1387
13396TIP3    H161603   6.240   0.196   3.543  0.6922 -0.1577 -0.6671
13396TIP3    H261604   6.215   0.070   3.463 -0.9440 -0.3703  0.1537
13397TIP3   OH261605   1.514   5.547   2.313  0.1012  0.4391 -0.1427
13397TIP3    H161606   1.531   5.503   2.229 -0.1822  0.4183 -0.1881
13397TIP3    H261607   1.478   5.632   2.289 -3.1391 -0.8303 -0.0160
13398TIP3   OH261608   2.055   4.268   6.621  0.7004  0.2379 -0.4202
13398TIP3    H161609   2.036   4.288   6.713  0.3734  0.4807 -0.5377
13398TIP3    H261610   2.149   4.279   6.613  0.6420  0.8850 -0.2740
13399TIP3   OH261611   0.320   5.861   1.541  0.1864 -0.0339  0.6113
13399TIP3    H161612   0.314   5.792   1.606 -2.0624  0.2317  0.7325
13399TIP3    H261613   0.268   5.829   1.467  2.0869 -0.0068 -0.7797
13400TIP3   OH261614   3.354   5.463   0.386  0.2603 -0.0748 -0.5794
13400TIP3    H161615   3.380   5.492   0.473 -0.2009 -0.1143 -0.4250
13400TIP3    H261616   3.407   5.514   0.326  0.2886  0.2447 -0.2815
13401TIP3   OH261617   1.147   0.460  12.731 -0.2012 -0.2404  0.2111
13401TIP3    H161618   1.085   0.404  12.683  1.9305 -3.9722  1.6104
13401TIP3    H261619   1.225   0.462  12.676  0.4454 -0.3262  1.1152
13402TIP3   OH261620   2.103   3.939   4.861 -0.1554  0.3379  0.0341
13402TIP3    H161621   2.141   3.905   4.780  0.2675  0.6597  0.0942
13402TIP3    H261622   2.116   4.034   4.856  1.6327  0.1944  1.3595
13403TIP3   OH261623   0.290   0.866   3.032 -0.3174  0.1348 -0.2660
13403TIP3    H161624   0.296   0.845   3.125  0.5558  0.3009 -0.2823
13403TIP3    H261625   0.281   0.961   3.029 -0.5029  0.1149 -0.3450
13404TIP3   OH261626   5.070   2.328  13.481 -0.2441  0.1159  0.1842
13404TIP3    H161627   5.115   2.283  13.552  0.0427 -0.2810 -0.2525
13404TIP3    H261628   5.078   2.270  13.406  1.3194  1.4697 -0.7534
13405TIP3   OH261629   0.721   2.801  12.236 -0.1632  0.1856  0.0007
13405TIP3    H161630   0.747   2.890  12.257  1.0087 -0.0714 -0.3020
13405TIP3    H261631   0.712   2.801  12.140  1.9480 -0.5405 -0.2310
13406TIP3   OH261632   4.177   5.445  14.986  0.3385 -0.3979 -0.2309
13406TIP3    H161633   4.177   5.381  14.915  1.0852 -0.3170 -0.3118
13406TIP3    H261634   4.204   5.527  14.945  0.9183 -0.3825  0.1699
13407TIP3   OH261635   1.123   5.933  16.243  0.7236 -0.0372 -0.4090
13407TIP3    H161636   1.110   5.851  16.196  1.3739 -0.8028  0.7003
13407TIP3    H261637   1.047   5.939  16.302  0.4537  0.3791 -0.7974
13408TIP3   OH261638   6.488   2.147  16.484 -0.2259 -0.0677 -0.4435
13408TIP3    H161639   6.397   2.119  16.492 -0.3934  0.9836  1.3938
13408TIP3    H261640   6.484   2.239  16.459  0.3536 -0.3958 -1.8420
13409TIP3   OH261641   4.356   0.186  11.714 -0.0665 -0.4450  0.2333
13409TIP3    H161642   4.281   0.168  11.771  0.2901  0.4291  0.9958
13409TIP3    H261643   4.413   0.109  11.725  0.4140  0.1044  1.7590
13410TIP3   OH261644   2.444   3.781  13.207 -0.3945  0.2389 -0.0412
13410TIP3    H161645   2.526   3.829  13.209 -0.6451  0.6549  0.6582
13410TIP3    H261646   2.463   3.702  13.158  0.3143  0.5279 -0.2357
13411TIP3   OH261647   2.193   1.411   0.511 -0.2317  0.5326 -0.1465
13411TIP3    H161648   2.267   1.427   0.570  0.5760 -0.4893 -0.8772
13411TIP3    H261649   2.232   1.403   0.424 -1.0687 -1.1884 -0.3712
13412TIP3   OH261650   4.123   0.999   4.468  0.1309  0.2305 -0.2121
13412TIP3    H161651   4.202   1.039   4.432  0.2041  1.4296  1.2105
13412TIP3    H261652   4.051   1.034   4.416  0.2191  2.0875  0.8672
13413TIP3   OH261653   4.141   5.395   3.567 -0.5073  0.0116  0.0791
13413TIP3    H161654   4.208   5.463   3.581 -2.3342  2.0700 -0.8086
13413TIP3    H261655   4.092   5.426   3.490 -2.3767 -1.5298  0.6300
13414TIP3   OH261656   1.182   1.861   5.473 -0.2696  0.0531  0.5277
13414TIP3    H161657   1.132   1.779   5.479  0.4865 -0.4606 -0.0946
13414TIP3    H261658   1.193   1.888   5.564  1.1425 -1.5695  0.8646
13415TIP3   OH261659   5.186   6.610   3.309  0.5491  0.1023 -0.1715
13415TIP3    H161660   5.249   6.628   3.240 -0.3310 -1.5803 -1.4646
13415TIP3    H261661   5.238   6.574   3.381  1.1148 -0.8625 -1.0549
13416TIP3   OH261662   6.108   2.333  12.657 -0.2421 -0.0391  0.4092
13416TIP3    H161663   6.177   2.398  12.646 -0.5513 -0.2210 -3.2584
13416TIP3    H261664   6.143   2.270  12.719  1.9426  1.1102  0.3664
13417TIP3   OH261665   3.663   6.265  10.444  0.1558  0.2286 -0.1905
13417TIP3    H161666   3.707   6.328  10.387  0.4604  1.3043  1.2010
13417TIP3    H261667   3.589   6.312  10.481  1.5834  0.5298  2.5096
13418TIP3   OH261668   6.422   2.267   5.784  0.3546 -0.1183 -0.2055
13418TIP3    H161669   6.381   2.263   5.871  1.7048  1.1289  0.4998
13418TIP3    H261670   6.432   2.360   5.767  0.6777 -0.3794 -1.4307
13419TIP3   OH261671   6.760   0.212  16.138 -0.2316 -0.3909 -0.0750
13419TIP3    H161672   6.705   0.134  16.143 -0.4788 -0.1935  0.2730
13419TIP3    H261673   6.779   0.234  16.229 -1.8681  1.1627 -0.0890
13420TIP3   OH261674   4.625   3.451   1.354 -0.1510 -0.3352 -0.4266
13420TIP3    H161675   4.553   3.476   1.296  1.8279  1.5328 -2.1813
13420TIP3    H261676   4.675   3.532   1.367  0.7472 -1.2199  2.0709
13421TIP3   OH261677   0.785   2.866   5.073 -0.9804 -0.0313 -0.2032
13421TIP3    H161678   0.727   2.880   4.998  0.8785 -0.8120 -1.8481
13421TIP3    H261679   0.810   2.774   5.067  0.7830  0.3965  0.1748
13422TIP3   OH261680   0.413   4.777  12.010 -0.2424  0.3910  0.3121
13422TIP3    H161681   0.484   4.839  12.023  0.8468 -1.0764  1.5544
13422TIP3    H261682   0.436   4.731  11.929  0.2953 -0.1526  0.7670
13423TIP3   OH261683   3.496   5.792  16.205  0.4426  0.0905  0.1903
13423TIP3    H161684   3.556   5.861  16.232 -0.2515  0.7036  0.1934
13423TIP3    H261685   3.461   5.823  16.121 -1.2227  0.6082  1.0536
13424TIP3   OH261686   3.686   1.954  14.639  0.3076 -0.0869  0.3801
13424TIP3    H161687   3.722   1.946  14.727  1.6500 -0.4145 -0.1844
13424TIP3    H261688   3.626   1.880  14.631  0.6581 -0.4226  0.8022
13425TIP3   OH261689   6.032   6.155   3.848  0.1330  0.1799 -0.3616
13425TIP3    H161690   6.098   6.209   3.891  0.7091 -1.5741  1.0242
13425TIP3    H261691   6.040   6.175   3.755  0.0156  2.8002  0.1673
13426TIP3   OH261692   1.486   3.417  11.978  0.0191 -0.0038  0.3289
13426TIP3    H161693   1.408   3.362  11.986  0.0799  0.2668  3.6768
13426TIP3    H261694   1.559   3.356  11.981  0.0217  0.0464  1.4870
13427TIP3   OH261695   0.455   0.646  11.203 -0.1554  0.6946  0.8446
13427TIP3    H161696   0.400   0.705  11.152  0.0905  0.0588 -0.1478
13427TIP3    H261697   0.545   0.676  11.185 -0.0895  0.7287  1.2252
13428TIP3   OH261698   4.658   5.542  12.982 -0.2085  0.4580  0.6116
13428TIP3    H161699   4.634   5.578  12.897 -0.7090 -0.3136  0.4266
13428TIP3    H261700   4.640   5.448  12.975  0.4570  0.2724  1.3145
13429TIP3   OH261701   2.162   2.122   6.652  0.3779  0.2699  0.2438
13429TIP3    H161702   2.156   2.064   6.576  1.0684 -0.2763  0.5959
13429TIP3    H261703   2.082   2.175   6.648  1.2974  1.5498 -1.8967
13430TIP3   OH261704   2.750   3.628  10.936  0.9373  0.3341  0.4254
13430TIP3    H161705   2.723   3.714  10.901 -0.3175 -0.0139  0.5026
13430TIP3    H261706   2.841   3.640  10.961  1.5334  0.9571 -1.8546
13431TIP3   OH261707   2.285   4.494   1.719  0.0793 -0.9138  0.0071
13431TIP3    H161708   2.337   4.540   1.653 -0.8692 -1.2746 -1.0209
13431TIP3    H261709   2.333   4.505   1.800  0.7940  0.3354 -0.5750
13432TIP3   OH261710   1.009   6.636   0.381 -0.5682  0.4346 -0.5365
13432TIP3    H161711   1.102   6.625   0.358 -0.5208  0.8633 -0.5540
13432TIP3    H261712   0.981   6.712   0.330 -0.9372  0.2898 -0.5483
13433TIP3   OH261713   6.713   2.876   2.411 -0.1841  0.5438  0.1821
13433TIP3    H161714   6.761   2.871   2.494 -1.4719 -0.4392  0.8886
13433TIP3    H261715   6.770   2.833   2.348  0.4278  0.5328  0.7335
13434TIP3   OH261716   5.954   4.743   0.040 -0.9593  0.1640  0.5776
13434TIP3    H161717   5.979   4.701  -0.042 -2.1800 -0.8903  0.7238
13434TIP3    H261718   5.967   4.676   0.107  0.3781  1.1296  1.3198
13435TIP3   OH261719   4.001   3.949   5.669  0.4907 -0.2745 -0.1715
13435TIP3    H161720   3.946   3.871   5.676  0.7644 -0.3767  0.8740
13435TIP3    H261721   4.007   3.965   5.575  1.1296 -2.0282 -0.4604
13436TIP3   OH261722   5.835   0.087  15.572  0.6351 -0.6895 -0.1145
13436TIP3    H161723   5.871   0.139  15.500  0.9519 -1.0355 -0.2129
13436TIP3    H261724   5.747   0.122  15.586  1.6045  1.2868  1.2606
13437TIP3   OH261725   5.894   2.663  14.519  0.4484 -0.1288 -0.2528
13437TIP3    H161726   5.908   2.745  14.567  0.5111 -0.8811  1.0300
13437TIP3    H261727   5.968   2.608  14.544  0.0047 -0.8538 -0.5257
13438TIP3   OH261728   5.351   5.270  17.069 -0.1838 -0.5471  0.5048
13438TIP3    H161729   5.368   5.305  16.982 -1.8973 -0.1008  0.3368
13438TIP3    H261730   5.324   5.346  17.121  1.1465 -0.7524  1.5281
13439TIP3   OH261731   4.518   3.049  11.510  0.1448  0.2692  0.0368
13439TIP3    H161732   4.582   3.026  11.442 -0.5043 -2.5296  0.3166
13439TIP3    H261733   4.491   3.138  11.488  3.1766  1.0379 -0.8159
13440TIP3   OH261734   0.364   2.616  14.158  0.3332  0.5500  0.0275
13440TIP3    H161735   0.323   2.678  14.098  1.0567  0.3772 -0.6400
13440TIP3    H261736   0.427   2.569  14.105  0.6891  0.1156  0.8311
13441TIP3   OH261737   0.395   0.099   5.513  0.2072  0.2236  0.7026
13441TIP3    H161738   0.367   0.172   5.569 -1.6423 -0.6655  0.9718
13441TIP3    H261739   0.470   0.134   5.464  1.6052  1.1568  3.4061
13442TIP3   OH261740   1.990   1.948  15.548  0.0886  0.1198  0.3009
13442TIP3    H161741   1.995   1.889  15.473 -0.4856  0.6093 -0.1292
13442TIP3    H261742   2.063   1.922  15.605  1.6540  0.9450 -1.2961
13443TIP3   OH261743   0.347   2.022   2.187 -0.1450  0.2371 -0.5658
13443TIP3    H161744   0.305   1.950   2.140  1.7058 -0.7702 -0.7312
13443TIP3    H261745   0.416   2.053   2.128  1.0452  0.1346  0.7435
13444TIP3   OH261746   1.834   4.799  11.725  0.4636 -0.1515 -0.2874
13444TIP3    H161747   1.783   4.765  11.651  1.3347  0.4720 -1.1898
13444TIP3    H261748   1.924   4.775  11.705  0.7488  0.3026  0.4248
13445TIP3   OH261749   6.037   5.625   0.807  1.0217  0.4979 -0.1327
13445TIP3    H161750   6.056   5.536   0.836  1.2158  0.0806 -1.5555
13445TIP3    H261751   5.942   5.633   0.818  0.8044 -0.3647 -1.3536
13446TIP3   OH261752   2.120   5.020  10.729 -0.1196  0.4374  0.0739
13446TIP3    H161753   2.141   5.016  10.635 -1.2275 -0.8244 -0.1370
13446TIP3    H261754   2.169   5.096  10.761  1.8712 -0.3230 -1.1082
13447TIP3   OH261755   0.636   3.106  14.835  0.1077 -0.3128 -0.4391
13447TIP3    H161756   0.668   3.094  14.924  1.8997  2.6472 -0.6191
13447TIP3    H261757   0.700   3.061  14.780 -0.4747 -1.3179 -0.2993
13448TIP3   OH261758   5.804   6.354   3.300  0.2453  0.0593  0.1639
13448TIP3    H161759   5.751   6.390   3.229  0.4340 -4.5815 -2.4971
13448TIP3    H261760   5.894   6.358   3.267  0.5042 -0.7185  0.7615
13449TIP3   OH261761   4.945   4.917   3.699 -0.7079  0.5948 -0.4169
13449TIP3    H161762   4.874   4.908   3.762 -1.2722  1.7435 -0.8670
13449TIP3    H261763   5.009   4.851   3.724 -1.8069 -0.2495  0.1735
13450TIP3   OH261764   1.594   6.498  12.686  0.0450  0.1611 -0.2468
13450TIP3    H161765   1.549   6.460  12.611 -0.3632 -4.0289  2.0066
13450TIP3    H261766   1.669   6.440  12.702  0.2714  1.0986  2.4548
13451TIP3   OH261767   4.594   2.521  12.578 -0.0464 -0.5277  0.2178
13451TIP3    H161768   4.545   2.441  12.595  0.9379 -1.4992 -1.5111
13451TIP3    H261769   4.554   2.558  12.499 -1.1954  1.2865  1.5797
13452TIP3   OH261770   5.455   1.942  13.988  0.0514 -0.1683 -0.1310
13452TIP3    H161771   5.363   1.968  13.979 -0.3395 -1.2117  0.6478
13452TIP3    H261772   5.485   1.987  14.067 -0.1044 -0.6302  0.1982
13453TIP3   OH261773   3.767   0.965   5.183  0.7585  0.7620  0.5080
13453TIP3    H161774   3.861   0.983   5.195  0.4526  2.9967 -0.2346
13453TIP3    H261775   3.723   1.022   5.246 -0.1024 -0.6154  1.1715
13454TIP3   OH261776   2.658   2.245  15.196  0.2437 -0.0069  0.7644
13454TIP3    H161777   2.577   2.267  15.242  0.2715 -1.1109  1.3674
13454TIP3    H261778   2.711   2.325  15.201 -0.2477  0.2753  1.5868
13455TIP3   OH261779   1.039   6.340   4.054  0.2543 -0.1776 -0.3757
13455TIP3    H161780   1.041   6.323   4.148  1.5783  2.6413  0.1560
13455TIP3    H261781   0.953   6.309   4.026 -0.2298 -0.9035  1.7716
13456TIP3   OH261782   6.555   4.099  16.321  0.9209  0.0321 -0.1427
13456TIP3    H161783   6.606   4.134  16.394 -1.2984  0.9389  1.0066
13456TIP3    H261784   6.523   4.014  16.353 -1.3113  1.0996  0.5676
13457TIP3   OH261785   6.335   3.235  15.817  0.2895 -0.2761 -0.9228
13457TIP3    H161786   6.410   3.278  15.858  0.9146 -0.4125 -1.9356
13457TIP3    H261787   6.259   3.272  15.862  0.9790 -0.5360  0.4820
13458TIP3   OH261788   5.933   1.136  12.430 -0.1971  0.0425 -0.4824
13458TIP3    H161789   5.977   1.129  12.515 -0.1324 -1.1362 -0.6060
13458TIP3    H261790   5.907   1.046  12.409 -1.6817  0.5728 -0.9398
13459TIP3   OH261791   5.848   3.499  16.323  0.9089 -1.1816 -0.4799
13459TIP3    H161792   5.858   3.409  16.294  1.6405 -1.5476  0.8731
13459TIP3    H261793   5.914   3.548  16.274  0.6223 -1.4043 -1.0887
13460TIP3   OH261794   4.279   5.945  12.919 -0.2489 -0.2294  0.5988
13460TIP3    H161795   4.274   5.902  12.834  0.7371  0.0786  0.3819
13460TIP3    H261796   4.229   5.888  12.977 -0.1035 -0.9575  0.0228
13461TIP3   OH261797   2.358   4.742   1.191  0.1884 -0.6211  0.5386
13461TIP3    H161798   2.299   4.673   1.221 -0.7536  0.2539  0.7229
13461TIP3    H261799   2.313   4.824   1.212  0.8260  0.0451 -0.6150
13462TIP3   OH261800   1.283   3.344  15.783  0.0519 -0.2776 -0.2061
13462TIP3    H161801   1.287   3.255  15.818 -2.0704 -0.5069 -0.4765
13462TIP3    H261802   1.307   3.335  15.691  0.6340 -0.4471 -0.0378
13463TIP3   OH261803   5.888   0.157  16.988 -0.3117  0.6751  0.2928
13463TIP3    H161804   5.877   0.239  16.940 -1.7079  0.5978  0.4585
13463TIP3    H261805   5.799   0.123  16.997  0.3951 -1.7163 -1.2573
13464TIP3   OH261806   5.073   2.725  13.955 -0.0715  0.1685  0.3782
13464TIP3    H161807   5.078   2.696  13.863  0.9461  1.1972  0.0965
13464TIP3    H261808   4.986   2.698  13.984 -1.3420  1.9301 -1.6212
13465TIP3   OH261809   3.482   0.596  14.956  0.9910  0.0172 -0.2549
13465TIP3    H161810   3.572   0.564  14.964  1.4241  1.2511 -0.2153
13465TIP3    H261811   3.490   0.681  14.914 -0.2332 -0.2559 -1.0812
13466TIP3   OH261812   4.571   4.948   0.400 -0.5567 -0.4094 -0.5338
13466TIP3    H161813   4.631   4.898   0.345 -0.0940  0.3203 -0.6972
13466TIP3    H261814   4.621   4.967   0.480 -0.2292  1.0319 -1.0716
13467TIP3   OH261815   0.935   3.834  14.820 -0.0254 -0.0853  0.5691
13467TIP3    H161816   0.853   3.869  14.787 -0.1392 -0.6050  0.2960
13467TIP3    H261817   0.946   3.875  14.906 -0.4197  0.2094  0.4804
13468TIP3   OH261818   1.005   0.532  15.285  0.0111  0.3037 -0.1618
13468TIP3    H161819   1.027   0.484  15.365  0.5158 -0.8474 -0.9785
13468TIP3    H261820   1.045   0.618  15.297  0.0682  0.1522  0.8256
13469TIP3   OH261821   0.283   6.358   2.187 -0.1897 -0.4925 -0.0612
13469TIP3    H161822   0.258   6.267   2.172 -0.6601 -0.5874  1.2459
13469TIP3    H261823   0.367   6.368   2.143 -0.0402 -1.6212 -0.0275
13470TIP3   OH261824   2.659   5.045  12.182 -0.0451  0.0589  0.1940
13470TIP3    H161825   2.636   5.138  12.179 -0.8484 -0.1667 -0.8306
13470TIP3    H261826   2.577   4.999  12.164  0.6379 -0.8181 -0.7088
13471TIP3   OH261827   2.891   1.944   4.255 -0.6759  0.3710  0.0427
13471TIP3    H161828   2.927   1.858   4.232 -0.9338 -0.1684  1.5886
13471TIP3    H261829   2.816   1.954   4.198  0.8579  0.7161 -1.9657
13472TIP3   OH261830   1.336   1.185  16.590 -0.0997  0.1793  0.6375
13472TIP3    H161831   1.424   1.149  16.581  0.0565  0.7879 -0.3683
13472TIP3    H261832   1.325   1.201  16.684  0.4639 -0.8843  0.8849
13473TIP3   OH261833   3.292   6.449   0.397  0.3767  0.1352 -0.2558
13473TIP3    H161834   3.252   6.383   0.455  1.5196  0.7167  1.2041
13473TIP3    H261835   3.335   6.397   0.329 -0.5633 -0.5682 -0.3314
13474TIP3   OH261836   2.879   6.527  13.238 -0.0861 -0.3178 -0.0453
13474TIP3    H161837   2.962   6.561  13.207 -0.3865  0.3898 -0.0758
13474TIP3    H261838   2.829   6.605  13.263 -0.6461 -0.7527  0.1932
13475TIP3   OH261839   3.353   0.281  12.545  0.3173  0.1160 -0.9791
13475TIP3    H161840   3.346   0.214  12.614  0.2558  1.4341  0.3116
13475TIP3    H261841   3.291   0.349  12.572  0.1804  0.5782 -2.4265
13476TIP3   OH261842   2.399   0.787   5.311 -0.3955  0.1640 -0.2577
13476TIP3    H161843   2.335   0.736   5.362  1.7253 -1.9980  0.3519
13476TIP3    H261844   2.471   0.803   5.372 -0.1590  2.2485 -1.0496
13477TIP3   OH261845   1.202   5.010  16.175  0.0211 -0.5099  0.6956
13477TIP3    H161846   1.168   5.091  16.213 -0.2878  0.6523 -1.9556
13477TIP3    H261847   1.229   5.034  16.087  1.5227 -2.9318  0.4414
13478TIP3   OH261848   1.232   5.706  15.081 -0.1553 -0.2158 -1.1449
13478TIP3    H161849   1.241   5.801  15.066  2.0123 -0.5248 -1.9842
13478TIP3    H261850   1.267   5.693  15.170 -2.5268  0.0533 -0.1375
13479TIP3   OH261851   0.985   3.032  15.774 -0.6024 -0.5350 -0.1546
13479TIP3    H161852   0.916   3.004  15.713  0.1084 -2.3029 -0.1679
13479TIP3    H261853   1.064   2.987  15.743  0.6058  1.5618 -0.2093
13480TIP3   OH261854   1.168   2.041   5.046 -0.2477 -0.1518  0.0005
13480TIP3    H161855   1.217   2.099   4.988 -0.9937  0.0499 -0.4311
13480TIP3    H261856   1.081   2.035   5.007  0.1364 -2.4691 -0.5792
13481TIP3   OH261857   5.438   0.649   5.016 -0.5205  0.0240  0.4490
13481TIP3    H161858   5.434   0.636   4.921 -0.2269 -1.5379  0.6465
13481TIP3    H261859   5.347   0.653   5.044 -0.6414 -2.0773  0.4301
13482TIP3   OH261860   3.828   5.891   2.143  0.7986  0.4064 -0.6652
13482TIP3    H161861   3.877   5.809   2.145  0.8495  0.4624  0.5690
13482TIP3    H261862   3.837   5.923   2.053  0.5208 -1.0938 -1.2316
13483TIP3   OH261863   2.579   5.901  16.579 -0.2972 -0.3096  0.1251
13483TIP3    H161864   2.521   5.955  16.633  0.7760  0.4856  0.4934
13483TIP3    H261865   2.521   5.861  16.515 -1.3931 -0.2059  1.0286
13484TIP3   OH261866   5.531   5.631  10.420 -0.3853 -0.3747  0.1601
13484TIP3    H161867   5.615   5.649  10.463  0.1040 -1.4603 -0.3175
13484TIP3    H261868   5.502   5.716  10.388 -0.0621  0.2142  1.3867
13485TIP3   OH261869   2.433   4.652   5.140 -0.2979  0.3484 -0.1070
13485TIP3    H161870   2.527   4.668   5.133  0.2652 -1.8805  1.7486
13485TIP3    H261871   2.410   4.611   5.056  1.0774 -2.0404  0.6230
13486TIP3   OH261872   0.819   0.932  14.188 -0.0911 -0.7215  0.8829
13486TIP3    H161873   0.893   0.976  14.230  0.2122  2.4164 -2.6825
13486TIP3    H261874   0.742   0.979  14.222  0.0669  0.8750 -0.8947
13487TIP3   OH261875   4.037   1.750  16.516 -0.4303  0.8236  0.2850
13487TIP3    H161876   3.952   1.706  16.511 -0.0769  0.1703 -0.0256
13487TIP3    H261877   4.101   1.680  16.505  0.1495  1.3375  0.3490
13488TIP3   OH261878   1.544   4.536  11.911 -0.8661  0.4824  0.0180
13488TIP3    H161879   1.536   4.604  11.845 -0.0926  1.4444  0.9012
13488TIP3    H261880   1.541   4.582  11.995  0.8185 -0.4124  0.6152
13489TIP3   OH261881   5.924   3.627  11.608 -0.2033  0.5801 -0.2167
13489TIP3    H161882   5.968   3.580  11.679  1.3319 -0.4313 -1.8061
13489TIP3    H261883   5.934   3.719  11.630  0.8624  0.2975  0.5305
13490TIP3   OH261884   0.336   4.097  16.393  0.5214  0.7156 -0.3444
13490TIP3    H161885   0.275   4.160  16.355  0.2502  1.4971  1.3282
13490TIP3    H261886   0.326   4.109  16.488  3.6544  1.2432 -0.0372
13491TIP3   OH261887   6.447   4.445  16.946  0.5629 -0.1318  0.0142
13491TIP3    H161888   6.536   4.454  16.913  0.3514 -0.1665 -0.5601
13491TIP3    H261889   6.404   4.386  16.884  0.1082 -0.0276  0.2260
13492TIP3   OH261890   1.581   3.348   5.977 -0.0387  0.1215  0.1258
13492TIP3    H161891   1.522   3.342   5.902 -0.8215 -0.0528  0.7590
13492TIP3    H261892   1.530   3.392   6.045  1.4417  2.5136 -0.2201
13493TIP3   OH261893   4.514   3.757  14.457 -0.4113  0.4932 -0.0434
13493TIP3    H161894   4.567   3.701  14.400 -0.6056 -1.8790  1.9929
13493TIP3    H261895   4.459   3.808  14.397 -0.9467 -2.2589 -1.9981
13494TIP3   OH261896   3.825   0.212  11.515  0.0094 -0.3227  0.3897
13494TIP3    H161897   3.917   0.235  11.523  0.1911 -0.5115 -1.0803
13494TIP3    H261898   3.825   0.117  11.499 -0.4463 -0.3551  0.5657
13495TIP3   OH261899   2.343   5.746  16.758  0.8931  0.3535 -0.7980
13495TIP3    H161900   2.300   5.694  16.826 -0.9779  0.6525 -1.7433
13495TIP3    H261901   2.392   5.681  16.707  0.7331 -0.1280 -0.3466
13496TIP3   OH261902   4.752   4.501   2.566 -0.0371 -0.0781 -0.3222
13496TIP3    H161903   4.733   4.573   2.507 -2.1465 -0.7232 -0.4680
13496TIP3    H261904   4.678   4.499   2.627  1.1835 -0.5876  1.2000
13497TIP3   OH261905   5.198   1.127  12.381 -0.1069  0.3489  0.2809
13497TIP3    H161906   5.226   1.164  12.464 -2.2971  2.6639  0.0274
13497TIP3    H261907   5.280   1.109  12.334  1.0824  1.1070  2.0288
13498TIP3   OH261908   1.308   2.245  13.716  0.1555 -0.3237  0.2321
13498TIP3    H161909   1.295   2.155  13.686 -1.6968 -0.4069  1.2330
13498TIP3    H261910   1.350   2.236  13.801 -0.1860 -0.2357  0.4077
13499TIP3   OH261911   1.530   2.413  13.958  0.4226 -0.2837 -0.1809
13499TIP3    H161912   1.444   2.385  13.990 -0.7803  3.5101  0.1805
13499TIP3    H261913   1.588   2.404  14.033  0.1293 -1.7587 -0.1032
13500TIP3   OH261914   4.325   0.286   5.512  0.2555 -0.6453  0.2345
13500TIP3    H161915   4.315   0.214   5.574 -1.2238 -0.7310 -0.0854
13500TIP3    H261916   4.409   0.270   5.470  2.1641  0.4156  3.4776
13501TIP3   OH261917   0.811   5.361   4.856 -0.1058 -0.6713  0.3076
13501TIP3    H161918   0.807   5.266   4.857 -0.7076 -0.6791 -1.4989
13501TIP3    H261919   0.904   5.382   4.849  0.0643 -1.1147  1.2460
13502TIP3   OH261920   0.076   1.107  14.637 -0.7992  0.2895  0.5517
13502TIP3    H161921   0.109   1.197  14.634  0.7866 -0.3115 -0.0392
13502TIP3    H261922   0.130   1.059  14.575 -2.2220 -0.9042  0.2015
13503TIP3   OH261923   1.629   4.546  13.723 -0.2392  0.0310 -0.5110
13503TIP3    H161924   1.589   4.552  13.636  1.3101 -1.4914 -1.3515
13503TIP3    H261925   1.711   4.594  13.716 -2.2133  3.9974  1.4913
13504TIP3   OH261926   5.278   5.786   4.024  0.7222 -0.2754  0.1773
13504TIP3    H161927   5.338   5.846   3.980 -1.6062  1.8016 -0.2167
13504TIP3    H261928   5.277   5.816   4.115 -0.8954  0.6790 -0.1444
13505TIP3   OH261929   4.384   4.566  13.459 -0.2142 -0.3564 -0.3244
13505TIP3    H161930   4.416   4.492  13.512 -0.4676 -0.1504  0.1188
13505TIP3    H261931   4.446   4.637  13.477 -0.7709 -0.0306  0.3476
13506TIP3   OH261932   5.188   1.303  13.068 -0.1699 -0.9608  0.2869
13506TIP3    H161933   5.258   1.294  13.002 -1.0523 -0.8307 -0.6774
13506TIP3    H261934   5.221   1.255  13.144  0.5601 -1.7133 -0.4903
13507TIP3   OH261935   1.173   3.271   5.511  0.8801  0.0671 -0.2046
13507TIP3    H161936   1.233   3.233   5.575  0.9056 -0.5288 -0.5855
13507TIP3    H261937   1.111   3.201   5.491 -0.7934  1.0698  1.2044
13508TIP3   OH261938   3.465   3.707   5.543  0.1539  0.4986 -0.2817
13508TIP3    H161939   3.371   3.723   5.553  0.3665  2.0822 -0.6727
13508TIP3    H261940   3.473   3.665   5.457  0.0294  2.6135 -1.3609
13509TIP3   OH261941   3.091   6.076  13.843  0.1773  0.6770  0.4417
13509TIP3    H161942   3.063   6.165  13.863  1.0035  0.8150  1.0100
13509TIP3    H261943   3.187   6.080  13.843  0.2140  0.3719 -2.2109
13510TIP3   OH261944   2.745   3.906   1.815 -0.1734  0.0641  0.1325
13510TIP3    H161945   2.655   3.895   1.847 -0.5180 -0.6442 -1.0599
13510TIP3    H261946   2.770   3.994   1.844 -1.3301  0.3507  0.2969
13511TIP3   OH261947   5.840   5.993   3.590 -0.3830 -0.0630 -0.2166
13511TIP3    H161948   5.823   6.087   3.579 -1.4220 -0.3707 -1.3994
13511TIP3    H261949   5.783   5.966   3.662 -0.7918  0.0278 -0.5041
13512TIP3   OH261950   5.591   1.331  10.965 -0.0017  0.2988  0.1866
13512TIP3    H161951   5.617   1.344  10.874  0.6042  0.6017  0.4038
13512TIP3    H261952   5.628   1.246  10.989  2.5969  1.6342  1.1258
13513TIP3   OH261953   6.618   0.823  16.336 -0.4782  0.1558  0.1448
13513TIP3    H161954   6.681   0.879  16.290 -0.2044 -2.2616 -2.6075
13513TIP3    H261955   6.667   0.785  16.408  0.3538  0.6684 -0.1505
13514TIP3   OH261956   1.820   0.457   5.116 -0.3135 -0.1024 -0.6128
13514TIP3    H161957   1.896   0.462   5.173 -0.3370 -0.6803 -0.5359
13514TIP3    H261958   1.799   0.364   5.110 -3.6149  0.2997  2.7698
13515TIP3   OH261959   3.001   4.743   4.613 -0.3467  0.1051 -0.4808
13515TIP3    H161960   2.956   4.673   4.565 -0.0620  0.6981 -1.6495
13515TIP3    H261961   2.945   4.762   4.688 -1.2257 -0.2775 -1.0407
13516TIP3   OH261962   0.539   4.787   3.351 -0.4823 -0.2908 -0.2424
13516TIP3    H161963   0.613   4.743   3.309 -1.2743 -1.6729 -0.2286
13516TIP3    H261964   0.534   4.747   3.438 -0.1312  1.0980  0.4418
13517TIP3   OH261965   2.534   0.028  12.922  0.3187  0.4690  0.0439
13517TIP3    H161966   2.441   0.035  12.944  0.2744 -0.1795  0.0650
13517TIP3    H261967   2.541   0.064  12.834  0.1377  1.0318  0.2558
13518TIP3   OH261968   1.089   2.886   6.159  0.3578 -0.3580  1.2066
13518TIP3    H161969   1.147   2.809   6.158  1.6512  0.6099 -1.1834
13518TIP3    H261970   1.141   2.954   6.201 -0.5662 -0.5852  2.7608
13519TIP3   OH261971   1.497   5.815   5.321  0.3844  0.3960  0.4695
13519TIP3    H161972   1.403   5.799   5.332  0.4076  0.1593  0.3265
13519TIP3    H261973   1.536   5.727   5.322  0.7193  0.5422  1.6464
13520TIP3   OH261974   6.159   0.346  13.008 -0.4187 -0.3788 -0.4628
13520TIP3    H161975   6.064   0.349  13.010 -0.3890  0.3100  0.1847
13520TIP3    H261976   6.181   0.253  13.012 -1.0575 -0.5124 -0.0884
13521TIP3   OH261977   2.568   0.902   0.678  0.4908 -0.2053 -0.1026
13521TIP3    H161978   2.604   0.863   0.758  0.0540 -0.9893 -0.2781
13521TIP3    H261979   2.535   0.987   0.705 -0.9848 -1.0721  0.8798
13522TIP3   OH261980   3.069   3.266  13.634 -0.5110 -0.0372  0.1619
13522TIP3    H161981   3.144   3.284  13.577 -1.1187  0.8162 -0.3819
13522TIP3    H261982   3.045   3.176  13.614 -1.0208  0.4137 -1.2994
13523TIP3   OH261983   3.311   0.720   5.629 -0.0407  0.5488 -0.4779
13523TIP3    H161984   3.393   0.703   5.676  0.0532  4.0861  0.7786
13523TIP3    H261985   3.242   0.694   5.690  0.1099 -0.0183 -0.5436
13524TIP3   OH261986   6.673   2.111   1.607 -0.7822 -0.2717 -0.1420
13524TIP3    H161987   6.645   2.072   1.690 -0.0041  0.5641  0.5255
13524TIP3    H261988   6.729   2.044   1.567 -1.4811 -0.8392 -0.1905
13525TIP3   OH261989   5.749   2.218   0.371 -0.3203  0.3954  0.0211
13525TIP3    H161990   5.839   2.243   0.350 -0.7040  0.7363 -1.2688
13525TIP3    H261991   5.715   2.181   0.289 -0.4122 -2.5111  1.3017
13526TIP3   OH261992   0.906   0.400  17.078 -0.9739 -0.0958 -0.3761
13526TIP3    H161993   0.821   0.390  17.120 -0.3042 -1.2540  0.7261
13526TIP3    H261994   0.932   0.310  17.055  0.6138  0.0801  0.6427
13527TIP3   OH261995   6.158   5.883   0.326  0.2815 -0.3713 -0.8437
13527TIP3    H161996   6.138   5.960   0.274  0.0873  0.0648 -0.1252
13527TIP3    H261997   6.082   5.871   0.383  1.4179  0.4790  0.9166
13528TIP3   OH261998   4.516   4.221  15.996 -0.5631  0.0163 -0.3461
13528TIP3    H161999   4.448   4.181  15.942 -2.1735  2.3659 -0.1336
13528TIP3    H262000   4.513   4.314  15.974  0.4407  0.6400  1.9689
13529TIP3   OH262001   2.443   0.958   4.706  0.4427  0.0860  0.1633
13529TIP3    H162002   2.449   0.887   4.642  1.4742 -1.2066  1.6602
13529TIP3    H262003   2.484   1.033   4.662  1.1005 -0.7650 -0.7117
13530TIP3   OH262004   3.849   6.118   0.999  0.4053 -0.6229 -0.2546
13530TIP3    H162005   3.905   6.094   1.073 -0.1094  0.5191  0.5193
13530TIP3    H262006   3.871   6.054   0.931  1.2167 -1.4037  0.7198
13531TIP3   OH262007   2.586   4.178  13.530 -0.4676  0.5185  0.1902
13531TIP3    H162008   2.571   4.090  13.564 -0.2207  0.0447 -0.8870
13531TIP3    H262009   2.533   4.182  13.450  1.5554  0.4149 -1.1901
13532TIP3   OH262010   1.011   0.072   5.721 -0.3072 -0.3113  0.8358
13532TIP3    H162011   1.053   0.125   5.788  2.0692 -1.7082  0.4913
13532TIP3    H262012   1.066   0.082   5.644 -0.5202 -2.2611  0.4045
13533TIP3   OH262013   6.259   3.137  14.736 -0.3043  0.5496  0.2462
13533TIP3    H162014   6.179   3.188  14.752 -0.8381 -0.6819  1.6923
13533TIP3    H262015   6.293   3.119  14.823  1.4970  0.9469 -0.3644
13534TIP3   OH262016   4.371   6.114  10.956  0.8862 -0.3997 -0.1698
13534TIP3    H162017   4.393   6.166  11.033  0.7442  0.7207 -0.8839
13534TIP3    H262018   4.402   6.165  10.882 -1.9816  0.1402 -1.0667
13535TIP3   OH262019   5.599   4.559  12.723  0.3895  0.2332 -0.3641
13535TIP3    H162020   5.512   4.519  12.719 -0.4216  1.7257  1.6293
13535TIP3    H262021   5.659   4.486  12.736 -0.8499 -0.5241  1.1754
13536TIP3   OH262022   5.392   6.693   2.739  0.7332 -0.4966  0.3294
13536TIP3    H162023   5.453   6.743   2.685 -0.2910 -1.4149 -1.7411
13536TIP3    H262024   5.388   6.607   2.696 -2.2261 -0.3444  0.2601
13537TIP3   OH262025   1.045   4.403  14.039 -0.0745 -0.3964 -0.4143
13537TIP3    H162026   0.984   4.446  14.100 -1.0954  0.2184 -1.8194
13537TIP3    H262027   1.128   4.448  14.052 -0.8741  1.3667 -1.1262
13538TIP3   OH262028   1.670   1.603   0.037 -0.0246 -0.5124 -0.3881
13538TIP3    H162029   1.666   1.679   0.095  2.0464 -0.2574 -0.5301
13538TIP3    H262030   1.645   1.637  -0.049 -3.5028 -0.9788  0.3930
13539TIP3   OH262031   3.237   5.263   4.764 -0.0040 -0.3049 -0.0301
13539TIP3    H162032   3.209   5.354   4.752  1.0034  0.0829  0.5048
13539TIP3    H262033   3.281   5.241   4.682 -1.3720 -0.7347 -0.6572
13540TIP3   OH262034   4.531   4.117   1.248  0.2061 -0.3263 -0.1365
13540TIP3    H162035   4.517   4.164   1.330  2.7455  0.3838 -0.0553
13540TIP3    H262036   4.480   4.166   1.183 -4.8271 -2.9902  1.5263
13541TIP3   OH262037   5.226   5.118  11.319  0.1763  0.0232  0.3109
13541TIP3    H162038   5.275   5.142  11.398  0.4921  1.8337 -0.4172
13541TIP3    H262039   5.163   5.189  11.308 -1.0115 -1.0831 -0.1288
13542TIP3   OH262040   1.192   1.768  15.025  0.0286 -0.4325  0.4892
13542TIP3    H162041   1.170   1.730  14.940 -2.9902 -1.8700  1.8225
13542TIP3    H262042   1.200   1.692  15.084  1.2654  0.5821  1.6772
13543TIP3   OH262043   5.673   3.276   4.321 -0.0163 -0.1837 -0.0333
13543TIP3    H162044   5.594   3.328   4.332  0.9561  1.3882 -0.3677
13543TIP3    H262045   5.648   3.208   4.258 -0.6419  1.3049 -1.4150
13544TIP3   OH262046   2.118   3.977   6.166  0.9169  0.0948 -0.7264
13544TIP3    H162047   2.182   3.982   6.095  0.0694 -1.2004 -1.6077
13544TIP3    H262048   2.167   4.001   6.245  2.4668 -0.8252 -1.3938
13545TIP3   OH262049   0.075   0.693   4.292 -0.5264  0.4268 -0.0432
13545TIP3    H162050   0.018   0.749   4.240 -0.0561 -0.0423 -1.0764
13545TIP3    H262051   0.139   0.659   4.230 -1.0864 -1.6327  0.4691
13546TIP3   OH262052   5.418   2.987   0.446  0.1366 -0.2551  0.4172
13546TIP3    H162053   5.512   2.965   0.444  0.7917  2.4687 -0.6603
13546TIP3    H262054   5.405   3.025   0.532  0.0767 -0.3408  0.4463
13547TIP3   OH262055   5.194   4.926  12.104 -0.0848  0.1533  0.1838
13547TIP3    H162056   5.231   4.884  12.027 -0.8140  0.0338 -0.1036
13547TIP3    H262057   5.170   4.853  12.162 -2.3762  0.0958 -0.7830
13548TIP3   OH262058   0.050   0.712   0.482 -0.0356 -0.4792  0.3349
13548TIP3    H162059   0.124   0.715   0.422 -1.5810  0.1219 -1.5772
13548TIP3    H262060   0.084   0.668   0.560  1.9811 -1.3111 -0.9781
13549TIP3   OH262061   3.097   2.259   0.619 -0.0131 -0.4116  0.0593
13549TIP3    H162062   3.097   2.337   0.563  0.6520  0.2970  1.0343
13549TIP3    H262063   3.164   2.203   0.581 -0.4731 -0.5161 -0.6299
13550TIP3   OH262064   3.708   2.595  15.147  0.2863 -0.2510  1.0824
13550TIP3    H162065   3.699   2.678  15.194 -0.7817 -1.0830  2.3998
13550TIP3    H262066   3.646   2.601  15.075  0.8728  0.4543  0.6305
13551TIP3   OH262067   3.064   2.757  16.999  0.0655  0.7291  0.2248
13551TIP3    H162068   3.156   2.783  17.006  0.0117  0.6901  1.1141
13551TIP3    H262069   3.024   2.790  17.080 -0.5474  0.1275  0.1672
13552TIP3   OH262070   0.919   2.063   3.636 -0.3379  0.6852  0.1079
13552TIP3    H162071   0.834   2.083   3.595 -1.8463 -2.3463  1.5709
13552TIP3    H262072   0.963   2.007   3.572 -0.9180 -0.5992  0.8299
13553TIP3   OH262073   5.249   1.916  14.447  0.0137  0.6982  0.4788
13553TIP3    H162074   5.217   1.989  14.395  1.0782  0.8896  0.0784
13553TIP3    H262075   5.172   1.860  14.461 -0.7822  1.8591  0.7350
13554TIP3   OH262076   4.058   6.013  14.682  0.0498  0.2666  0.5155
13554TIP3    H162077   4.082   5.939  14.626 -1.9882  0.7801 -1.0990
13554TIP3    H262078   3.977   5.986  14.724 -1.7515  2.2397 -1.5245
13555TIP3   OH262079   3.492   4.337   0.656  0.0207 -0.3583 -0.2337
13555TIP3    H162080   3.524   4.253   0.625 -0.8928  0.0100 -2.2792
13555TIP3    H262081   3.397   4.333   0.645 -0.1288  0.5569  0.6066
13556TIP3   OH262082   1.815   2.507   4.014 -0.3781 -0.6619  0.1959
13556TIP3    H162083   1.894   2.560   4.010  0.7083 -2.1656  1.3826
13556TIP3    H262084   1.747   2.567   4.045  0.9576 -0.1045  2.1042
13557TIP3   OH262085   5.332   2.839   0.234 -0.1214  0.1112 -0.0895
13557TIP3    H162086   5.400   2.890   0.191  0.1781 -0.0059  0.2446
13557TIP3    H262087   5.331   2.871   0.324  0.0763 -0.4872  0.1239
13558TIP3   OH262088   2.230   5.241   6.056  0.8688 -0.1963 -0.0201
13558TIP3    H162089   2.276   5.208   5.979  1.3069  0.8382 -0.2105
13558TIP3    H262090   2.299   5.270   6.115  0.4881  2.4617 -0.7996
13559TIP3   OH262091   1.675   5.894  15.406 -0.1422 -0.0286  0.1387
13559TIP3    H162092   1.730   5.946  15.348  0.1299 -0.1229  0.3087
13559TIP3    H262093   1.598   5.872  15.354 -0.9803  1.8563  0.5594
13560TIP3   OH262094   2.835   5.956  16.470 -0.1394 -0.6144  0.3256
13560TIP3    H162095   2.818   5.917  16.385 -0.4831  0.6057 -0.1774
13560TIP3    H262096   2.748   5.967  16.509 -0.3079  2.3301 -0.7631
13561TIP3   OH262097   4.206   2.979   0.483 -0.1696  0.0513 -0.0044
13561TIP3    H162098   4.238   3.056   0.530 -0.7726 -0.0367  0.5556
13561TIP3    H262099   4.112   2.996   0.472  0.1257  0.5069 -1.9896
13562TIP3   OH262100   5.618   0.930   6.159  0.7795  0.1103 -0.8777
13562TIP3    H162101   5.672   0.988   6.212 -0.1916  0.4756 -0.2774
13562TIP3    H262102   5.544   0.984   6.130 -0.1019 -0.8006 -0.3616
13563TIP3   OH262103   3.079   2.441  17.007  0.3522  0.5690  0.5249
13563TIP3    H162104   3.098   2.503  17.077 -0.8198 -0.5374  1.8728
13563TIP3    H262105   2.988   2.457  16.985 -0.0900 -0.9201  1.1878
13564TIP3   OH262106   1.652   6.613   0.297 -0.0134  0.0190 -0.8042
13564TIP3    H162107   1.724   6.676   0.298 -0.0840  0.0886 -0.0089
13564TIP3    H262108   1.612   6.620   0.384  0.9524 -2.2457 -0.1295
13565TIP3   OH262109   5.850   4.707  12.985 -0.0829 -0.1524 -0.2598
13565TIP3    H162110   5.871   4.683  12.894 -0.4458 -1.8119  0.0801
13565TIP3    H262111   5.910   4.779  13.005  0.2209  0.0166 -1.7042
13566TIP3   OH262112   2.919   1.619   3.540  0.0421 -0.3988 -0.4965
13566TIP3    H162113   2.979   1.692   3.555 -0.9030  0.4291 -0.6651
13566TIP3    H262114   2.852   1.628   3.609  0.8135 -2.0877  0.5163
13567TIP3   OH262115   6.571   4.639  14.259  0.4156  0.3231 -0.2907
13567TIP3    H162116   6.501   4.576  14.241  0.5077 -0.0564  0.6133
13567TIP3    H262117   6.652   4.592  14.236  0.5289 -0.1384  0.9566
13568TIP3   OH262118   2.918   3.672  12.168  0.1200  0.3202 -0.6873
13568TIP3    H162119   2.915   3.623  12.085 -1.8874  0.5216 -0.7674
13568TIP3    H262120   2.876   3.755  12.148 -0.2976  0.4017  0.5068
13569TIP3   OH262121   6.111   3.790   5.216 -0.1212 -0.0321  0.0660
13569TIP3    H162122   6.202   3.764   5.207  0.1378  0.5358  1.0463
13569TIP3    H262123   6.081   3.801   5.125  0.5111 -1.1072 -0.2847
13570TIP3   OH262124   3.123   1.528  14.177  0.0216 -0.4249  0.2735
13570TIP3    H162125   3.205   1.494  14.140  0.2096 -0.3209  0.5879
13570TIP3    H262126   3.101   1.467  14.246  1.6257  1.3422  2.4363
13571TIP3   OH262127   3.683   4.980  13.107  0.7125  0.5307  0.2929
13571TIP3    H162128   3.631   4.957  13.030  0.9437 -0.8727  0.5409
13571TIP3    H262129   3.762   5.021  13.071  0.0065  1.5271 -0.1330
13572TIP3   OH262130   5.826   5.902  11.798 -0.1987  0.3248 -0.1215
13572TIP3    H162131   5.903   5.858  11.762  0.9465  1.8944  0.3050
13572TIP3    H262132   5.760   5.834  11.807  1.9226 -1.5343  1.6948
13573TIP3   OH262133   1.871   0.609  13.903 -0.0107  0.4885 -0.0919
13573TIP3    H162134   1.915   0.645  13.826  1.3024  0.2190  0.5204
13573TIP3    H262135   1.857   0.685  13.960 -1.4106  0.7677 -0.7821
13574TIP3   OH262136   2.126   4.283   0.523 -0.2746  0.2068 -0.0488
13574TIP3    H162137   2.127   4.349   0.453 -0.4382  0.5592  0.2817
13574TIP3    H262138   2.116   4.199   0.477  2.5706  0.1691 -0.6525
13575TIP3   OH262139   2.126   6.008  13.510  0.1221 -0.1097  0.4963
13575TIP3    H162140   2.046   5.960  13.488  0.2768 -0.6772  1.1192
13575TIP3    H262141   2.177   5.946  13.563  1.0047  0.2236  0.0518
13576TIP3   OH262142   2.785   3.350  13.586  0.4478  0.1272 -0.2399
13576TIP3    H162143   2.761   3.290  13.515 -0.4868  0.8651 -0.5546
13576TIP3    H262144   2.881   3.355  13.582  0.2909  1.6299 -2.6538
13577TIP3   OH262145   2.323   0.377  15.312 -0.5320 -0.2425 -0.3876
13577TIP3    H162146   2.360   0.465  15.312  0.3682 -0.6024  0.6689
13577TIP3    H262147   2.336   0.346  15.222  2.8532 -0.7771  0.2035
13578TIP3   OH262148   2.507   5.128   6.492  0.6312 -0.4147  0.3552
13578TIP3    H162149   2.531   5.108   6.582 -1.1693  0.2684  1.0102
13578TIP3    H262150   2.435   5.191   6.499 -0.4188 -1.3328 -1.5303
13579TIP3   OH262151   5.989   3.371   5.869  0.2000 -0.2168 -0.1420
13579TIP3    H162152   6.050   3.319   5.817  0.0631 -0.3830 -0.1371
13579TIP3    H262153   5.986   3.455   5.825 -0.8466 -0.7491 -1.1134
13580TIP3   OH262154   6.602   4.570   4.720 -0.6138  0.2809  0.2369
13580TIP3    H162155   6.597   4.661   4.689  0.3868 -0.4578 -2.2065
13580TIP3    H262156   6.538   4.565   4.791 -1.9134  2.4543 -0.7402
13581TIP3   OH262157   2.640   0.745   1.824 -0.6872 -0.1869  0.4233
13581TIP3    H162158   2.547   0.758   1.842 -1.4086 -1.6309 -2.0877
13581TIP3    H262159   2.648   0.653   1.802  1.1059  0.2234 -0.7467
13582TIP3   OH262160   5.531   4.201  14.760 -0.6189  0.1037  0.1150
13582TIP3    H162161   5.448   4.249  14.764  1.1179  3.0427  4.0226
13582TIP3    H262162   5.528   4.141  14.835  0.5018 -0.2729 -0.1269
13583TIP3   OH262163   2.455   4.866   2.062  0.0940 -0.2788  0.0335
13583TIP3    H162164   2.363   4.840   2.074  0.3852 -0.7898  1.2675
13583TIP3    H262165   2.502   4.818   2.131  1.0028  1.5457  0.6987
13584TIP3   OH262166   3.586   5.932  14.572 -0.1669  0.9473  0.2387
13584TIP3    H162167   3.504   5.902  14.611 -1.3253  0.6720 -2.2526
13584TIP3    H262168   3.650   5.866  14.596 -1.4941 -0.7085 -0.6576
13585TIP3   OH262169   4.870   3.937  16.667  0.1456 -0.2400 -0.3622
13585TIP3    H162170   4.903   3.899  16.586 -1.0083 -1.2600 -0.3667
13585TIP3    H262171   4.900   3.877  16.736 -1.0761 -0.7826 -0.2958
13586TIP3   OH262172   5.712   1.038  15.154 -0.5317 -0.3815  0.1885
13586TIP3    H162173   5.633   1.083  15.183 -0.4684 -0.2286  0.1217
13586TIP3    H262174   5.691   1.009  15.066  0.4557  2.0071 -0.8637
13587TIP3   OH262175   3.516   0.266  13.527  0.2589 -0.3427  0.5139
13587TIP3    H162176   3.479   0.179  13.541  0.1956 -0.1108  1.8184
13587TIP3    H262177   3.497   0.314  13.608  1.3022  0.5245  0.2631
13588TIP3   OH262178   0.739   0.322  16.804  0.2048  0.1851  0.2461
13588TIP3    H162179   0.813   0.382  16.797 -0.8026  1.1399 -2.8740
13588TIP3    H262180   0.680   0.365  16.865  1.7344 -0.1205  2.0009
13589TIP3   OH262181   5.774   1.279  15.561 -0.6592 -0.1225 -0.0102
13589TIP3    H162182   5.692   1.230  15.562 -0.6984 -0.0518  0.9113
13589TIP3    H262183   5.749   1.370  15.572 -0.4475 -0.1266  0.5438
13590TIP3   OH262184   0.724   6.241  15.138  0.2270 -0.5001 -0.4832
13590TIP3    H162185   0.689   6.178  15.076  2.5765 -0.7154 -1.6567
13590TIP3    H262186   0.679   6.323  15.118 -0.5881 -1.0710 -1.0151
13591TIP3   OH262187   3.932   3.280  12.140 -0.2650 -0.8465 -0.0083
13591TIP3    H162188   3.965   3.194  12.167 -0.5628 -0.6813  0.8927
13591TIP3    H262189   4.006   3.339  12.155  0.2174 -1.0771 -1.4184
13592TIP3   OH262190   5.551   3.142   1.747 -0.1989  0.5291  0.2397
13592TIP3    H162191   5.614   3.074   1.772  0.2540 -0.4646 -3.3154
13592TIP3    H262192   5.474   3.093   1.718 -0.2104  1.5441 -1.4992
13593TIP3   OH262193   5.068   6.210  15.771  0.3599  0.1650  0.0773
13593TIP3    H162194   4.999   6.275  15.762 -0.2796 -0.2084  1.9475
13593TIP3    H262195   5.134   6.253  15.825  1.1239  0.1581 -0.8399
13594TIP3   OH262196   6.508   2.463  12.014 -0.1514  0.0410  0.0490
13594TIP3    H162197   6.475   2.545  11.976 -0.1419  0.9036  1.8397
13594TIP3    H262198   6.434   2.402  12.005 -0.8696  0.8271  0.4943
13595TIP3   OH262199   4.122   1.386   1.367  0.1413  0.5061 -0.2145
13595TIP3    H162200   4.115   1.355   1.277 -1.4837  0.2369 -0.0095
13595TIP3    H262201   4.097   1.479   1.361 -2.6702 -0.1621  0.3385
13596TIP3   OH262202   2.770   1.859  16.362 -0.1781 -0.6664 -0.2025
13596TIP3    H162203   2.682   1.868  16.325 -0.4081 -0.3243  0.4183
13596TIP3    H262204   2.798   1.772  16.336 -0.3259 -0.4186 -1.2045
13597TIP3   OH262205   3.741   0.973   3.318  0.0512 -0.3225  0.4676
13597TIP3    H162206   3.670   0.919   3.351 -0.2438 -1.1633 -1.4471
13597TIP3    H262207   3.708   1.063   3.324 -1.4240 -0.7517 -0.9449
13598TIP3   OH262208   5.498   1.222  15.218  0.1528  0.3458 -0.1124
13598TIP3    H162209   5.519   1.295  15.275  1.1858  0.4267 -0.5796
13598TIP3    H262210   5.424   1.252  15.165 -0.0441  0.6920  0.3666
13599TIP3   OH262211   5.176   6.508  12.080 -0.4417  0.3423  0.5047
13599TIP3    H162212   5.133   6.528  12.163 -4.0254 -2.0021 -0.7085
13599TIP3    H262213   5.232   6.433  12.100  0.4464  1.1924  1.2786
13600TIP3   OH262214   2.235   4.312  11.523 -0.1396 -0.5265  0.0160
13600TIP3    H162215   2.311   4.259  11.499  0.2017 -0.5184  1.0225
13600TIP3    H262216   2.187   4.256  11.584 -0.5333 -0.2290 -0.0221
13601TIP3   OH262217   3.190   1.973  15.256  0.0395  0.1834  0.2733
13601TIP3    H162218   3.242   2.049  15.233  0.3022  0.2031  0.9476
13601TIP3    H262219   3.124   1.968  15.187 -1.2037  2.1680  1.2776
13602TIP3   OH262220   0.151   0.323   4.048  0.4066 -0.2372 -0.0075
13602TIP3    H162221   0.101   0.285   3.976 -0.5324  0.7766  0.1059
13602TIP3    H262222   0.238   0.283   4.040 -0.0979 -1.1879 -0.8481
13603TIP3   OH262223   0.671   2.558  14.452 -0.1318 -0.1849 -0.5127
13603TIP3    H162224   0.721   2.477  14.457 -0.1821 -0.3706 -2.6112
13603TIP3    H262225   0.584   2.531  14.424  0.0087  0.6374 -1.7752
13604TIP3   OH262226   2.202   2.650  13.112 -0.1218 -0.0438  0.0496
13604TIP3    H162227   2.221   2.699  13.192 -0.2073 -0.6127  0.4151
13604TIP3    H262228   2.280   2.598  13.096 -0.4657 -0.6369  0.2833
13605TIP3   OH262229   3.720   0.977   5.627  0.2616  0.2154 -0.0458
13605TIP3    H162230   3.804   0.934   5.642 -0.1606 -0.6566 -0.1716
13605TIP3    H262231   3.691   1.004   5.714  0.0860 -0.5812  0.1433
13606TIP3   OH262232   6.045   2.497  11.959  0.4638 -0.2299  0.3902
13606TIP3    H162233   6.138   2.477  11.945  1.0704  0.9269  2.4318
13606TIP3    H262234   6.003   2.412  11.966  1.5772 -0.7814  0.5724
13607TIP3   OH262235   5.770   6.537   0.001  0.2205 -0.5848  0.6231
13607TIP3    H162236   5.824   6.605  -0.041 -0.9050  0.8646  1.4634
13607TIP3    H262237   5.787   6.548   0.094 -0.3191 -1.1813  0.7938
13608TIP3   OH262238   2.174   1.691  16.489  0.3800  0.2529  0.2345
13608TIP3    H162239   2.166   1.731  16.402  2.1252 -0.5132 -0.3181
13608TIP3    H262240   2.268   1.698  16.509  0.6410 -2.9228  0.3877
13609TIP3   OH262241   5.403   3.045  14.280 -0.3454 -0.0454  0.1514
13609TIP3    H162242   5.337   2.978  14.259  1.8054 -2.3106  0.4259
13609TIP3    H262243   5.389   3.064  14.372 -0.3090 -0.8760  0.3305
13610TIP3   OH262244   2.996   1.398   4.608 -1.0161 -0.2612 -0.1303
13610TIP3    H162245   3.004   1.323   4.668 -0.0028  0.3147  0.4611
13610TIP3    H262246   2.977   1.472   4.665  0.3958  0.3721 -0.4614
13611TIP3   OH262247   3.651   2.696   4.588 -0.3909  0.1605 -0.1299
13611TIP3    H162248   3.695   2.636   4.528 -1.9693  0.3485 -1.5119
13611TIP3    H262249   3.617   2.638   4.657 -0.4030 -0.3323 -0.5402
13612TIP3   OH262250   1.218   4.163  15.291 -0.0773  0.0091  0.5886
13612TIP3    H162251   1.240   4.193  15.379  0.0686  0.6306  0.3488
13612TIP3    H262252   1.302   4.138  15.252  0.0526  1.0893  0.1425
13613TIP3   OH262253   0.699   2.822   3.468  0.1209 -0.1390 -0.2555
13613TIP3    H162254   0.728   2.857   3.553 -0.4597  0.4400 -0.2880
13613TIP3    H262255   0.775   2.773   3.435  0.1569 -0.8606  0.8592
13614TIP3   OH262256   1.424   0.642   3.418  0.1214  0.8592 -0.2587
13614TIP3    H162257   1.400   0.549   3.414  2.0325  0.3919 -1.5732
13614TIP3    H262258   1.360   0.685   3.361 -0.2295  0.2165 -0.3612
13615TIP3   OH262259   3.324   5.481  12.062 -0.0670  0.4118  0.1605
13615TIP3    H162260   3.378   5.538  12.006 -1.1689  0.6622 -0.6831
13615TIP3    H262261   3.367   5.396  12.059 -0.9573 -0.0131 -2.4057
13616TIP3   OH262262   6.521   5.421   2.346 -0.5196 -0.0909  0.2145
13616TIP3    H162263   6.515   5.333   2.381  0.4595 -0.0750  0.4270
13616TIP3    H262264   6.565   5.410   2.261 -1.5567  0.0433 -0.3526
13617TIP3   OH262265   5.829   4.739  14.208  0.2374 -0.1894 -0.6040
13617TIP3    H162266   5.783   4.680  14.149 -0.6920 -0.3260  0.2413
13617TIP3    H262267   5.885   4.681  14.260  1.1045 -0.0617 -1.3932
13618TIP3   OH262268   4.540   6.647  13.910 -0.1846 -0.4463  0.1587
13618TIP3    H162269   4.475   6.704  13.871 -0.5924  0.4055  2.0345
13618TIP3    H262270   4.623   6.674  13.870 -0.3892  1.3827  0.9213
13619TIP3   OH262271   3.630   2.666  10.781  0.3279  0.2561  0.3819
13619TIP3    H162272   3.628   2.579  10.821 -4.1684  0.0003 -0.1844
13619TIP3    H262273   3.636   2.649  10.687 -1.2264  0.5238  0.2304
13620TIP3   OH262274   2.289   1.001  11.881 -0.5712 -0.8846 -0.2859
13620TIP3    H162275   2.271   0.908  11.897  0.2616 -0.8450  0.9008
13620TIP3    H262276   2.383   1.010  11.899 -0.7826  0.3192  0.2078
13621TIP3   OH262277   3.643   2.750  11.418 -0.6385 -0.3185  0.6859
13621TIP3    H162278   3.659   2.661  11.450  0.9957 -0.2296  0.1924
13621TIP3    H262279   3.721   2.770  11.366 -1.0925  1.3295  0.6309
13622TIP3   OH262280   5.519   0.917   3.634 -0.2396  0.2980  0.1522
13622TIP3    H162281   5.478   0.880   3.711 -1.3537  1.6102  0.2214
13622TIP3    H262282   5.562   0.997   3.665  0.9260 -0.1726 -0.2313
13623TIP3   OH262283   0.707   2.433  12.986  0.3797 -0.0827 -0.0868
13623TIP3    H162284   0.624   2.479  12.978  0.2157 -0.7451 -2.4709
13623TIP3    H262285   0.773   2.496  12.955  0.4608 -0.4641 -0.7042
13624TIP3   OH262286   4.627   0.664  15.351  0.3968  0.3451 -0.2603
13624TIP3    H162287   4.663   0.592  15.299 -0.0244 -1.4105  1.8241
13624TIP3    H262288   4.689   0.674  15.423 -1.1889 -0.0101  1.1561
13625TIP3   OH262289   0.546   5.711  11.099 -0.0708 -0.1304 -0.1952
13625TIP3    H162290   0.559   5.804  11.114 -0.4379 -0.1025 -0.0482
13625TIP3    H262291   0.512   5.706  11.009 -2.9390  0.1188  0.8490
13626TIP3   OH262292   2.159   0.459  15.507 -0.2274 -0.7842  0.1308
13626TIP3    H162293   2.197   0.409  15.435  0.0482  0.8034 -0.8401
13626TIP3    H262294   2.104   0.525  15.466 -1.3784 -0.9043  1.4321
13627TIP3   OH262295   2.139   3.667   3.893 -0.4037 -0.2256  0.0130
13627TIP3    H162296   2.047   3.643   3.910 -0.7631  0.5916 -0.7409
13627TIP3    H262297   2.142   3.683   3.799  0.6041 -0.6067 -0.0145
13628TIP3   OH262298   3.875   4.268  16.146  0.3565  0.0026  0.1170
13628TIP3    H162299   3.832   4.233  16.069  0.4759  0.1485 -0.0162
13628TIP3    H262300   3.809   4.323  16.188 -0.7242 -2.4734  1.7824
13629TIP3   OH262301   1.753   1.627  15.186  0.1095  0.2770  0.9162
13629TIP3    H162302   1.773   1.580  15.267  0.6435  2.0186  1.8125
13629TIP3    H262303   1.658   1.635  15.186 -0.0453 -1.3497  0.4307
13630TIP3   OH262304   3.633   2.031  12.518  0.0967 -0.2059 -0.2827
13630TIP3    H162305   3.625   1.965  12.587 -0.8858 -0.4450 -0.6236
13630TIP3    H262306   3.660   1.982  12.440  1.3837  0.0874 -0.0377
13631TIP3   OH262307   5.388   5.899  14.902  0.2047 -0.5812 -0.2205
13631TIP3    H162308   5.344   5.984  14.905 -2.5654 -1.9597 -0.1527
13631TIP3    H262309   5.364   5.857  14.984  3.2263 -0.6875  0.6760
13632TIP3   OH262310   1.635   6.341  14.051 -0.1143  0.0616 -0.4569
13632TIP3    H162311   1.637   6.436  14.044 -2.1688  0.2722  0.9867
13632TIP3    H262312   1.662   6.309  13.965  0.1013  1.9576 -1.1132
13633TIP3   OH262313   6.718   2.533  10.617 -0.0229 -0.0754  0.0272
13633TIP3    H162314   6.807   2.499  10.625  0.2005  0.6713  0.7588
13633TIP3    H262315   6.728   2.628  10.616 -0.7790  0.0061 -0.3184
13634TIP3   OH262316   2.264   5.796   0.672  0.1311 -0.3290  0.0903
13634TIP3    H162317   2.244   5.884   0.642  1.2799  0.0153  0.3314
13634TIP3    H262318   2.343   5.771   0.625 -1.0213 -1.8297 -1.1385
13635TIP3   OH262319   6.598   1.085  15.029 -0.2228 -0.0401 -0.4342
13635TIP3    H162320   6.592   1.034  14.948  0.0507  0.3508 -0.7025
13635TIP3    H262321   6.534   1.155  15.018 -0.6966 -0.3972 -0.0067
13636TIP3   OH262322   4.947   5.210   0.480 -0.1420 -0.2927 -0.2404
13636TIP3    H162323   4.991   5.126   0.485  2.9090  1.3113  0.7635
13636TIP3    H262324   4.937   5.239   0.570 -2.0372  0.0324 -0.5178
13637TIP3   OH262325   3.977   0.011  12.272  0.2575 -0.1365  0.2134
13637TIP3    H162326   3.995   0.104  12.278  0.1264 -0.0154 -1.1800
13637TIP3    H262327   3.883   0.003  12.292  0.6800 -0.1987  2.2635
13638TIP3   OH262328   2.960   1.216   1.111  0.8775  0.4008 -0.3220
13638TIP3    H162329   2.898   1.156   1.152  0.9684  0.9027  0.5489
13638TIP3    H262330   2.970   1.287   1.174  2.6531  0.1202 -0.2732
13639TIP3   OH262331   4.510   5.724  11.925 -0.0389 -0.2808 -0.0907
13639TIP3    H162332   4.549   5.797  11.972  2.3797  0.4934 -3.1392
13639TIP3    H262333   4.573   5.653  11.934  0.7975  0.0876 -2.6309
13640TIP3   OH262334   5.291   3.393   3.090  0.2499  0.4881 -0.1665
13640TIP3    H162335   5.330   3.408   3.176 -2.4026 -0.7364  1.3037
13640TIP3    H262336   5.236   3.470   3.075 -2.3156 -1.0877  1.0058
13641TIP3   OH262337   3.767   4.362  14.189  1.0447 -0.1535  0.1495
13641TIP3    H162338   3.809   4.285  14.152 -0.3770 -0.0044 -1.8498
13641TIP3    H262339   3.691   4.328  14.235  0.6244 -0.0028 -0.4205
13642TIP3   OH262340   2.220   5.796   2.189  0.3535  0.1429 -0.1432
13642TIP3    H162341   2.203   5.715   2.238  1.6990 -0.1227 -0.0771
13642TIP3    H262342   2.139   5.846   2.196 -0.6817 -1.4373 -0.6448
13643TIP3   OH262343   4.213   0.057   1.820  0.3168 -0.6528 -0.4711
13643TIP3    H162344   4.168   0.118   1.762 -0.2582 -1.2275 -0.6418
13643TIP3    H262345   4.259  -0.003   1.761  0.8252 -0.4242 -0.3070
13644TIP3   OH262346   5.689   1.419   3.031  0.2527  0.2290 -0.0177
13644TIP3    H162347   5.595   1.425   3.051  0.0848 -0.7466 -0.4984
13644TIP3    H262348   5.731   1.471   3.100 -0.4368 -1.7986  2.0033
13645TIP3   OH262349   0.514   3.232  15.257  0.1406  0.2623  0.6199
13645TIP3    H162350   0.546   3.319  15.235  0.4170  0.2901  1.1138
13645TIP3    H262351   0.437   3.220  15.202  1.1318  0.0948 -0.7399
13646TIP3   OH262352   4.625   6.203  13.140  0.6565  0.4492  0.2557
13646TIP3    H162353   4.719   6.212  13.123  0.7258  0.8185  0.8205
13646TIP3    H262354   4.618   6.132  13.204  0.5956  0.8173  0.6581
13647TIP3   OH262355   4.379   2.971   3.569 -0.1781 -0.1650 -0.5071
13647TIP3    H162356   4.334   3.040   3.520 -0.2399  0.8236  0.9099
13647TIP3    H262357   4.316   2.899   3.573 -1.4135  0.9477  0.8607
13648TIP3   OH262358   5.238   2.232  15.107 -0.1461  0.1009 -0.5416
13648TIP3    H162359   5.178   2.189  15.046 -0.9063 -0.7069  0.7405
13648TIP3    H262360   5.181   2.266  15.176  0.8255 -0.3483  0.5017
13649TIP3   OH262361   5.257   5.895   4.269 -0.4255 -0.0379 -0.3389
13649TIP3    H162362   5.316   5.944   4.325  0.5561 -0.1664 -1.2514
13649TIP3    H262363   5.209   5.838   4.329 -0.2774  0.7134  0.5110
13650TIP3   OH262364   0.807   4.864  10.738 -0.0428 -0.3145  0.2511
13650TIP3    H162365   0.872   4.798  10.714 -0.3059 -0.1821 -0.8454
13650TIP3    H262366   0.835   4.943  10.693 -0.8146 -0.1895 -0.0168
13651TIP3   OH262367   3.449   6.608   0.583 -0.1102 -0.0728  0.0621
13651TIP3    H162368   3.402   6.552   0.521 -2.0666  0.1788  1.2576
13651TIP3    H262369   3.528   6.636   0.536 -1.9934  0.9075 -2.6604
13652TIP3   OH262370   2.972   3.656  14.427 -0.0771  0.2773 -0.0742
13652TIP3    H162371   3.032   3.698  14.365  0.4672  2.0318  1.5969
13652TIP3    H262372   3.018   3.577  14.455  0.7630  0.7918  0.0067
13653TIP3   OH262373   6.345   4.042  14.272 -0.1786 -0.0825 -0.9607
13653TIP3    H162374   6.301   4.056  14.188 -0.5673 -1.4535 -1.0068
13653TIP3    H262375   6.288   3.980  14.318  0.3439  0.1950  0.0717
13654TIP3   OH262376   0.988   1.116  12.816 -0.3668 -0.5247  0.1327
13654TIP3    H162377   0.911   1.062  12.799 -0.6376 -0.2343  0.4411
13654TIP3    H262378   1.002   1.110  12.910 -3.0366  3.4639  0.8632
13655TIP3   OH262379   3.801   1.629  11.947  0.4636  0.0727  0.8216
13655TIP3    H162380   3.734   1.656  11.885  1.7822  0.1594 -0.5968
13655TIP3    H262381   3.779   1.538  11.969 -0.7513  0.4597  1.2664
13656TIP3   OH262382   0.279   0.911   4.206  0.3496 -0.1732  0.6245
13656TIP3    H162383   0.288   0.943   4.296 -1.1920  0.3960  0.5863
13656TIP3    H262384   0.210   0.965   4.168  0.7676 -0.6352 -0.8057
13657TIP3   OH262385   5.081   1.267   0.929  0.0598  0.0868  0.1718
13657TIP3    H162386   4.991   1.238   0.912  0.1603 -0.4875  0.5981
13657TIP3    H262387   5.081   1.290   1.022  0.5249 -0.5492  0.3324
13658TIP3   OH262388   1.731   5.922   5.204  0.2248  0.2083 -0.5661
13658TIP3    H162389   1.657   5.887   5.253 -0.0274  1.1577 -0.2716
13658TIP3    H262390   1.779   5.844   5.175 -1.5049 -0.4567 -1.7244
13659TIP3   OH262391   2.779   3.898  12.109 -0.0660 -0.5563  0.4328
13659TIP3    H162392   2.699   3.911  12.058  1.8278  0.0227 -2.5018
13659TIP3    H262393   2.796   3.983  12.150 -0.9671 -0.7091  1.1492
13660TIP3   OH262394   1.415   3.440   4.891 -0.2873  0.1329  0.1929
13660TIP3    H162395   1.398   3.385   4.815  0.1825  1.2958 -0.7579
13660TIP3    H262396   1.397   3.383   4.966  0.4859 -1.4155 -0.7752
13661TIP3   OH262397   4.998   0.067   0.401  0.0710  0.0282 -1.1817
13661TIP3    H162398   4.915   0.109   0.425  0.5749  1.2027 -1.4710
13661TIP3    H262399   5.062   0.138   0.402  1.3442 -1.1101  0.3083
13662TIP3   OH262400   3.401   5.245   3.130 -0.3216  0.2769 -0.0860
13662TIP3    H162401   3.348   5.312   3.088 -0.6868  0.3170  0.4417
13662TIP3    H262402   3.458   5.293   3.190  0.3954  0.2466 -0.7349
13663TIP3   OH262403   4.621   4.260   5.533  0.6966 -0.1245 -0.1002
13663TIP3    H162404   4.691   4.201   5.560  0.0446 -0.1554  1.6429
13663TIP3    H262405   4.663   4.346   5.529  1.7230 -0.7259 -2.9708
13664TIP3   OH262406   0.909   6.701   3.076 -0.7297  0.3953  0.0961
13664TIP3    H162407   0.869   6.736   3.156  2.1620  0.2685  1.6583
13664TIP3    H262408   0.931   6.611   3.098  0.3025  0.4300 -0.7750
13665TIP3   OH262409   4.500   4.086   1.806  0.0905 -0.4018  0.5349
13665TIP3    H162410   4.564   4.078   1.735 -0.6906 -0.6442 -0.1409
13665TIP3    H262411   4.439   4.013   1.792 -0.7400  0.2458  0.7693
13666TIP3   OH262412   6.707   0.657  10.425 -0.1668  0.5155 -0.2036
13666TIP3    H162413   6.780   0.595  10.431  0.1103  0.8865  0.2598
13666TIP3    H262414   6.724   0.708  10.346  0.2008  0.7608  0.0324
13667TIP3   OH262415   6.161   3.817  16.421  0.5547 -0.1379  0.1960
13667TIP3    H162416   6.091   3.882  16.433 -0.5571 -0.5945 -3.1852
13667TIP3    H262417   6.126   3.736  16.457 -0.8199 -0.4058 -1.6372
13668TIP3   OH262418   2.121   6.767  15.565  0.2229 -0.0933  0.9377
13668TIP3    H162419   2.193   6.724  15.520 -0.5835 -1.0368  0.5221
13668TIP3    H262420   2.161   6.842  15.609  1.2594  0.0344 -0.1963
13669TIP3   OH262421   0.707   4.274   0.248 -0.2950 -0.0103 -0.0047
13669TIP3    H162422   0.708   4.367   0.228 -2.6888  0.4264  1.7046
13669TIP3    H262423   0.794   4.256   0.284 -0.7889  2.2214  2.4425
13670TIP3   OH262424   1.789   5.773  15.770 -0.2732 -0.3323 -0.2367
13670TIP3    H162425   1.701   5.772  15.734 -0.5748 -4.2106  0.3924
13670TIP3    H262426   1.841   5.721  15.709  1.2637  0.7078  0.1618
13671TIP3   OH262427   1.356   2.034  15.226  0.7014 -0.3519 -0.2201
13671TIP3    H162428   1.418   1.990  15.168  1.7589  0.3500  0.3805
13671TIP3    H262429   1.369   2.127  15.210 -0.0403 -0.1892  0.0797
13672TIP3   OH262430   4.265   4.295   4.517  0.3322  0.3482 -0.5273
13672TIP3    H162431   4.358   4.280   4.496  0.1652 -0.8280 -0.4613
13672TIP3    H262432   4.239   4.217   4.566  0.1708  2.1464  2.3174
13673TIP3   OH262433   2.620   4.296  15.251 -0.4719 -0.0844  0.2181
13673TIP3    H162434   2.708   4.272  15.222 -0.9456 -0.6144 -0.7826
13673TIP3    H262435   2.567   4.297  15.172 -1.2155  0.9411  0.7184
13674TIP3   OH262436   2.498   4.397  14.645 -0.0531  0.4104 -0.0886
13674TIP3    H162437   2.591   4.400  14.622  0.1201  2.6784  0.7526
13674TIP3    H262438   2.467   4.486  14.627 -1.6706  0.1117  1.1764
13675TIP3   OH262439   1.488   5.497  13.223  0.8130 -0.0165 -0.5826
13675TIP3    H162440   1.471   5.428  13.159 -0.7837 -0.9340  0.7978
13675TIP3    H262441   1.519   5.451  13.301 -1.1757  0.6770  0.6836
13676TIP3   OH262442   3.128   6.521  13.662 -0.5927 -0.5863  0.7215
13676TIP3    H162443   3.174   6.477  13.591 -3.0820  0.3534 -1.5360
13676TIP3    H262444   3.038   6.491  13.655 -1.0261  0.0422  3.0945
13677TIP3   OH262445   0.644   5.961   0.098 -0.1636  0.7454  0.2687
13677TIP3    H162446   0.699   5.913   0.160 -0.6801 -0.2150 -0.0007
13677TIP3    H262447   0.705   6.013   0.046  0.4892 -0.2093  0.0612
13678TIP3   OH262448   4.318   4.319  14.193 -0.4084 -0.3240 -0.0073
13678TIP3    H162449   4.329   4.253  14.125  1.4455 -1.7943  1.6521
13678TIP3    H262450   4.257   4.279  14.255  0.5430 -0.4016  0.8874
13679TIP3   OH262451   5.576   0.186   3.423 -0.0492 -0.3488  0.2346
13679TIP3    H162452   5.578   0.094   3.395  0.7465 -0.3250  0.2029
13679TIP3    H262453   5.640   0.229   3.366  0.8000 -0.0945  1.3739
13680TIP3   OH262454   4.914   4.673   3.237 -0.0101  0.7459 -0.2697
13680TIP3    H162455   4.957   4.644   3.318 -0.0994  0.1605 -0.4334
13680TIP3    H262456   4.865   4.751   3.263  1.8316  1.9526 -0.2448
13681TIP3   OH262457   1.984   5.535  12.894  0.4874 -0.1229  0.1375
13681TIP3    H162458   1.965   5.617  12.848  0.3929 -0.4170 -0.3503
13681TIP3    H262459   2.040   5.561  12.967 -0.0525  0.4610  0.3464
13682TIP3   OH262460   4.517   6.018  17.084  0.2452  0.2603 -0.5313
13682TIP3    H162461   4.567   6.024  17.002  2.3918  1.3256  0.8166
13682TIP3    H262462   4.573   5.967  17.143 -0.1312  1.6172  1.0551
13683TIP3   OH262463   0.945   2.368  16.929 -0.3144 -0.3112  0.1786
13683TIP3    H162464   1.027   2.323  16.946 -0.5309 -0.9463 -0.4318
13683TIP3    H262465   0.913   2.394  17.016  1.8563  2.3538  0.2586
13684TIP3   OH262466   0.638   0.346  13.207 -0.2491 -0.4897  0.4575
13684TIP3    H162467   0.552   0.365  13.244 -0.4545 -0.7601  0.1219
13684TIP3    H262468   0.626   0.354  13.112  0.4799  1.0756  0.4703
13685TIP3   OH262469   1.680   0.506  13.156  0.0760  0.3782 -0.3289
13685TIP3    H162470   1.638   0.424  13.126  0.2375 -0.0684  0.6582
13685TIP3    H262471   1.726   0.539  13.078 -0.4427 -0.1840 -0.8814
13686TIP3   OH262472   5.704   1.924  17.060  0.4015 -0.0759  0.1087
13686TIP3    H162473   5.751   1.972  16.992 -1.1707 -1.9839 -2.4110
13686TIP3    H262474   5.620   1.969  17.069  0.4672 -0.0363  0.5466
13687TIP3   OH262475   0.751   0.621   1.220 -0.5013  0.0354 -0.1816
13687TIP3    H162476   0.811   0.670   1.164 -1.0606  0.5663 -0.3124
13687TIP3    H262477   0.787   0.631   1.308 -0.2687  0.1585 -0.2897
13688TIP3   OH262478   1.810   4.398  14.744  0.2832  0.1304 -0.3862
13688TIP3    H162479   1.856   4.446  14.675 -0.2691  0.2852 -0.6515
13688TIP3    H262480   1.785   4.465  14.808 -1.4552  0.3823 -1.2940
13689TIP3   OH262481   0.296   2.456  16.098  0.3022 -0.6753 -0.1323
13689TIP3    H162482   0.263   2.392  16.161  0.2230  0.0508  0.5619
13689TIP3    H262483   0.223   2.467  16.036 -0.4691  0.2829  0.9171
13690TIP3   OH262484   1.388   5.797  13.002  0.2317  0.1324 -0.1149
13690TIP3    H162485   1.363   5.750  12.923 -0.4097  1.4586 -0.7134
13690TIP3    H262486   1.482   5.810  12.993  0.0789  0.7106 -0.8927
13691TIP3   OH262487   6.636   5.919   1.557  0.3408 -0.3328 -0.2498
13691TIP3    H162488   6.559   5.976   1.563 -0.5274 -1.3793 -1.2296
13691TIP3    H262489   6.613   5.856   1.489  1.8366 -1.0234 -0.1158
13692TIP3   OH262490   2.556   1.699  15.403  0.5152 -0.0622 -0.1935
13692TIP3    H162491   2.648   1.722  15.388  0.4085  0.4220 -0.1261
13692TIP3    H262492   2.521   1.685  15.316  1.2291 -2.5554 -0.0982
13693TIP3   OH262493   2.979   2.383  14.153 -0.1021 -0.4329  0.6022
13693TIP3    H162494   2.915   2.432  14.204 -0.4174 -0.9406  0.6905
13693TIP3    H262495   2.930   2.347  14.079  0.3512  0.2969 -0.0621
13694TIP3   OH262496   2.379   2.379   3.401 -0.2959 -0.0240 -0.2458
13694TIP3    H162497   2.402   2.343   3.487 -1.4773 -1.7458 -0.5978
13694TIP3    H262498   2.449   2.351   3.343 -0.6037 -0.7618 -0.2700
13695TIP3   OH262499   0.389   4.134   4.669  0.5145  0.6026  0.1935
13695TIP3    H162500   0.346   4.067   4.616 -1.0925  0.6654  1.3659
13695TIP3    H262501   0.479   4.103   4.679  0.6333  0.2304 -1.9377
13696TIP3   OH262502   1.085   1.442   6.430 -0.2983  0.2030  0.7857
13696TIP3    H162503   0.997   1.411   6.452 -1.3984  4.5457  3.2149
13696TIP3    H262504   1.072   1.504   6.359  1.1830 -1.1338 -0.6792
13697TIP3   OH262505   0.495   0.290   4.657  0.8423  0.5166  0.1241
13697TIP3    H162506   0.579   0.277   4.613  0.6123  0.2496 -0.2373
13697TIP3    H262507   0.477   0.206   4.700  0.4684  0.3809 -0.2972
13698TIP3   OH262508   6.086   5.995   6.549  0.0529  0.1519  0.4620
13698TIP3    H162509   6.036   5.986   6.631 -0.5034 -1.4058 -0.0414
13698TIP3    H262510   6.113   5.906   6.527 -1.1723  0.3408 -1.9161
13699TIP3   OH262511   2.616   3.386   0.728  0.8707 -0.5809  0.4152
13699TIP3    H162512   2.593   3.439   0.651 -2.0690 -1.0677  0.9023
13699TIP3    H262513   2.666   3.446   0.784 -0.9131  1.1989  0.1850
13700TIP3   OH262514   0.080   4.375   1.666 -0.2807  0.0636  0.1436
13700TIP3    H162515   0.119   4.453   1.628  0.6604 -0.8846 -0.9025
13700TIP3    H262516   0.119   4.368   1.753  0.5974  0.0666 -0.2449
13701TIP3   OH262517   5.830   4.317   5.879 -0.3543  0.0733 -0.3053
13701TIP3    H162518   5.850   4.343   5.969 -1.3706 -0.5432  0.1101
13701TIP3    H262519   5.737   4.296   5.881 -0.4296  0.2747 -1.5593
13702TIP3   OH262520   5.116   3.901   2.678  0.3453  0.0659 -0.3277
13702TIP3    H162521   5.195   3.872   2.632  0.5165  2.6992 -1.7981
13702TIP3    H262522   5.149   3.934   2.762  0.6530 -0.1337 -0.3693
13703TIP3   OH262523   6.275   0.134   4.998  0.1951  0.0818 -0.8012
13703TIP3    H162524   6.330   0.108   5.072  0.8838  2.4314 -0.4609
13703TIP3    H262525   6.190   0.155   5.038  0.1512  0.0150 -0.8596
13704TIP3   OH262526   1.236   0.438   1.761  0.5137 -0.0298  0.1668
13704TIP3    H162527   1.183   0.371   1.719 -0.1035  0.2077  0.5497
13704TIP3    H262528   1.297   0.390   1.817 -1.0640 -0.2237  1.7489
13705TIP3   OH262529   4.593   6.402  11.555 -0.2225 -0.4437  0.1270
13705TIP3    H162530   4.583   6.485  11.508 -2.6052  0.1608  1.5706
13705TIP3    H262531   4.635   6.343  11.492 -1.0841  1.0456 -1.8989
13706TIP3   OH262532   0.290   0.816  15.497  0.3640 -0.2613  0.3111
13706TIP3    H162533   0.376   0.802  15.537  0.5411  1.2453  0.4687
13706TIP3    H262534   0.304   0.883  15.431 -0.1582 -1.9565 -1.5794
13707TIP3   OH262535   2.585   2.622  12.649  0.3831 -0.2434  0.5316
13707TIP3    H162536   2.604   2.544  12.596 -1.6881 -0.2391 -0.2639
13707TIP3    H262537   2.501   2.603  12.690 -0.4133  1.8030 -0.1300
13708TIP3   OH262538   0.310   1.430  13.038  0.1039 -0.1124 -0.1303
13708TIP3    H162539   0.343   1.509  12.995  1.7271 -0.6259  0.1510
13708TIP3    H262540   0.218   1.426  13.012  0.2410  1.3484 -0.9233
13709TIP3   OH262541   5.733   2.836  17.220  0.0392 -0.0979 -0.2274
13709TIP3    H162542   5.642   2.847  17.248  0.2862  2.0959 -0.1897
13709TIP3    H262543   5.747   2.742  17.218 -1.6618 -0.4073  1.6530
13710TIP3   OH262544   0.325   1.734   4.211  0.0419  0.6701 -0.6425
13710TIP3    H162545   0.281   1.784   4.280  1.4266  0.2852  0.5303
13710TIP3    H262546   0.352   1.801   4.147  1.6687  1.4291  0.7959
13711TIP3   OH262547   4.889   2.595   2.464 -0.0786 -0.2626  0.1417
13711TIP3    H162548   4.946   2.553   2.528  1.5232  2.7221  0.7648
13711TIP3    H262549   4.864   2.678   2.505 -3.3200 -0.6350 -0.9479
13712TIP3   OH262550   6.563   0.003   4.378 -0.2617  0.1101  0.0188
13712TIP3    H162551   6.652   0.030   4.399 -0.1759 -2.1019  2.8009
13712TIP3    H262552   6.573  -0.080   4.331 -0.7658  1.7401 -3.1347
13713TIP3   OH262553   4.997   4.120  14.474  0.0969 -0.4185  0.1689
13713TIP3    H162554   4.960   4.203  14.445 -1.9533 -0.3444  2.8331
13713TIP3    H262555   4.961   4.055  14.413  0.3036  0.3992 -0.8400
13714TIP3   OH262556   5.310   4.937   2.463  0.1569 -0.1155 -0.0202
13714TIP3    H162557   5.230   4.972   2.423 -0.1116 -0.0294  0.5897
13714TIP3    H262558   5.380   4.991   2.427  0.0825 -1.0201 -1.5554
13715TIP3   OH262559   3.555   3.968  17.018  0.1502 -0.4212  0.3176
13715TIP3    H162560   3.504   4.014  16.952 -0.4629 -0.9562  0.4117
13715TIP3    H262561   3.620   4.032  17.047  0.5272 -0.2359 -0.9112
13716TIP3   OH262562   3.545   4.856   5.462 -0.4650  0.2345  0.5282
13716TIP3    H162563   3.454   4.857   5.432 -0.3028 -2.5858 -0.1573
13716TIP3    H262564   3.594   4.896   5.389 -0.8722 -0.4872 -0.1492
13717TIP3   OH262565   2.510   0.280   3.038  0.1910  0.5448  0.3804
13717TIP3    H162566   2.457   0.269   3.117 -2.4762 -2.2898 -1.6658
13717TIP3    H262567   2.543   0.193   3.019  2.8252  1.6443 -0.3468
13718TIP3   OH262568   0.923   1.484   3.273 -0.5878  0.1836 -0.1251
13718TIP3    H162569   0.880   1.440   3.346 -0.5389  2.7745  1.5346
13718TIP3    H262570   1.009   1.441   3.266  0.0985  1.0258  2.4942
13719TIP3   OH262571   4.776   4.888  15.631  0.2920  0.9427  0.4157
13719TIP3    H162572   4.703   4.895  15.692 -0.9766 -2.6429 -0.5771
13719TIP3    H262573   4.743   4.835  15.559  2.8310  2.1522 -1.7403
13720TIP3   OH262574   5.303   4.363   5.464  0.6574  0.1660 -0.0300
13720TIP3    H162575   5.291   4.448   5.506  0.9331 -1.4965  3.5517
13720TIP3    H262576   5.217   4.343   5.426 -0.1282  0.9014  1.3192
13721TIP3   OH262577   6.779   0.068   2.190 -0.0937  0.0626  0.3048
13721TIP3    H162578   6.842   0.122   2.143 -0.0574  0.0661  0.3574
13721TIP3    H262579   6.823  -0.016   2.202  0.3878  0.4656  1.4453
13722TIP3   OH262580   5.306   1.188  12.631 -0.2473 -0.0945 -0.7126
13722TIP3    H162581   5.399   1.169  12.635 -0.3669 -0.8420 -1.3798
13722TIP3    H262582   5.295   1.267  12.684  0.8583  0.3538 -1.1443
13723TIP3   OH262583   0.461   0.954  12.272  0.4872  0.6514 -0.4258
13723TIP3    H162584   0.523   1.007  12.222 -2.2273  1.0261 -3.6269
13723TIP3    H262585   0.484   0.864  12.253  0.9356  0.7694 -0.4355
13724TIP3   OH262586   5.166   4.578  11.972  0.1343 -0.2812 -0.9231
13724TIP3    H162587   5.256   4.585  12.004 -0.0884  0.7657 -0.5171
13724TIP3    H262588   5.175   4.551  11.881  0.8265 -1.2588 -0.5814
13725TIP3   OH262589   0.827   5.484  12.489  0.0040 -0.4726  0.0292
13725TIP3    H162590   0.838   5.535  12.569 -0.8859  0.0482 -0.1786
13725TIP3    H262591   0.916   5.478  12.452  0.3884 -0.5727  0.9602
13726TIP3   OH262592   1.054   4.510   4.967 -0.2424 -0.7100 -0.2727
13726TIP3    H162593   1.062   4.446   5.038  1.2094  0.3183  0.5078
13726TIP3    H262594   1.144   4.524   4.938 -0.6443  0.3560 -1.0022
13727TIP3   OH262595   3.596   5.921  10.569  0.3764  0.1297 -1.0058
13727TIP3    H162596   3.502   5.907  10.557  0.6606 -2.7161 -0.3670
13727TIP3    H262597   3.635   5.838  10.543  2.4289  0.0720  2.0044
13728TIP3   OH262598   4.809   2.717   3.151  0.2392 -0.4110 -0.1658
13728TIP3    H162599   4.788   2.649   3.087 -0.0506 -1.3641  0.9295
13728TIP3    H262600   4.727   2.732   3.197  0.1884  1.0226 -0.7232
13729TIP3   OH262601   3.775   5.828  15.705 -0.1428  0.6357 -0.6768
13729TIP3    H162602   3.848   5.766  15.705 -1.4384 -0.9140 -0.2565
13729TIP3    H262603   3.811   5.907  15.746  1.6315  0.3060 -1.5555
13730TIP3   OH262604   0.487   3.912   4.431  0.5707 -0.0343  0.2715
13730TIP3    H162605   0.526   3.980   4.487 -1.1011  0.7636  0.4794
13730TIP3    H262606   0.562   3.876   4.382  1.5116  1.7977  0.3131
13731TIP3   OH262607   3.654   2.564   5.116 -0.4300 -0.8433  0.2277
13731TIP3    H162608   3.585   2.512   5.158  0.2607 -1.2808  0.8261
13731TIP3    H262609   3.608   2.614   5.048 -1.4627 -0.5285  1.1448
13732TIP3   OH262610   0.740   0.173  14.621  0.3600 -0.8804  0.3934
13732TIP3    H162611   0.755   0.137  14.533 -1.1891 -0.7441  0.0558
13732TIP3    H262612   0.655   0.138  14.647  0.3244 -0.0692  1.4005
13733TIP3   OH262613   2.478   0.162  16.338 -0.5817 -0.6351 -0.6057
13733TIP3    H162614   2.517   0.231  16.392 -1.4753 -0.1439 -0.5596
13733TIP3    H262615   2.544   0.093  16.335  0.0043 -0.1140  0.0277
13734TIP3   OH262616   1.336   1.178   5.152  0.5080  0.7542  0.0776
13734TIP3    H162617   1.289   1.132   5.222  0.1218 -1.7452 -1.7631
13734TIP3    H262618   1.428   1.174   5.178  0.3518 -0.0432  0.5202
13735TIP3   OH262619   5.387   1.780  15.160  0.3072 -0.2747  0.1978
13735TIP3    H162620   5.462   1.760  15.216  1.9375  2.0660 -1.0704
13735TIP3    H262621   5.356   1.865  15.192 -2.1771 -1.4526  1.0482
13736TIP3   OH262622   1.401   5.212  15.383  0.4174 -0.2857 -0.1310
13736TIP3    H162623   1.327   5.210  15.323  0.8934  1.9411 -0.8494
13736TIP3    H262624   1.478   5.200  15.326  0.9049  2.2947 -0.0923
13737TIP3   OH262625   5.569   3.657  16.095 -0.1077  0.1709  0.1449
13737TIP3    H162626   5.527   3.637  16.179 -0.3224 -1.4938 -0.3381
13737TIP3    H262627   5.541   3.745  16.074 -0.0697  0.6009  1.8150
13738TIP3   OH262628   6.338   6.241   3.152  0.6267 -0.1732  0.1439
13738TIP3    H162629   6.385   6.322   3.129  0.9135 -0.8140 -1.6602
13738TIP3    H262630   6.354   6.183   3.077 -0.9845 -1.2882  0.6476
13739TIP3   OH262631   5.830   0.817   5.987 -0.2621  0.1215  0.4303
13739TIP3    H162632   5.799   0.808   5.898 -1.5181 -2.0770  1.0511
13739TIP3    H262633   5.760   0.862   6.034 -0.8378 -1.2573  0.9246
13740TIP3   OH262634   0.939   4.190   1.552  0.0086  0.2411  0.2019
13740TIP3    H162635   1.014   4.248   1.561  0.2860 -0.4189  2.3462
13740TIP3    H262636   0.946   4.129   1.625 -0.0127 -2.8541 -2.2441
13741TIP3   OH262637   0.512   3.434   5.228  0.3464 -0.3868 -0.1369
13741TIP3    H162638   0.584   3.493   5.251 -1.1883  0.6189  2.4038
13741TIP3    H262639   0.554   3.353   5.203  2.4044 -0.0202  1.9430
13742TIP3   OH262640   2.698   1.941   0.827 -0.1856  0.4751 -0.3447
13742TIP3    H162641   2.611   1.925   0.788 -0.5201 -1.0240  0.9846
13742TIP3    H262642   2.684   2.013   0.888 -0.6571 -0.2719  0.4273
13743TIP3   OH262643   3.068   1.632  16.091  0.2192  0.5327 -0.1602
13743TIP3    H162644   3.061   1.542  16.061  1.4410 -0.0160  1.0967
13743TIP3    H262645   3.151   1.663  16.055 -0.7829  1.5808 -1.6143
13744TIP3   OH262646   6.388   4.848  16.480 -0.0619 -0.4187 -0.2116
13744TIP3    H162647   6.365   4.924  16.534  0.4990 -0.0954 -0.4150
13744TIP3    H262648   6.429   4.787  16.541  0.3801 -0.1416 -0.2246
13745TIP3   OH262649   0.966   2.016   3.893  0.5179 -0.0429  0.0132
13745TIP3    H162650   0.939   1.999   3.802 -0.0127 -0.5400  0.2576
13745TIP3    H262651   1.060   2.002   3.893  0.5454  0.1111 -0.5006
13746TIP3   OH262652   5.686   5.591   4.798  0.5978 -0.0672 -0.0287
13746TIP3    H162653   5.737   5.659   4.843  0.1155  1.8328 -2.2708
13746TIP3    H262654   5.676   5.624   4.709 -1.3522 -2.1776 -0.6155
13747TIP3   OH262655   6.372   2.791   1.201 -0.3165 -0.4846  0.0318
13747TIP3    H162656   6.326   2.816   1.281  0.2671  2.0515 -0.3767
13747TIP3    H262657   6.465   2.794   1.226  0.0119  2.7016 -1.2896
13748TIP3   OH262658   3.967   0.745  13.116  0.6472  0.2634 -0.0010
13748TIP3    H162659   3.910   0.748  13.192 -0.7296  2.2102 -1.0771
13748TIP3    H262660   4.052   0.777  13.148  0.9993 -1.9600  1.4224
13749TIP3   OH262661   0.420   1.214   5.301 -0.4902 -0.1434 -0.0287
13749TIP3    H162662   0.425   1.125   5.337  0.3248  0.3864  1.2071
13749TIP3    H262663   0.362   1.261   5.361 -0.5306  0.2949 -0.4093
13750TIP3   OH262664   4.133   4.701  16.570  0.1492 -0.2865 -0.1573
13750TIP3    H162665   4.220   4.664  16.576 -0.3285 -1.4125 -0.0549
13750TIP3    H262666   4.090   4.675  16.651 -0.3214  0.1499 -0.2620
13751TIP3   OH262667   4.736   4.537   6.030 -0.2658  0.3465  0.0927
13751TIP3    H162668   4.655   4.501   6.065 -0.5064  1.3320  0.5709
13751TIP3    H262669   4.804   4.474   6.056 -0.9012 -0.6283 -0.5558
13752TIP3   OH262670   5.311   6.594   1.374 -0.3496  0.5367 -0.6283
13752TIP3    H162671   5.393   6.546   1.363 -0.9420 -0.5203 -0.5359
13752TIP3    H262672   5.256   6.566   1.301 -1.5431 -0.7579  0.6950
13753TIP3   OH262673   3.820   3.614  14.475  0.2159  0.0785  0.3032
13753TIP3    H162674   3.864   3.539  14.434  1.2905 -0.1015  1.7285
13753TIP3    H262675   3.736   3.579  14.504  0.2021 -0.2593 -0.1417
13754TIP3   OH262676   1.201   1.305  15.188 -0.2218 -0.1846 -0.4275
13754TIP3    H162677   1.217   1.384  15.239  0.0662  0.5468 -1.6315
13754TIP3    H262678   1.286   1.284  15.148 -0.4439 -0.7414 -0.6179
13755TIP3   OH262679   1.705   6.695   5.807 -0.3470 -0.5805 -0.2141
13755TIP3    H162680   1.739   6.620   5.855 -0.6723 -0.5225  0.1035
13755TIP3    H262681   1.743   6.771   5.850 -2.9068 -0.3625  1.8199
13756TIP3   OH262682   4.117   5.017   0.671  0.2713  0.7283 -0.3727
13756TIP3    H162683   4.181   4.960   0.627 -0.2957  1.0983 -1.6897
13756TIP3    H262684   4.152   5.105   0.660  0.2559  0.8039  0.1565
13757TIP3   OH262685   1.037   0.976  13.968  0.1086  0.1822  0.3365
13757TIP3    H162686   0.960   0.923  13.949  0.7315  0.0708 -1.9790
13757TIP3    H262687   1.004   1.047  14.023 -1.5201 -0.1955 -0.1196
13758TIP3   OH262688   1.547   2.447  15.744  0.3500  0.0483 -0.0190
13758TIP3    H162689   1.461   2.460  15.783  0.0028  3.1285 -1.6679
13758TIP3    H262690   1.529   2.420  15.654  1.1597 -1.7072  0.3105
13759TIP3   OH262691   4.851   0.074   4.575 -0.3303 -0.2780 -0.4098
13759TIP3    H162692   4.814   0.000   4.527 -0.5222 -0.2945 -0.2403
13759TIP3    H262693   4.855   0.044   4.666 -1.5502  0.3500 -0.1425
13760TIP3   OH262694   1.372   4.127  13.721  0.1580 -0.8513 -0.0989
13760TIP3    H162695   1.288   4.144  13.679 -1.4652 -3.3734  1.9780
13760TIP3    H262696   1.391   4.207  13.770 -3.1681 -1.6773  2.7751
13761TIP3   OH262697   5.284   0.291   4.075  0.2255 -0.4443  0.3266
13761TIP3    H162698   5.221   0.224   4.048 -0.5612  0.1155  0.8045
13761TIP3    H262699   5.267   0.305   4.168 -2.0821  3.0813 -0.5364
13762TIP3   OH262700   6.283   6.031   0.636  0.2157 -0.0890  0.6681
13762TIP3    H162701   6.221   5.966   0.668 -0.4747 -0.4710 -1.3729
13762TIP3    H262702   6.239   6.073   0.563  1.8767  0.5213 -0.0172
13763TIP3   OH262703   3.919   2.996   2.858 -0.6997  0.1554 -0.0433
13763TIP3    H162704   3.917   3.067   2.795  0.0034 -1.0788 -1.4881
13763TIP3    H262705   4.005   2.956   2.847  0.0197  0.8055  2.7381
13764TIP3   OH262706   2.498   5.888  11.238  0.3899 -0.3134 -0.4250
13764TIP3    H162707   2.513   5.888  11.143  2.1565 -1.8798 -0.1635
13764TIP3    H262708   2.414   5.843  11.249 -0.5694  1.2045 -1.3318
13765TIP3   OH262709   5.938   2.941   3.226  0.5076  0.1948  0.2987
13765TIP3    H162710   5.855   2.988   3.214 -1.5582 -3.2230  0.6670
13765TIP3    H262711   5.956   2.947   3.320 -0.3885 -0.7928  0.5338
13766TIP3   OH262712   5.111   4.697   2.723  0.5848  0.3386 -0.0855
13766TIP3    H162713   5.025   4.695   2.680  1.0307  0.6669 -0.9998
13766TIP3    H262714   5.094   4.662   2.811 -0.4832  0.3955 -0.2574
13767TIP3   OH262715   3.937   6.778  11.162 -0.5680 -0.4093  0.2269
13767TIP3    H162716   3.902   6.867  11.165 -1.2761 -0.7260  1.8952
13767TIP3    H262717   3.864   6.724  11.131 -1.4240 -0.9688  3.0499
13768TIP3   OH262718   6.403   1.484  13.811 -0.0870 -0.2820 -0.2987
13768TIP3    H162719   6.405   1.568  13.766  1.1230 -2.1016 -3.9027
13768TIP3    H262720   6.312   1.455  13.803 -0.5426  0.7229  1.0943
13769TIP3   OH262721   5.139   1.719  15.036  0.4094 -0.1055  0.5386
13769TIP3    H162722   5.228   1.753  15.043  0.7231 -0.8127 -0.0402
13769TIP3    H262723   5.092   1.762  15.107  0.7560  1.7011 -0.2688
13770TIP3   OH262724   1.349   1.309  12.027  0.1180  0.0280 -0.0457
13770TIP3    H162725   1.311   1.245  12.087  0.2594 -0.1292 -0.1240
13770TIP3    H262726   1.355   1.389  12.079  0.2239 -0.1033  0.1448
13771TIP3   OH262727   4.257   0.542   4.725 -0.0660 -0.5937 -0.3050
13771TIP3    H162728   4.260   0.483   4.800 -0.5790  0.1967  0.3462
13771TIP3    H262729   4.199   0.613   4.753 -2.3599 -1.5674 -2.3625
13772TIP3   OH262730   3.326   0.788  16.966  0.0629  0.3098 -0.3934
13772TIP3    H162731   3.372   0.712  17.000  1.7805  0.0159 -3.2544
13772TIP3    H262732   3.376   0.863  16.997 -1.1744  0.3144  1.7397
13773TIP3   OH262733   4.207   4.949   4.670  0.4438  0.0903 -0.1070
13773TIP3    H162734   4.205   4.853   4.666  3.0117 -0.0388  0.8832
13773TIP3    H262735   4.202   4.969   4.764  2.8380  0.7881 -0.0906
13774TIP3   OH262736   5.578   3.919  14.965  0.1911  0.4877 -0.0492
13774TIP3    H162737   5.555   3.880  15.050 -1.0073 -0.4063 -0.7721
13774TIP3    H262738   5.498   3.963  14.937  0.2924 -0.0543 -1.1833
13775TIP3   OH262739   6.175   1.648  14.657  0.4521 -0.5320  0.0014
13775TIP3    H162740   6.238   1.584  14.691  0.5499 -0.3080  0.2436
13775TIP3    H262741   6.162   1.623  14.566  1.0747 -0.4329 -0.1149
13776TIP3   OH262742   0.498   0.619  15.839  0.2818 -0.0079  0.1033
13776TIP3    H162743   0.523   0.711  15.841  0.8023 -0.0921 -1.5261
13776TIP3    H262744   0.407   0.618  15.868  0.3032  1.0100  0.2293
13777TIP3   OH262745   1.395   2.899  11.831  0.6076 -0.3294  0.3172
13777TIP3    H162746   1.432   2.852  11.756  1.1002 -0.7099  0.7923
13777TIP3    H262747   1.469   2.951  11.864  0.9470 -1.7066  1.7641
13778TIP3   OH262748   3.497   3.250   6.174  0.3748  0.3636  0.0937
13778TIP3    H162749   3.470   3.159   6.187  0.9939  0.5186  2.7295
13778TIP3    H262750   3.415   3.298   6.164 -0.0015 -0.2815  0.0160
13779TIP3   OH262751   6.782   3.372   5.542  0.1138 -0.0836  0.1628
13779TIP3    H162752   6.775   3.450   5.486 -1.9017 -0.7086 -0.5230
13779TIP3    H262753   6.858   3.324   5.507  0.2262  0.6459 -0.6186
13780TIP3   OH262754   0.786   4.677   0.778 -0.2327 -0.3024 -0.0752
13780TIP3    H162755   0.764   4.607   0.840 -0.3496  0.4913  0.7837
13780TIP3    H262756   0.881   4.671   0.769 -0.1831 -0.2482  0.3904
13781TIP3   OH262757   0.301   2.923   4.769  0.1684  1.0759 -0.1405
13781TIP3    H162758   0.220   2.895   4.813  0.6638  1.7652  1.2687
13781TIP3    H262759   0.275   3.001   4.719 -0.1166  1.0960  0.0332
13782TIP3   OH262760   4.415   0.638  12.340  0.0528  0.3171 -0.3480
13782TIP3    H162761   4.410   0.562  12.399  1.0172  0.7370  0.2803
13782TIP3    H262762   4.501   0.676  12.357 -0.4239  1.5531 -0.6713
13783TIP3   OH262763   5.817   1.182  11.726 -1.0549 -0.0967 -0.4452
13783TIP3    H162764   5.824   1.086  11.723 -0.8405 -0.0759 -0.6351
13783TIP3    H262765   5.870   1.207  11.802 -0.6805 -0.0896 -0.7074
13784TIP3   OH262766   1.509   0.622  15.540  0.3456 -0.3402  0.0061
13784TIP3    H162767   1.452   0.555  15.502 -0.0304 -1.5275  2.5695
13784TIP3    H262768   1.450   0.693  15.565 -0.1227 -1.6487  2.8338
13785TIP3   OH262769   5.792   1.127   5.948  0.5774 -0.1656  0.4596
13785TIP3    H162770   5.735   1.108   6.022  1.1247 -2.5652  0.3048
13785TIP3    H262771   5.733   1.156   5.879 -0.1782 -0.1074  1.1238
13786TIP3   OH262772   3.022   2.422   2.074 -0.0169  0.1163 -0.8326
13786TIP3    H162773   3.025   2.496   2.135 -0.6876  1.7681 -2.7109
13786TIP3    H262774   2.931   2.421   2.043  0.6039  0.1269 -2.7174
13787TIP3   OH262775   2.213   1.520   0.948 -0.5574  0.1669  0.2845
13787TIP3    H162776   2.307   1.529   0.935 -0.6412  0.6232 -0.0228
13787TIP3    H262777   2.181   1.609   0.962 -0.9654  0.0329  0.2352
13788TIP3   OH262778   2.949   1.769  13.230  0.2588  0.3225  0.1218
13788TIP3    H162779   3.015   1.713  13.272 -0.3740 -0.8528 -0.4195
13788TIP3    H262780   2.937   1.730  13.144 -0.4829  1.0793 -0.1137
13789TIP3   OH262781   1.281   1.160   1.672 -0.0281 -0.4456 -0.4029
13789TIP3    H162782   1.327   1.211   1.605  0.2753 -0.0441  0.1031
13789TIP3    H262783   1.189   1.162   1.645 -0.1321  1.0082  0.0084
13790TIP3   OH262784   2.357   5.713   5.026  0.6497  0.2306 -0.2565
13790TIP3    H162785   2.385   5.635   4.978  0.2168 -0.5884  0.8193
13790TIP3    H262786   2.423   5.726   5.093  1.0266  1.1368 -0.7822
13791TIP3   OH262787   0.687   5.725  11.513  0.2076 -0.1296  0.2789
13791TIP3    H162788   0.671   5.653  11.452  0.1407 -0.4863  0.7136
13791TIP3    H262789   0.775   5.757  11.492 -0.6469  1.1683 -1.4463
13792TIP3   OH262790   0.669   5.128   1.051 -0.9985  0.1635  0.0948
13792TIP3    H162791   0.590   5.176   1.076 -1.4281 -0.0109 -0.9008
13792TIP3    H262792   0.682   5.149   0.959  0.1614  0.2397  0.2732
13793TIP3   OH262793   3.615   5.324   5.434 -0.6920  0.6238 -0.2558
13793TIP3    H162794   3.566   5.253   5.475 -1.2712  0.6961 -0.8071
13793TIP3    H262795   3.676   5.355   5.501  0.0258 -0.8368 -0.2172
13794TIP3   OH262796   2.441   5.269  13.168 -0.3662 -0.6057 -0.3477
13794TIP3    H162797   2.496   5.209  13.219  1.0754  0.6653 -0.3808
13794TIP3    H262798   2.487   5.353  13.172 -0.7852 -0.2288 -2.8503
13795TIP3   OH262799   6.334   6.087   0.920  0.0775 -0.1081  0.4001
13795TIP3    H162800   6.270   6.031   0.876 -0.6163 -0.0762  1.3571
13795TIP3    H262801   6.322   6.173   0.879 -0.5926 -0.0731  0.6559
13796TIP3   OH262802   2.494   0.228   6.177 -0.1056  0.4033  0.4116
13796TIP3    H162803   2.459   0.302   6.126  1.1850  0.2973 -0.6385
13796TIP3    H262804   2.459   0.150   6.133 -0.2385  0.3413  0.6235
13797TIP3   OH262805   4.974   0.982  12.364  0.1367  0.0264 -0.1913
13797TIP3    H162806   4.917   1.048  12.324 -1.7867  0.1846  2.7039
13797TIP3    H262807   5.051   1.031  12.391  0.2414  0.4292 -1.1805
13798TIP3   OH262808   0.477   5.878  14.570 -0.1903 -0.0755  0.4568
13798TIP3    H162809   0.489   5.820  14.494  1.1166  0.6168  0.1178
13798TIP3    H262810   0.399   5.929  14.549  0.2294  0.1963 -0.4864
13799TIP3   OH262811   3.543   1.422  13.275  0.4958  0.2227  0.3250
13799TIP3    H162812   3.548   1.327  13.265  1.7188  0.2097  0.9846
13799TIP3    H262813   3.603   1.442  13.346 -2.5452  1.1008  2.7677
13800TIP3   OH262814   5.403   0.283   5.541  0.3833 -0.3870  0.5204
13800TIP3    H162815   5.355   0.357   5.505  1.2980 -0.4158 -0.7808
13800TIP3    H262816   5.359   0.264   5.624  0.2605  1.7230  0.9558
13801TIP3   OH262817   2.079   5.591   1.915 -0.5756  0.2055 -0.4095
13801TIP3    H162818   2.120   5.505   1.913 -0.5324  0.2561 -2.6616
13801TIP3    H262819   2.013   5.585   1.984  1.1388 -0.8200  1.1871
13802TIP3   OH262820   1.064   5.750   5.066  0.4229 -0.4231  0.1574
13802TIP3    H162821   1.148   5.777   5.029  0.8218 -1.6819  0.1236
13802TIP3    H262822   1.015   5.832   5.077  1.4622  0.2658 -0.2817
13803TIP3   OH262823   6.207   2.613  12.632  0.1179  0.0705 -0.2001
13803TIP3    H162824   6.218   2.704  12.604  1.8055 -0.6298 -1.9596
13803TIP3    H262825   6.266   2.564  12.575 -0.2662 -2.0531  1.1948
13804TIP3   OH262826   1.680   1.798   1.001 -0.6432 -0.0864  0.1031
13804TIP3    H162827   1.701   1.705   0.992 -0.2940 -0.2450  2.2938
13804TIP3    H262828   1.672   1.811   1.096 -2.8984  1.6328 -0.3004
13805TIP3   OH262829   5.345   1.836   3.076 -0.3483  0.0008 -0.0171
13805TIP3    H162830   5.344   1.879   3.161  0.1473  2.4751 -1.2406
13805TIP3    H262831   5.369   1.904   3.014  4.6241 -2.8816 -1.5491
13806TIP3   OH262832   1.659   5.194   5.871  0.3736 -0.0642 -0.2269
13806TIP3    H162833   1.643   5.284   5.844 -1.1035 -0.0629  0.6228
13806TIP3    H262834   1.751   5.193   5.897  0.2408  1.3504  0.3198
13807TIP3   OH262835   1.105   4.650   0.790 -0.7910  0.2711  0.1416
13807TIP3    H162836   1.119   4.637   0.696 -2.6394 -0.9482  0.0068
13807TIP3    H262837   1.192   4.646   0.828 -0.2373 -1.5209 -1.2580
13808TIP3   OH262838   3.207   2.848  12.434 -0.0351 -0.2182 -0.0284
13808TIP3    H162839   3.150   2.815  12.503 -0.0017 -0.5782 -0.1737
13808TIP3    H262840   3.295   2.844  12.471 -0.1112  0.4195  0.2272
13809TIP3   OH262841   0.367   5.127  11.946 -0.0520 -0.5856 -0.4577
13809TIP3    H162842   0.278   5.131  11.981  0.9664 -0.2505  2.1905
13809TIP3    H262843   0.363   5.057  11.880 -1.5575 -2.6861  1.7879
13810TIP3   OH262844   3.466   3.897   1.277 -0.1264 -0.3299  0.3449
13810TIP3    H162845   3.463   3.978   1.328  0.4027  0.2037 -0.4608
13810TIP3    H262846   3.538   3.847   1.317  0.4962  0.2243 -0.0706
13811TIP3   OH262847   2.296   0.363   5.604 -0.0680 -0.1227 -0.2678
13811TIP3    H162848   2.381   0.339   5.569 -0.8385 -0.7611 -1.6988
13811TIP3    H262849   2.265   0.285   5.649  0.0314  0.0709  0.1459
13812TIP3   OH262850   6.521   0.223  13.900 -0.1169 -0.2350 -0.5380
13812TIP3    H162851   6.593   0.184  13.950  0.0582 -1.5521 -1.7754
13812TIP3    H262852   6.492   0.297  13.954  2.1826  0.3566 -0.0389
13813TIP3   OH262853   0.943   5.086  12.586 -0.3330  0.0018 -0.0909
13813TIP3    H162854   0.852   5.117  12.592 -0.8109 -1.1609 -1.0573
13813TIP3    H262855   0.958   5.072  12.493  1.0979  0.8983 -0.0047
13814TIP3   OH262856   2.364   6.579  16.775  0.3781  0.3662  0.6327
13814TIP3    H162857   2.377   6.668  16.807  0.6872  0.0211  1.4979
13814TIP3    H262858   2.386   6.583  16.682  0.1490  1.2420  0.6171
13815TIP3   OH262859   2.709   3.581  13.300 -0.2909 -0.3391 -0.7316
13815TIP3    H162860   2.734   3.543  13.384  1.3524 -1.4320 -1.6745
13815TIP3    H262861   2.696   3.506  13.242 -1.4602  0.3956 -1.4575
13816TIP3   OH262862   0.550   4.134  11.951  0.2144  0.3069 -0.4122
13816TIP3    H162863   0.617   4.201  11.962  0.7233  0.2191 -2.5973
13816TIP3    H262864   0.510   4.124  12.037  1.8126  1.6339  0.4992
13817TIP3   OH262865   4.673   6.688   4.440  0.5285  0.6465 -0.2094
13817TIP3    H162866   4.625   6.609   4.416 -0.5775  0.1920  3.2132
13817TIP3    H262867   4.608   6.758   4.435  0.6611  0.7894  0.0546
13818TIP3   OH262868   1.304   4.396  12.386  0.1101 -0.1413 -0.5197
13818TIP3    H162869   1.219   4.354  12.377  0.3432 -0.5230 -0.9361
13818TIP3    H262870   1.288   4.487  12.361  0.1278 -0.5359 -2.0588
13819TIP3   OH262871   3.391   0.924  11.664 -0.2539 -0.4280  0.1535
13819TIP3    H162872   3.401   0.976  11.584 -2.4956  0.3404  0.3394
13819TIP3    H262873   3.424   0.981  11.734 -1.3441  0.1937  0.1716
13820TIP3   OH262874   5.212   5.317   0.303 -0.5740  0.1090  0.2012
13820TIP3    H162875   5.299   5.343   0.274 -0.9838  0.4338 -0.7729
13820TIP3    H262876   5.226   5.275   0.387  0.5238  0.1594  0.0488
13821TIP3   OH262877   0.107   6.499   0.788 -0.8497  0.3586  0.3821
13821TIP3    H162878   0.169   6.571   0.782  0.0397 -0.4127  0.1775
13821TIP3    H262879   0.142   6.442   0.857 -1.1153 -0.2687  0.0081
13822TIP3   OH262880   0.439   5.991  11.227 -0.7947  0.5157 -0.4349
13822TIP3    H162881   0.358   6.041  11.216 -1.3004  0.0178  0.8983
13822TIP3    H262882   0.505   6.057  11.247 -1.0460  0.8403 -0.6717
13823TIP3   OH262883   3.557   2.017   6.488 -0.0179  0.2654  0.2383
13823TIP3    H162884   3.569   2.068   6.568  0.0285 -0.4045  0.6631
13823TIP3    H262885   3.473   1.972   6.500 -0.5501  1.0211 -0.5678
13824TIP3   OH262886   2.284   3.662   1.801 -0.2276  0.6171  0.1418
13824TIP3    H162887   2.220   3.618   1.746  0.4767  1.6090 -1.5282
13824TIP3    H262888   2.253   3.752   1.807  0.4201  0.8368  0.2462
13825TIP3   OH262889   2.567   3.413  10.997 -0.6995 -0.0977 -0.3091
13825TIP3    H162890   2.605   3.386  10.914 -0.5805  0.1179 -0.3260
13825TIP3    H262891   2.602   3.501  11.012 -0.0077 -0.4877  0.4099
13826TIP3   OH262892   5.395   5.311   4.437 -0.3807 -0.1654 -0.2076
13826TIP3    H162893   5.488   5.324   4.455 -0.1547 -1.6000 -0.3307
13826TIP3    H262894   5.371   5.235   4.490 -1.3462 -0.1533 -0.6256
13827TIP3   OH262895   3.897   2.002   2.041 -0.1792 -0.2971  0.2468
13827TIP3    H162896   3.878   1.982   2.133  0.9254 -0.6675  0.4108
13827TIP3    H262897   3.859   2.089   2.027  0.1665  0.0322  1.2361
13828TIP3   OH262898   6.728   0.333   1.395 -0.0340 -0.7306 -0.1138
13828TIP3    H162899   6.656   0.391   1.369 -0.6650 -2.0036 -1.2266
13828TIP3    H262900   6.786   0.390   1.446 -1.2491  0.5894 -0.1529
13829TIP3   OH262901   1.937   5.158  17.103 -0.8691  0.4103  0.7699
13829TIP3    H162902   2.000   5.218  17.143  1.6557  0.3031 -2.8311
13829TIP3    H262903   1.977   5.072  17.111 -0.7408  0.2782 -1.0832
13830TIP3   OH262904   2.463   3.848   5.355 -0.5427 -0.1792  0.3172
13830TIP3    H162905   2.379   3.809   5.331 -0.5180 -0.2761  0.3879
13830TIP3    H262906   2.451   3.941   5.340 -0.7204 -0.1735  0.4975
13831TIP3   OH262907   6.516   2.288   5.541 -0.4017  0.0807  0.2511
13831TIP3    H162908   6.496   2.277   5.634  0.8449 -1.6153  0.3422
13831TIP3    H262909   6.599   2.242   5.529  0.9651  2.8092 -1.0971
13832TIP3   OH262910   3.695   2.267   3.325 -0.9260 -0.7531  0.2824
13832TIP3    H162911   3.733   2.328   3.262 -1.3197 -0.9696 -0.1765
13832TIP3    H262912   3.770   2.217   3.358 -0.6476 -0.2622  0.4004
13833TIP3   OH262913   3.211   3.429  12.403  0.2690  0.1139 -0.1737
13833TIP3    H162914   3.251   3.442  12.317 -0.2405  1.9304 -0.1715
13833TIP3    H262915   3.119   3.410  12.384  0.3084 -0.1936 -0.0550
13834TIP3   OH262916   3.539   4.259  14.325  0.8818 -0.5291  0.5495
13834TIP3    H162917   3.476   4.251  14.397  0.4755 -0.6142  0.1829
13834TIP3    H262918   3.487   4.284  14.249  1.5605  1.4898  0.7118
13835TIP3   OH262919   0.024   2.561  16.740 -0.0057  0.2448  0.2006
13835TIP3    H162920  -0.044   2.514  16.787 -0.6805  1.2927  0.2709
13835TIP3    H262921   0.069   2.612  16.807 -1.2171  2.0403 -0.3316
13836TIP3   OH262922   6.283   3.982   5.568 -0.0812  0.6203  0.0981
13836TIP3    H162923   6.280   4.076   5.586  0.5903  0.6036  0.3055
13836TIP3    H262924   6.329   3.976   5.484 -0.4544  0.5026 -0.0953
13837TIP3   OH262925   2.647   5.515   5.976 -0.5699  0.0039 -0.2979
13837TIP3    H162926   2.657   5.428   6.014 -1.7175  0.4697  1.1295
13837TIP3    H262927   2.688   5.574   6.039  0.0623  0.5255 -1.1795
13838TIP3   OH262928   4.845   6.711  15.431  0.2467 -0.2187 -0.0003
13838TIP3    H162929   4.832   6.709  15.526  1.0902 -1.7108  0.1007
13838TIP3    H262930   4.834   6.620  15.403 -0.5539  0.3001 -1.4187
13839TIP3   OH262931   0.702   1.722  16.107  0.1636 -0.2374 -0.1417
13839TIP3    H162932   0.723   1.698  16.017  0.3182 -4.1350  0.8299
13839TIP3    H262933   0.607   1.717  16.112  0.1826 -0.4140  0.0314
13840TIP3   OH262934   4.341   2.712   1.512  0.6849  0.4019 -0.2006
13840TIP3    H162935   4.317   2.690   1.422 -1.0919 -3.6420  1.1626
13840TIP3    H262936   4.288   2.789   1.533  1.0906  1.3677 -2.5431
13841TIP3   OH262937   1.584   5.359   4.037  0.5361  0.3007 -0.1109
13841TIP3    H162938   1.552   5.270   4.050  2.0174 -0.0272  1.5156
13841TIP3    H262939   1.505   5.410   4.016 -0.6329 -1.0035  1.0059
13842TIP3   OH262940   2.399   5.470  14.257  0.4023  0.3689  0.0283
13842TIP3    H162941   2.450   5.536  14.303  1.4024 -0.5708  0.3082
13842TIP3    H262942   2.325   5.451  14.316  1.3720 -0.4241  1.0255
13843TIP3   OH262943   3.614   2.430   0.464 -0.1289  0.4532  0.2889
13843TIP3    H162944   3.705   2.459   0.467 -0.8072  2.5715  1.5635
13843TIP3    H262945   3.610   2.354   0.521  1.4542 -1.5549 -2.1870
13844TIP3   OH262946   3.934   1.341  13.453  0.5869  0.0045 -0.8141
13844TIP3    H162947   3.840   1.346  13.436  0.3687  0.0453  0.3186
13844TIP3    H262948   3.975   1.369  13.372 -0.4359  3.6500 -0.1856
13845TIP3   OH262949   1.535   3.379  15.856  0.1223 -0.5157 -0.0962
13845TIP3    H162950   1.596   3.430  15.803 -0.1921 -0.6258 -0.5623
13845TIP3    H262951   1.455   3.375  15.804 -0.0796 -0.9032  0.2428
13846TIP3   OH262952   5.091   2.089  13.929  0.3823  1.0989  0.3734
13846TIP3    H162953   5.094   2.009  13.982 -2.7132  0.9093  0.3411
13846TIP3    H262954   5.151   2.149  13.973  1.4513 -0.6397  1.3684
13847TIP3   OH262955   6.694   6.071   4.065  0.2365  0.5313 -0.1082
13847TIP3    H162956   6.632   6.005   4.096  0.5926  1.1669  1.9870
13847TIP3    H262957   6.766   6.069   4.128  1.0638  1.7327 -0.9885
13848TIP3   OH262958   0.833   3.733   3.373 -0.8060  1.0424 -0.3763
13848TIP3    H162959   0.764   3.698   3.316 -0.8222  1.2541 -0.4848
13848TIP3    H262960   0.787   3.756   3.454 -0.3411 -1.9176  0.8089
13849TIP3   OH262961   1.514   4.854  12.324  0.2299 -0.4786 -0.5663
13849TIP3    H162962   1.517   4.936  12.275  2.3049  0.3351  0.8409
13849TIP3    H262963   1.492   4.881  12.413 -0.1970 -1.5908 -0.3233
13850TIP3   OH262964   5.557   6.448   4.747 -0.2651 -0.1190  0.1846
13850TIP3    H162965   5.643   6.408   4.734  0.0523  0.2185  1.2357
13850TIP3    H262966   5.530   6.477   4.659 -0.0583 -1.7279 -0.4232
13851TIP3   OH262967   5.806   5.695   3.148 -0.2459  0.6133  0.3821
13851TIP3    H162968   5.822   5.682   3.241 -0.9293  0.9265  0.5427
13851TIP3    H262969   5.894   5.705   3.110  0.2442 -2.5950  0.5175
13852TIP3   OH262970   5.228   5.256  15.385  0.1499 -0.6279  0.1381
13852TIP3    H162971   5.137   5.232  15.405 -0.0869  0.5587  0.5499
13852TIP3    H262972   5.234   5.348  15.412  1.0714 -0.2803 -1.2342
13853TIP3   OH262973   2.690   3.750  14.067 -0.1589 -0.0703  1.0906
13853TIP3    H162974   2.732   3.737  13.982 -0.3396  0.3717  0.9358
13853TIP3    H262975   2.730   3.829  14.102 -0.7784  0.2950  0.9883
13854TIP3   OH262976   2.640   1.313  13.327  0.4422 -0.0893 -0.5127
13854TIP3    H162977   2.642   1.296  13.421  0.9039  2.5356  0.0148
13854TIP3    H262978   2.547   1.318  13.305  0.3305 -0.8260 -0.2157
13855TIP3   OH262979   2.222   6.069   4.659 -0.0837 -0.2825  0.1396
13855TIP3    H162980   2.284   6.111   4.599 -1.2607 -0.3955 -1.1841
13855TIP3    H262981   2.158   6.138   4.679 -0.4200 -0.6123  0.2175
13856TIP3   OH262982   1.592   3.202  10.923 -0.7673 -0.1227 -0.5856
13856TIP3    H162983   1.505   3.165  10.907 -0.1603 -1.8964  0.0855
13856TIP3    H262984   1.644   3.176  10.847 -1.0036  1.5539 -1.3304
13857TIP3   OH262985   2.477   5.303  11.054 -0.4102  0.0641 -0.4909
13857TIP3    H162986   2.507   5.212  11.063 -1.6187 -0.0257  3.3792
13857TIP3    H262987   2.552   5.356  11.078 -1.0569 -0.0289  1.8164
13858TIP3   OH262988   5.612   0.791  11.617 -0.2153 -0.0592  0.7356
13858TIP3    H162989   5.641   0.863  11.561 -1.0123  0.0212  0.4186
13858TIP3    H262990   5.693   0.756  11.655  0.1866  0.9133  0.7845
13859TIP3   OH262991   2.234   1.501   6.239 -0.1949  0.1096 -0.1445
13859TIP3    H162992   2.214   1.578   6.292  1.2364 -0.5869  1.4959
13859TIP3    H262993   2.161   1.441   6.255 -0.9792  0.8605 -0.8963
13860TIP3   OH262994   1.068   6.515  12.501  0.2138 -0.0890  0.2492
13860TIP3    H162995   0.990   6.571  12.505 -0.3339 -0.7376 -0.9630
13860TIP3    H262996   1.039   6.438  12.452  1.7521 -0.1018 -0.6700
13861TIP3   OH262997   0.078   0.487   2.859 -0.3758 -0.2656  0.3000
13861TIP3    H162998   0.161   0.440   2.869 -0.7144 -0.8489  0.3827
13861TIP3    H262999   0.098   0.576   2.889  0.6957  0.1010 -1.4627
13862TIP3   OH263000   3.249   0.175  13.709  0.3965 -0.0979 -0.2660
13862TIP3    H163001   3.315   0.241  13.730  1.3595 -1.3044  0.6281
13862TIP3    H263002   3.171   0.225  13.686  0.4959  1.3660  2.3632
13863TIP3   OH263003   5.098   5.607   0.190  0.1468  0.0383  0.9264
13863TIP3    H163004   5.169   5.575   0.245  0.4858  0.5621  0.8041
13863TIP3    H263005   5.068   5.531   0.141  1.0040 -0.0674  0.5621
13864TIP3   OH263006   0.378   3.969  10.201 -0.0457 -0.5501  0.3214
13864TIP3    H163007   0.418   3.947  10.117  0.9368  1.0481  0.3513
13864TIP3    H263008   0.443   3.941  10.266 -1.0944 -2.4186  0.6165
13865TIP3   OH263009   4.679   6.093  14.251 -0.2181 -0.1216  0.1289
13865TIP3    H163010   4.640   6.172  14.289  1.7458 -0.4282  2.9351
13865TIP3    H263011   4.620   6.023  14.277 -0.1287 -0.0238  0.6010
13866TIP3   OH263012   2.735   1.119   4.269  0.6963 -0.0751 -0.2547
13866TIP3    H163013   2.695   1.181   4.207  0.3517  1.3933  1.4051
13866TIP3    H263014   2.819   1.097   4.228  2.2365  3.9071  0.5184
13867TIP3   OH263015   3.004   4.457   0.222  0.4000  0.0725  0.5338
13867TIP3    H163016   3.059   4.535   0.231  1.0006 -0.4739  1.6989
13867TIP3    H263017   2.943   4.479   0.151  1.3292  1.1431  0.0489
13868TIP3   OH263018   3.273   0.596  12.817 -0.0713 -0.0532 -0.2830
13868TIP3    H163019   3.245   0.616  12.907 -1.3126  0.8460 -0.8488
13868TIP3    H263020   3.286   0.682  12.777  3.6729 -0.4178 -0.0259
13869TIP3   OH263021   0.964   3.621   0.583 -0.8299  0.3156  0.0318
13869TIP3    H163022   0.875   3.605   0.617  0.2581 -2.1675  1.8531
13869TIP3    H263023   0.978   3.551   0.519 -0.2628  0.8845 -0.4783
13870TIP3   OH263024   2.997   1.524  11.845 -0.1566 -0.3056 -0.2342
13870TIP3    H163025   3.083   1.490  11.871  0.2672  0.7319 -0.2774
13870TIP3    H263026   2.998   1.615  11.873 -0.6039  0.1729 -1.7615
13871TIP3   OH263027   5.777   6.638   4.618  0.0560  0.2480 -0.8324
13871TIP3    H163028   5.786   6.733   4.605  0.0545  0.2375 -0.9140
13871TIP3    H263029   5.691   6.627   4.657 -1.0944  0.0646 -3.3046
13872TIP3   OH263030   3.595   2.289  12.140 -0.2880 -0.3802  0.3297
13872TIP3    H163031   3.529   2.330  12.195  0.2348  0.3101  0.4498
13872TIP3    H263032   3.678   2.306  12.185  0.1802  0.5002 -0.8257
13873TIP3   OH263033   1.320   4.982   1.333  0.7964  0.4301  0.4561
13873TIP3    H163034   1.280   5.030   1.260  0.3638  1.4825  1.3725
13873TIP3    H263035   1.413   5.001   1.327  0.7996  0.2912  0.0266
13874TIP3   OH263036   0.349   0.694  11.905  0.2995  0.1889 -0.0004
13874TIP3    H163037   0.443   0.682  11.919  0.3278  1.5960  1.1432
13874TIP3    H263038   0.341   0.717  11.813  0.9281 -1.3700 -0.4525
13875TIP3   OH263039   5.968   0.020  13.521 -0.1820  1.2148 -0.5038
13875TIP3    H163040   5.969   0.086  13.590 -1.2132  0.6408  0.0836
13875TIP3    H263041   5.876  -0.009  13.518  0.1444  0.2281 -1.1444
13876TIP3   OH263042   2.461   1.029   2.019 -0.2419  0.6682 -0.1274
13876TIP3    H163043   2.448   1.045   1.925 -1.7821 -0.5552 -0.1402
13876TIP3    H263044   2.484   1.114   2.055 -1.2018  1.4610 -1.3534
13877TIP3   OH263045   1.364   2.724  15.858  0.4006  0.0219 -0.3353
13877TIP3    H163046   1.435   2.702  15.797  1.0733 -1.4526  0.9382
13877TIP3    H263047   1.406   2.769  15.930 -0.2222  0.7228 -0.4035
13878TIP3   OH263048   4.835   6.074  12.776  0.1192 -0.4635 -0.1963
13878TIP3    H163049   4.856   6.089  12.684 -0.2576  0.1945 -0.1769
13878TIP3    H263050   4.759   6.129  12.793 -0.3735 -1.2783  0.2784
13879TIP3   OH263051   0.469   1.105   4.314 -0.2941  0.6030  0.1291
13879TIP3    H163052   0.527   1.036   4.345 -0.3483  0.5734  0.1644
13879TIP3    H263053   0.527   1.167   4.269 -0.4584 -0.3052 -1.3720
13880TIP3   OH263054   2.024   5.993   6.227  0.4278 -0.0323  0.2680
13880TIP3    H163055   1.939   5.988   6.182  0.8303 -1.3018 -0.3522
13880TIP3    H263056   2.003   5.978   6.319 -0.2377  1.3576  0.3613
13881TIP3   OH263057   6.202   3.854  12.807 -0.0813  0.0532  0.4677
13881TIP3    H163058   6.248   3.868  12.725 -0.8787 -0.6299 -0.1066
13881TIP3    H263059   6.251   3.784  12.850  0.7681  0.9154  0.9175
13882TIP3   OH263060   0.233   0.441  13.998  0.6343  0.1122  0.8456
13882TIP3    H163061   0.157   0.467  14.050 -1.5975 -1.2422 -1.6268
13882TIP3    H263062   0.271   0.523  13.968 -1.0930  0.7905  0.4262
13883TIP3   OH263063   5.541   3.334   5.779  0.2042 -0.2351 -0.3121
13883TIP3    H163064   5.571   3.371   5.862 -0.3028  0.4318 -0.4223
13883TIP3    H263065   5.615   3.346   5.719 -0.3054  1.4838 -0.6084
13884TIP3   OH263066   1.791   0.977   3.145  0.3981  0.1684 -0.1870
13884TIP3    H163067   1.849   1.027   3.202  0.8978 -1.2660  0.5901
13884TIP3    H263068   1.718   0.951   3.202  0.1912 -0.0604 -0.5575
13885TIP3   OH263069   3.853   4.841  12.396 -0.4379 -0.2203 -0.5292
13885TIP3    H163070   3.822   4.797  12.316 -0.8927 -1.1517  0.1483
13885TIP3    H263071   3.773   4.875  12.437 -0.2684 -0.2463 -0.1791
13886TIP3   OH263072   3.851   4.564   5.333  0.2877 -0.2498  0.3017
13886TIP3    H163073   3.900   4.590   5.255  0.0928  0.2883  0.3594
13886TIP3    H263074   3.898   4.488   5.366  2.0497  1.2597  1.3055
13887TIP3   OH263075   2.774   1.032  15.197  0.1499 -0.1642  1.0241
13887TIP3    H163076   2.800   1.054  15.108 -0.2110  0.9818  1.1913
13887TIP3    H263077   2.723   0.952  15.188 -1.9874  1.2601 -0.1312
13888TIP3   OH263078   6.547   3.876   5.460  0.5273  0.1235  0.3182
13888TIP3    H163079   6.550   3.810   5.530  0.3379 -0.0971  0.1205
13888TIP3    H263080   6.629   3.862   5.412 -0.5516 -1.4934 -1.0970
13889TIP3   OH263081   5.369   0.446   0.375  0.2324 -0.5291 -0.3892
13889TIP3    H163082   5.463   0.429   0.364  0.8764  2.6534 -0.3747
13889TIP3    H263083   5.362   0.488   0.460 -1.3915 -1.7627  0.1085
13890TIP3   OH263084   5.802   3.826   3.324 -0.1565  0.0508 -0.7317
13890TIP3    H163085   5.742   3.893   3.356 -0.0116  0.2060 -0.7840
13890TIP3    H263086   5.889   3.858   3.349 -0.1361 -0.4860 -0.0788
13891TIP3   OH263087   5.667   3.381  13.352 -0.1639  0.2230  0.1593
13891TIP3    H163088   5.600   3.318  13.324  0.4692  0.2263 -1.4280
13891TIP3    H263089   5.742   3.327  13.376 -0.7937  0.2074  2.1531
13892TIP3   OH263090   3.678   3.533  11.657 -0.3829  0.3232  0.0633
13892TIP3    H163091   3.745   3.518  11.591 -1.3890 -0.8326 -0.7209
13892TIP3    H263092   3.612   3.588  11.614 -0.8125 -0.0343  0.2577
13893TIP3   OH263093   2.711   0.410   0.287 -0.2728 -0.7178 -0.1214
13893TIP3    H163094   2.798   0.386   0.255 -0.5957 -0.9282 -0.8539
13893TIP3    H263095   2.664   0.441   0.209 -0.9386 -0.8443  0.2199
13894TIP3   OH263096   6.144   6.664  11.458 -0.2192  0.3747 -0.1238
13894TIP3    H163097   6.077   6.725  11.427  1.0378  2.2630  0.7521
13894TIP3    H263098   6.208   6.661  11.387 -0.4655 -0.2426 -0.3248
13895TIP3   OH263099   2.403   1.347  12.061 -0.0386  0.0634  0.2785
13895TIP3    H163100   2.484   1.334  12.012  0.1317  0.2130  0.5202
13895TIP3    H263101   2.336   1.359  11.994  0.1052 -0.2645  0.0758
13896TIP3   OH263102   1.519   1.096  15.323 -0.2976  0.0464  0.3010
13896TIP3    H163103   1.546   1.020  15.375 -0.6136 -0.4638 -0.2702
13896TIP3    H263104   1.493   1.161  15.388 -1.2963 -0.8117  0.7724
13897TIP3   OH263105   2.224   2.072   3.268  0.2149  0.0662 -0.0238
13897TIP3    H163106   2.166   2.035   3.334  0.4035 -0.2327 -0.0245
13897TIP3    H263107   2.281   1.999   3.242  1.4283  0.6530  0.8944
13898TIP3   OH263108   5.013   2.946   3.237  0.1771  0.4696 -0.1144
13898TIP3    H163109   4.974   3.018   3.286  0.3525  0.4307  0.0835
13898TIP3    H263110   5.002   2.870   3.293  2.2518  0.8160  0.8074
13899TIP3   OH263111   3.240   6.055   5.306 -0.4713  0.1364 -0.8400
13899TIP3    H163112   3.310   6.107   5.346 -0.5767  0.8120 -1.5307
13899TIP3    H263113   3.159   6.098   5.335 -0.6545 -1.2197  0.7658
13900TIP3   OH263114   0.259   1.778   0.432 -0.7543 -0.0194 -0.1669
13900TIP3    H163115   0.254   1.839   0.359  0.9038  1.0797  0.6127
13900TIP3    H263116   0.269   1.834   0.509 -0.5785 -1.2345  0.7064
13901TIP3   OH263117   5.523   1.448  15.372  0.0559 -0.2645 -0.2381
13901TIP3    H163118   5.556   1.460  15.461  0.7188 -1.5049 -0.2963
13901TIP3    H263119   5.593   1.482  15.316 -0.9250  1.7315 -0.2650
13902TIP3   OH263120   6.520   4.383  11.194  0.3765 -1.1272  0.2778
13902TIP3    H163121   6.511   4.301  11.146 -0.3412 -0.2349 -1.1400
13902TIP3    H263122   6.459   4.373  11.268 -1.3716 -1.0172 -1.1066
13903TIP3   OH263123   0.433   6.455   4.689  0.3805  0.3886 -0.1729
13903TIP3    H163124   0.372   6.485   4.757  0.9498  0.7766  0.1767
13903TIP3    H263125   0.498   6.403   4.736  0.4634  0.1929 -0.5031
13904TIP3   OH263126   1.593   4.061   1.716  0.1713  0.2510 -0.0722
13904TIP3    H163127   1.664   4.117   1.684 -0.8162  1.0899 -0.8604
13904TIP3    H263128   1.532   4.057   1.642 -1.3612  0.8469  1.1254
13905TIP3   OH263129   5.587   4.013   6.301  0.7219 -0.0762  0.4556
13905TIP3    H163130   5.569   4.066   6.378  0.5013  2.9066 -1.5701
13905TIP3    H263131   5.680   4.023   6.285  0.7560 -0.6232  0.2841
13906TIP3   OH263132   0.272   5.364  13.779  0.4794  0.0935  0.4730
13906TIP3    H163133   0.352   5.411  13.802  0.7552 -0.3281  0.3869
13906TIP3    H263134   0.303   5.280  13.744  0.0071  0.0189  0.2310
13907TIP3   OH263135   3.486   2.759   6.028 -0.4661  0.6588  0.1704
13907TIP3    H163136   3.421   2.794   6.089  0.0712  1.6391  0.1751
13907TIP3    H263137   3.566   2.806   6.048  0.2176 -0.4187  0.0383
13908TIP3   OH263138   6.274   1.808   5.141  0.0842 -0.0249 -0.7252
13908TIP3    H163139   6.230   1.805   5.226 -1.3158 -0.6601 -1.4453
13908TIP3    H263140   6.351   1.752   5.152  0.4634  0.6885  0.4006
13909TIP3   OH263141   4.586   2.902   0.388  0.6267 -0.2965  0.4037
13909TIP3    H163142   4.553   2.925   0.301 -0.1941 -1.7808  0.3015
13909TIP3    H263143   4.654   2.837   0.371 -0.2331 -1.3491  0.9062
13910TIP3   OH263144   0.029   0.568  11.603  0.1419 -0.3162  0.2268
13910TIP3    H163145   0.042   0.659  11.579  0.2481 -0.1509  0.8964
13910TIP3    H263146  -0.057   0.566  11.644 -0.2817 -0.6981 -0.6677
13911TIP3   OH263147   0.908   2.936  15.491  0.3676  0.1860  0.0258
13911TIP3    H163148   0.998   2.948  15.520 -0.0339  1.1201  0.9139
13911TIP3    H263149   0.909   2.960  15.399  1.0706 -0.0327 -0.0276
13912TIP3   OH263150   6.730   3.209   6.107 -0.0474  0.0470  0.1609
13912TIP3    H163151   6.758   3.293   6.069 -0.5782  0.1338 -0.0408
13912TIP3    H263152   6.704   3.231   6.196 -0.7454  0.1975 -0.0815
13913TIP3   OH263153   1.760   0.552  11.625 -0.3976 -0.0645  0.0923
13913TIP3    H163154   1.726   0.638  11.651  0.1114  0.6829 -1.5894
13913TIP3    H263155   1.838   0.540  11.680  0.4260  1.2929 -0.7218
13914TIP3   OH263156   4.183   4.042  15.568  0.5438  0.0922  0.3374
13914TIP3    H163157   4.223   4.082  15.491  0.4430  0.2273  0.3544
13914TIP3    H263158   4.111   3.989  15.532  1.4515 -1.0720  0.2073
13915TIP3   OH263159   1.073   1.587  17.064 -0.0550  0.2183  0.3090
13915TIP3    H163160   1.148   1.634  17.102  0.2310  0.0187 -0.0068
13915TIP3    H263161   1.025   1.554  17.140  1.0619 -1.0428  0.4803
13916TIP3   OH263162   6.491   2.217   3.522 -0.7263 -0.4794 -0.0854
13916TIP3    H163163   6.528   2.271   3.452 -0.0806  0.8010  1.1989
13916TIP3    H263164   6.410   2.181   3.485 -2.0802  2.7722 -0.4718
13917TIP3   OH263165   1.776   4.765   2.540  0.1152  0.0285  0.1643
13917TIP3    H163166   1.791   4.691   2.599 -1.8071 -1.8523 -1.6101
13917TIP3    H263167   1.681   4.776   2.539  0.1898  0.6250 -1.8485
13918TIP3   OH263168   1.689   2.586   0.591 -0.2816 -0.1311  0.0933
13918TIP3    H163169   1.712   2.655   0.528  1.0621  0.9406  1.7189
13918TIP3    H263170   1.594   2.583   0.589 -0.2905  0.5707 -1.2721
13919TIP3   OH263171   2.659   2.458  10.971 -0.1021 -0.1597  0.3744
13919TIP3    H163172   2.631   2.536  10.923  4.3930  0.2200 -1.9332
13919TIP3    H263173   2.624   2.385  10.920  1.2694  0.3102 -1.2888
13920TIP3   OH263174   1.683   0.886  15.824  0.0062  0.2675 -0.4537
13920TIP3    H163175   1.741   0.926  15.889 -0.7328  3.3701 -1.6529
13920TIP3    H263176   1.595   0.904  15.856 -0.3404 -0.1416 -1.1657
13921TIP3   OH263177   1.564   6.097   2.418  0.2055 -0.3863  0.8371
13921TIP3    H163178   1.581   6.189   2.438 -0.7563 -0.0368  0.0690
13921TIP3    H263179   1.574   6.051   2.502 -0.1747  0.5370  1.3898
13922TIP3   OH263180   1.643   3.377  13.347 -0.1083  0.1955  1.0165
13922TIP3    H163181   1.721   3.375  13.403  0.3328  0.0119  0.4052
13922TIP3    H263182   1.660   3.449  13.286 -0.3526  0.0488  0.7785
13923TIP3   OH263183   2.119   6.178   5.994 -0.5603  0.2632  0.0082
13923TIP3    H163184   2.088   6.234   6.065  0.8278 -0.0224  0.8517
13923TIP3    H263185   2.071   6.096   6.007  0.6792 -0.2587  1.4503
13924TIP3   OH263186   4.621   5.596   5.031  0.2834 -0.1107  0.1822
13924TIP3    H163187   4.615   5.539   5.108  3.7713 -0.9652 -0.0529
13924TIP3    H263188   4.715   5.600   5.012 -0.3659  1.2902 -3.1529
13925TIP3   OH263189   6.549   2.973  13.484  0.0937  0.0926 -0.4288
13925TIP3    H163190   6.605   2.974  13.406  1.3262 -0.8641  0.4397
13925TIP3    H263191   6.608   2.958  13.557 -1.0502  1.0577  0.7239
13926TIP3   OH263192   3.792   0.990  11.218  0.5114  0.1191 -0.5399
13926TIP3    H163193   3.818   0.905  11.183  0.2057 -0.2361  0.0936
13926TIP3    H263194   3.700   0.981  11.241  0.4265  0.6773 -0.6368
13927TIP3   OH263195   5.945   2.134  13.021 -0.0834 -0.1603  0.3395
13927TIP3    H163196   5.971   2.043  13.037  0.6172  0.5432  3.5121
13927TIP3    H263197   5.849   2.132  13.022 -0.0806 -0.5772  2.4118
13928TIP3   OH263198   6.648   6.269   0.913  0.5347  0.2603  0.3799
13928TIP3    H163199   6.740   6.276   0.888  0.6908  1.9971  1.3740
13928TIP3    H263200   6.603   6.243   0.833  1.8576 -0.4815 -0.1438
13929TIP3   OH263201   0.959   4.340  15.372 -0.6524 -0.0890 -0.5004
13929TIP3    H163202   1.040   4.293  15.392 -0.6138 -0.0930 -0.6615
13929TIP3    H263203   0.985   4.406  15.308 -0.3143  1.5180  1.2675
13930TIP3   OH263204   3.466   6.531   2.076  0.2763  0.5290 -0.5525
13930TIP3    H163205   3.487   6.568   2.162  1.5237 -1.4227  0.0011
13930TIP3    H263206   3.544   6.546   2.023  0.7681 -1.2445 -0.3422
13931TIP3   OH263207   1.226   0.726   5.529  0.0015  0.5827  0.1748
13931TIP3    H163208   1.206   0.820   5.526  0.1538  0.5955 -0.4090
13931TIP3    H263209   1.158   0.685   5.476  0.1924  0.4068  0.0630
13932TIP3   OH263210   6.265   3.158   1.460  0.0114  0.1932  0.1178
13932TIP3    H163211   6.269   3.173   1.555 -2.3688 -1.1765  0.4735
13932TIP3    H263212   6.245   3.065   1.451 -1.5113  0.6678 -1.6935
13933TIP3   OH263213   4.332   4.593  10.974  0.0278  0.2815  0.0426
13933TIP3    H163214   4.241   4.578  10.948  0.2250 -0.1186 -0.4256
13933TIP3    H263215   4.368   4.506  10.987  0.2313  0.4519  0.6366
13934TIP3   OH263216   1.522   6.526   1.457 -0.6228  0.1532  0.2373
13934TIP3    H163217   1.488   6.537   1.546  0.2226 -1.6685  0.7909
13934TIP3    H263218   1.584   6.454   1.463 -1.0717 -0.4685 -1.9734
13935TIP3   OH263219   1.994   1.646   4.562 -0.2394  0.1562  0.2677
13935TIP3    H163220   1.988   1.578   4.630  0.3972 -0.0222  0.1438
13935TIP3    H263221   2.068   1.619   4.508 -0.4937  0.5198 -0.2572
13936TIP3   OH263222   1.758   6.134  16.201 -0.0324  0.2213 -0.4651
13936TIP3    H163223   1.840   6.091  16.225  0.5295  0.8010 -1.3028
13936TIP3    H263224   1.736   6.187  16.277 -0.4456 -1.1126  0.3628
13937TIP3   OH263225   5.821   6.059   0.317 -0.1451 -0.2689  0.2225
13937TIP3    H163226   5.806   5.967   0.292  0.0133 -0.2853  0.1919
13937TIP3    H263227   5.852   6.054   0.407  0.1710 -0.2649  0.1143
13938TIP3   OH263228   0.985   4.299  14.741  0.2025 -0.2379 -0.7513
13938TIP3    H163229   0.903   4.347  14.736 -0.6355 -1.5799  0.0016
13938TIP3    H263230   1.021   4.304  14.652 -0.2275  1.1428 -0.8549
13939TIP3   OH263231   3.995   0.338   4.169  0.0761  0.3998  0.1140
13939TIP3    H163232   3.928   0.338   4.237 -0.0040  1.6508  0.0396
13939TIP3    H263233   3.993   0.426   4.132  1.3153  0.2621 -0.3313
13940TIP3   OH263234   1.993   5.094  11.486 -0.6854  0.3521 -0.0645
13940TIP3    H163235   2.065   5.135  11.534  0.7070  0.3301 -2.1159
13940TIP3    H263236   2.034   5.021  11.440 -2.4791 -1.1384  0.6471
13941TIP3   OH263237   4.299   1.678  16.040  0.2491 -0.3373 -0.1121
13941TIP3    H163238   4.314   1.769  16.067  1.6696 -0.7723  0.6372
13941TIP3    H263239   4.205   1.665  16.052  0.5322  0.0450  3.0236
13942TIP3   OH263240   2.785   5.764   1.803 -0.6110  0.0990  0.1850
13942TIP3    H163241   2.819   5.786   1.716  0.2478  0.0149  0.4955
13942TIP3    H263242   2.769   5.849   1.844 -0.9105  0.1384 -0.0099
13943TIP3   OH263243   5.115   3.551  12.123  0.4474  0.3995  0.0156
13943TIP3    H163244   5.189   3.602  12.092  0.5560 -0.7158 -1.6325
13943TIP3    H263245   5.145   3.460  12.119 -0.7684 -0.0158 -0.0036
13944TIP3   OH263246   6.518   2.143   6.419  0.1558 -0.1357 -0.1799
13944TIP3    H163247   6.538   2.059   6.461  2.1185  0.2142 -0.3382
13944TIP3    H263248   6.482   2.197   6.490  0.2147 -0.6545  0.2531
13945TIP3   OH263249   1.415   3.851   2.410  1.1694  0.1369  0.1036
13945TIP3    H163250   1.324   3.878   2.417  1.1151  0.3003 -1.1269
13945TIP3    H263251   1.444   3.840   2.501 -0.3780 -0.9346  0.4928
13946TIP3   OH263252   0.635   1.152   3.892 -0.1025 -0.5408 -0.0811
13946TIP3    H163253   0.586   1.078   3.926 -0.8406  0.1063  0.2602
13946TIP3    H263254   0.712   1.112   3.851 -0.3612 -1.4757  0.3235
13947TIP3   OH263255   1.336   2.473  16.334  0.0562 -0.2492  0.0151
13947TIP3    H163256   1.251   2.442  16.367  0.5636 -1.7787 -0.0799
13947TIP3    H263257   1.375   2.518  16.409 -0.3848 -0.4796  0.3909
13948TIP3   OH263258   3.639   2.983  12.933  0.3257  0.0223 -0.3307
13948TIP3    H163259   3.582   3.016  12.863  1.0904 -2.1545 -2.0599
13948TIP3    H263260   3.611   2.892  12.945  0.3252  0.3222  2.1104
13949TIP3   OH263261   4.236   3.034  12.636 -0.7806 -0.3060  0.2066
13949TIP3    H163262   4.175   3.043  12.562 -0.3089  1.3335 -0.0236
13949TIP3    H263263   4.320   3.016  12.595 -0.2838  1.7867  0.2350
13950TIP3   OH263264   6.600   2.508   3.335  0.4522  0.3281 -0.1473
13950TIP3    H163265   6.648   2.521   3.417  0.2689  2.4328 -0.3618
13950TIP3    H263266   6.635   2.574   3.276 -5.2531  4.6352  0.8415
13951TIP3   OH263267   0.945   2.654   1.412 -0.2235 -0.0123 -0.1243
13951TIP3    H163268   0.895   2.714   1.357  1.3109  0.5253 -0.9630
13951TIP3    H263269   1.020   2.629   1.358  1.2491  0.4236  1.6553
13952TIP3   OH263270   5.287   6.092  14.716  0.1493 -0.2680  0.3759
13952TIP3    H163271   5.273   6.153  14.644 -2.3350 -0.5341  0.5873
13952TIP3    H263272   5.271   6.006  14.678  0.6989 -0.5476  0.7834
13953TIP3   OH263273   5.903   6.439  13.063 -0.3751  0.5750  0.3625
13953TIP3    H163274   5.944   6.417  12.979  0.3387  0.1469  0.8257
13953TIP3    H263275   5.949   6.517  13.092 -0.2526  0.4036  0.6260
13954TIP3   OH263276   2.201   5.959  12.310 -0.3368  0.5288  0.2296
13954TIP3    H163277   2.249   5.886  12.270  1.0643  0.4972  1.9116
13954TIP3    H263278   2.146   5.993  12.240  2.5607  0.9400 -1.9347
13955TIP3   OH263279   1.260   5.927  14.925 -0.0908 -0.2866 -0.4300
13955TIP3    H163280   1.210   6.005  14.900 -0.8919  0.1143  2.2038
13955TIP3    H263281   1.329   5.960  14.982 -0.7383 -1.5290  1.1167
13956TIP3   OH263282   2.721   0.177  13.820  0.2221 -0.2512  0.1540
13956TIP3    H163283   2.687   0.131  13.743  1.4824  1.9218 -1.7552
13956TIP3    H263284   2.794   0.122  13.850  0.0510 -0.8422 -0.5113
13957TIP3   OH263285   6.197   5.887  13.106  0.3206 -0.3845  0.2503
13957TIP3    H163286   6.114   5.932  13.091  0.8107  0.5883  0.3824
13957TIP3    H263287   6.200   5.818  13.040 -0.4888 -0.2765  0.1017
13958TIP3   OH263288   4.423   1.071   2.852  0.8401  0.6779  0.5966
13958TIP3    H163289   4.359   1.078   2.781  1.5288  0.8829 -0.0122
13958TIP3    H263290   4.464   0.985   2.839  0.6196  0.5018  1.0465
13959TIP3   OH263291   3.421   6.437  15.939  0.6040 -0.0284  0.1426
13959TIP3    H163292   3.350   6.398  15.990 -0.4612  0.3411 -1.0341
13959TIP3    H263293   3.408   6.532  15.949  2.3850  0.0843  1.8912
13960TIP3   OH263294   5.623   4.603   4.565  0.9525  0.5128  0.4193
13960TIP3    H163295   5.688   4.539   4.593  0.9313  0.5284  0.5016
13960TIP3    H263296   5.581   4.631   4.646  1.4755  1.1872  0.4581
13961TIP3   OH263297   3.861   0.691   0.026  0.1430 -0.3266 -0.2154
13961TIP3    H163298   3.942   0.685   0.077  0.8077 -1.0302 -1.3446
13961TIP3    H263299   3.887   0.672  -0.064 -1.0626  0.7410 -0.8027
13962TIP3   OH263300   3.825   1.593   1.659  0.3394 -0.5563  0.4201
13962TIP3    H163301   3.854   1.664   1.717  1.0852 -1.6236  1.3872
13962TIP3    H263302   3.760   1.545   1.711 -0.7731 -0.0903 -0.5381
13963TIP3   OH263303   0.531   5.690  14.365  0.5111 -0.5353  0.3004
13963TIP3    H163304   0.485   5.609  14.342 -1.9501  0.4026  1.6765
13963TIP3    H263305   0.580   5.713  14.286 -0.7299 -2.0515 -0.9590
13964TIP3   OH263306   2.422   5.850  17.030  0.3566  0.8063  0.5310
13964TIP3    H163307   2.410   5.806  16.946 -2.5253  0.6757  0.9581
13964TIP3    H263308   2.496   5.805  17.071 -1.6044 -2.7377  0.3577
13965TIP3   OH263309   0.344   5.736  15.402 -0.0960  0.0386 -0.0801
13965TIP3    H163310   0.339   5.683  15.482 -0.4845 -0.5805 -0.5111
13965TIP3    H263311   0.255   5.770  15.390  0.0846  0.5651  0.0383
13966TIP3   OH263312   4.169   6.054  13.616 -0.1833  0.3731  0.0293
13966TIP3    H163313   4.176   5.966  13.652  0.6076 -0.0139 -1.0648
13966TIP3    H263314   4.237   6.059  13.549 -1.6580  1.0802 -1.4513
13967TIP3   OH263315   3.027   1.226   4.825  0.5094 -0.8336 -0.2837
13967TIP3    H163316   3.045   1.284   4.900 -2.3168  0.9559 -0.9004
13967TIP3    H263317   2.944   1.185   4.848  2.3672 -4.6141  0.0419
13968TIP3   OH263318   5.382   4.013   2.158 -0.5728  0.6255  0.4632
13968TIP3    H163319   5.400   4.066   2.235 -0.3598  0.9917  0.1615
13968TIP3    H263320   5.299   3.969   2.178 -0.4632  0.6346  0.9418
13969TIP3   OH263321   6.028   4.959   4.499 -0.0422 -0.1126 -0.0512
13969TIP3    H163322   5.988   4.907   4.569  1.0848 -0.0749  0.6500
13969TIP3    H263323   6.046   5.044   4.540 -1.5162  0.7188 -1.0761
13970TIP3   OH263324   1.091   6.392  16.570 -0.0548  0.5692  0.5518
13970TIP3    H163325   1.131   6.384  16.657  0.5758  0.5478  0.2648
13970TIP3    H263326   1.134   6.468  16.532  0.9074 -0.4312 -0.3948
13971TIP3   OH263327   2.250   2.300   5.662 -0.1140  0.0557  0.2073
13971TIP3    H163328   2.306   2.232   5.624 -2.6681 -1.6720 -0.5404
13971TIP3    H263329   2.308   2.347   5.723  3.4665  1.4745 -4.0185
13972TIP3   OH263330   6.461   6.683  15.962  0.3987  0.2270 -0.2426
13972TIP3    H163331   6.420   6.598  15.977  1.1283 -0.1287 -0.2616
13972TIP3    H263332   6.507   6.702  16.043 -1.5307  1.6172  0.5766
13973TIP3   OH263333   5.902   6.073   3.289  0.1961 -0.1178 -0.3920
13973TIP3    H163334   5.823   6.077   3.234 -0.0665 -0.7188 -0.0571
13973TIP3    H263335   5.937   6.162   3.286  0.0166 -0.0682 -1.2891
13974TIP3   OH263336   5.758   0.475  15.636  0.0252 -0.4350 -0.4017
13974TIP3    H163337   5.742   0.456  15.543 -1.3160  0.0011 -0.2681
13974TIP3    H263338   5.739   0.393  15.681 -2.6328  0.2326 -0.1759
13975TIP3   OH263339   1.451   6.334  17.133  0.4178 -0.5829  0.5733
13975TIP3    H163340   1.358   6.337  17.110  0.5607 -0.5338 -0.0153
13975TIP3    H263341   1.464   6.410  17.190  0.3619  0.1677 -0.3843
13976TIP3   OH263342   3.355   3.979   6.147  0.2923 -0.5040 -0.0627
13976TIP3    H163343   3.274   3.956   6.192  0.2768 -0.7697 -0.2255
13976TIP3    H263344   3.406   4.028   6.211  0.3182 -0.9778  0.2778
13977TIP3   OH263345   6.367   3.026  12.562  0.2105 -0.6478  0.8451
13977TIP3    H163346   6.453   3.009  12.523  0.4046  0.5961  0.6838
13977TIP3    H263347   6.318   2.945  12.548  1.4216 -1.4512  1.1260
13978TIP3   OH263348   5.915   1.329  11.513  0.3066 -0.3051  0.4284
13978TIP3    H163349   5.913   1.268  11.587  1.2230 -1.2283 -0.2834
13978TIP3    H263350   6.002   1.369  11.516 -0.7236  1.9140  1.6139
13979TIP3   OH263351   2.495   3.790   0.186 -0.0717 -0.3892 -0.0975
13979TIP3    H163352   2.446   3.833   0.116 -0.8093  0.1474  0.7430
13979TIP3    H263353   2.546   3.860   0.227  2.2655 -1.1106 -1.6425
13980TIP3   OH263354   0.656   3.288   3.618 -0.3476  0.4110 -0.1522
13980TIP3    H163355   0.580   3.276   3.674 -0.0365  1.1508  0.4323
13980TIP3    H263356   0.684   3.378   3.634  1.3989 -0.2461  0.5825
13981TIP3   OH263357   0.996   0.959   2.408 -0.7041  0.5918 -0.1175
13981TIP3    H163358   0.987   0.864   2.400 -1.9934  0.7983 -1.2069
13981TIP3    H263359   0.926   0.985   2.468  0.3447  0.7391  1.0779
13982TIP3   OH263360   6.354   1.931  14.958 -0.3357  0.2090  0.0515
13982TIP3    H163361   6.292   1.882  15.012 -1.7569 -0.1984 -1.9199
13982TIP3    H263362   6.438   1.922  15.004 -1.1046 -1.9008  1.0796
13983TIP3   OH263363   1.459   2.307  11.909 -0.4746  0.1174  0.2315
13983TIP3    H163364   1.552   2.306  11.931 -0.2549  0.5139 -0.6843
13983TIP3    H263365   1.456   2.335  11.818 -1.5661  1.1406  0.5778
13984TIP3   OH263366   1.596   6.208   0.144 -0.2654 -0.5300 -0.1732
13984TIP3    H163367   1.685   6.226   0.175 -0.3725 -0.3361  0.0159
13984TIP3    H263368   1.609   6.168   0.058 -0.0312  0.3125 -0.5283
13985TIP3   OH263369   4.661   5.661   3.224  0.4009  0.0697 -0.0133
13985TIP3    H163370   4.691   5.735   3.172 -1.1844  0.4374 -0.4080
13985TIP3    H263371   4.598   5.698   3.285  0.1522 -0.8371  0.2851
13986TIP3   OH263372   0.851   1.780   5.116 -0.3886 -0.1695  0.3947
13986TIP3    H163373   0.838   1.873   5.130 -1.0656 -0.0286 -1.1331
13986TIP3    H263374   0.936   1.762   5.155 -0.5813  0.9297  1.3555
13987TIP3   OH263375   6.420   5.337   4.321 -0.0827 -0.3838  0.0065
13987TIP3    H163376   6.335   5.379   4.311 -0.1507 -0.0861  1.6614
13987TIP3    H263377   6.407   5.249   4.285 -1.1154 -0.3638  0.3028
13988TIP3   OH263378   3.532   4.949   3.260  0.2802 -0.7791 -0.6586
13988TIP3    H163379   3.515   4.943   3.355  3.4960 -0.8079 -0.0424
13988TIP3    H263380   3.490   5.031   3.234  0.5005 -0.0801  1.0772
13989TIP3   OH263381   4.423   0.861   4.461  0.0488 -0.7706 -0.6801
13989TIP3    H163382   4.363   0.839   4.390 -0.1822 -1.2265 -0.3436
13989TIP3    H263383   4.458   0.776   4.490  0.2037 -0.5802 -0.3063
13990TIP3   OH263384   6.777   5.090   3.535  0.0646 -0.4017  0.1230
13990TIP3    H163385   6.850   5.144   3.508 -0.1148 -0.4043 -0.3792
13990TIP3    H263386   6.710   5.152   3.566 -0.5208 -0.2587 -1.3667
13991TIP3   OH263387   5.504   1.053  13.445 -0.1047 -0.4285  0.7077
13991TIP3    H163388   5.469   0.976  13.489  0.8838 -1.1920  0.1869
13991TIP3    H263389   5.553   1.099  13.513 -0.2565 -0.5332  0.8895
13992TIP3   OH263390   4.299   1.429   0.592  0.3534 -0.5411  0.3907
13992TIP3    H163391   4.347   1.363   0.541  1.5201 -0.8579  1.8772
13992TIP3    H263392   4.248   1.378   0.655  0.6143 -0.0595  0.9968
13993TIP3   OH263393   3.062   2.976  11.350 -0.7051  0.2310 -0.2395
13993TIP3    H163394   3.116   2.974  11.429  0.7998  3.1122 -1.1466
13993TIP3    H263395   3.033   3.066  11.342 -0.2671  0.1679 -3.3224
13994TIP3   OH263396   0.092   3.113   1.636 -0.3457  0.3150  0.4560
13994TIP3    H163397   0.099   3.064   1.718 -0.3635  0.3239  0.4629
13994TIP3    H263398   0.173   3.094   1.589 -1.2587 -1.3461 -0.4578
13995TIP3   OH263399   5.597   0.832  12.959 -0.2640 -0.3478 -0.2230
13995TIP3    H163400   5.521   0.837  12.901  0.1308  1.9126 -0.6139
13995TIP3    H263401   5.663   0.784  12.909 -0.2057  0.8865 -1.3437
13996TIP3   OH263402   3.352   4.586  16.883  0.0763 -0.1219 -0.2988
13996TIP3    H163403   3.355   4.676  16.853  0.8169 -0.3554 -0.9261
13996TIP3    H263404   3.258   4.565  16.888 -0.0745  0.3466 -1.1400
13997TIP3   OH263405   3.709   4.315   5.533  0.4595 -0.0606  0.4605
13997TIP3    H163406   3.699   4.406   5.507  1.2959  0.3624  1.6071
13997TIP3    H263407   3.692   4.314   5.627  3.2951 -0.6026  1.0104
13998TIP3   OH263408   0.155   3.780  15.121  0.0658 -0.1662  0.0257
13998TIP3    H163409   0.241   3.754  15.089  0.2871  0.1462  0.3614
13998TIP3    H263410   0.162   3.874  15.135  0.1117 -0.3698  1.4090
13999TIP3   OH263411   5.311   6.442  17.032 -0.0367 -0.2077  0.0307
13999TIP3    H163412   5.374   6.372  17.015  0.3839  0.2609 -0.3410
13999TIP3    H263413   5.345   6.486  17.110  0.4108  0.3966 -0.4946
14000TIP3   OH263414   5.529   5.333  10.520  0.2482  0.1631  0.8414
14000TIP3    H163415   5.609   5.385  10.518  0.7443 -0.5953  1.0074
14000TIP3    H263416   5.497   5.336  10.429  0.7655 -0.0020  0.6517
14001TIP3   OH263417   3.572   5.744   2.157 -0.2963  0.4028 -0.2601
14001TIP3    H163418   3.621   5.682   2.103 -0.4831  1.0673 -1.2125
14001TIP3    H263419   3.627   5.823   2.158 -0.2845  0.3859  0.5395
14002TIP3   OH263420   4.493   2.850  15.869  0.0883 -0.4216  0.7626
14002TIP3    H163421   4.525   2.760  15.873  2.0811  0.2134 -0.4076
14002TIP3    H263422   4.430   2.850  15.796  2.3064 -0.2226 -1.1960
14003TIP3   OH263423   4.141   3.919  14.131  0.6193  0.2510 -0.2849
14003TIP3    H163424   4.049   3.899  14.112  1.2140 -2.3488 -0.6536
14003TIP3    H263425   4.190   3.869  14.066  2.3437 -0.0553  1.2150
14004TIP3   OH263426   2.575   1.936  12.488 -0.3873  0.3640 -0.0637
14004TIP3    H163427   2.554   1.860  12.434 -3.8455 -0.8408  2.7563
14004TIP3    H263428   2.646   1.906  12.545 -1.4530 -0.6883  0.7464
14005TIP3   OH263429   4.235   1.570   2.992 -0.2064 -0.2650 -0.2189
14005TIP3    H163430   4.301   1.605   3.052  0.6728 -2.6456  0.2408
14005TIP3    H263431   4.247   1.619   2.911  0.4383  1.0486  0.6508
14006TIP3   OH263432   1.552   3.501   2.953 -0.5292 -0.0717 -0.1238
14006TIP3    H163433   1.618   3.451   2.905 -0.5051 -0.3433  0.1834
14006TIP3    H263434   1.595   3.584   2.975 -0.8180  0.3885 -1.2793
14007TIP3   OH263435   0.098   1.507  16.953 -0.0444 -0.3220 -0.1517
14007TIP3    H163436   0.160   1.475  17.018  0.4901  0.5565 -0.2263
14007TIP3    H263437   0.152   1.545  16.884 -0.6509  0.5848 -0.1437
14008TIP3   OH263438   1.386   4.339  16.870  0.4338  0.1622 -0.5364
14008TIP3    H163439   1.351   4.251  16.855  1.0631  0.0015 -1.0960
14008TIP3    H263440   1.326   4.378  16.933  0.1045 -0.6431 -0.3417
14009TIP3   OH263441   5.419   4.872  11.430 -0.2340 -0.6846  0.2429
14009TIP3    H163442   5.388   4.798  11.377 -0.6720 -0.2610 -0.1055
14009TIP3    H263443   5.502   4.898  11.389  0.3350 -1.4952  0.8631
14010TIP3   OH263444   0.996   2.470   1.742  0.0990 -0.7083  0.7812
14010TIP3    H163445   1.025   2.378   1.748  2.5037 -0.0393 -0.0223
14010TIP3    H263446   1.077   2.520   1.732 -1.1355  1.5944  1.9091
14011TIP3   OH263447   4.182   6.715   4.508  0.3936 -0.3986 -0.0328
14011TIP3    H163448   4.130   6.682   4.434  1.7710 -3.0397  0.1286
14011TIP3    H263449   4.195   6.638   4.564  0.4483  1.2921  2.3480
14012TIP3   OH263450   0.376   2.753  15.939  0.8953 -0.1535  0.2367
14012TIP3    H163451   0.449   2.762  16.002  1.8806 -2.7996 -0.4708
14012TIP3    H263452   0.301   2.729  15.993  0.6822  1.8278  0.8794
14013TIP3   OH263453   5.702   4.504  17.192 -0.3566 -0.0018  0.4166
14013TIP3    H163454   5.625   4.488  17.245 -0.6766 -1.9763 -0.6084
14013TIP3    H263455   5.680   4.583  17.141 -2.5303 -1.6583 -1.3331
14014TIP3   OH263456   4.328   0.881  15.598  0.2431 -0.4589 -0.2756
14014TIP3    H163457   4.415   0.862  15.632  0.5842 -1.9463 -1.9075
14014TIP3    H263458   4.318   0.822  15.523 -2.0271 -0.0640 -0.3190
14015TIP3   OH263459   5.613   5.325   5.848  0.4746 -0.4750  0.2536
14015TIP3    H163460   5.607   5.231   5.831  0.5439 -0.6297  1.0854
14015TIP3    H263461   5.524   5.358   5.834  0.4098 -0.6936  0.1529
14016TIP3   OH263462   1.949   0.816  15.952 -0.4242 -0.4324 -0.4299
14016TIP3    H163463   1.994   0.736  15.980  0.3110  0.3280  0.6178
14016TIP3    H263464   2.016   0.884  15.959 -0.7172  0.0920 -2.4043
14017TIP3   OH263465   0.637   5.499  11.935  0.0623  0.3461  0.2178
14017TIP3    H163466   0.626   5.591  11.958 -1.6030  0.7010 -1.9053
14017TIP3    H263467   0.561   5.478  11.881  0.9711 -1.9931 -0.2091
14018TIP3   OH263468   2.056   5.106  13.406 -0.0264  0.5168  0.3874
14018TIP3    H163469   2.039   5.171  13.338  2.4007  1.8211  0.9687
14018TIP3    H263470   2.125   5.051  13.370 -0.3085 -0.1882  0.9111
14019TIP3   OH263471   2.886   4.761   0.508 -1.2792  0.0134  0.2599
14019TIP3    H163472   2.931   4.817   0.572  0.4866 -0.6343 -0.3790
14019TIP3    H263473   2.874   4.817   0.432 -1.4860  0.1689  0.4066
14020TIP3   OH263474   3.615   5.391  12.190  0.0290  0.4077 -0.1548
14020TIP3    H163475   3.670   5.421  12.118 -2.1502  0.8168 -1.7190
14020TIP3    H263476   3.646   5.302  12.209  2.6052  1.3944  0.4902
14021TIP3   OH263477   3.853   5.551   3.738  0.4616  0.3652  0.3322
14021TIP3    H163478   3.874   5.506   3.820  1.3388  3.9981  2.2462
14021TIP3    H263479   3.759   5.567   3.742  0.6174  1.1872  1.0562
14022TIP3   OH263480   3.665   4.997  13.558  0.2175  0.1095  0.2192
14022TIP3    H163481   3.713   4.921  13.591 -0.4449 -0.2264  0.4019
14022TIP3    H263482   3.700   5.070  13.609  2.1457  0.2208 -1.1761
14023TIP3   OH263483   6.005   3.136  12.107  0.8521  0.4002  0.1872
14023TIP3    H163484   6.010   3.198  12.180 -2.2170 -0.5358  1.3154
14023TIP3    H263485   6.030   3.186  12.030  2.6353  1.8440  1.6630
14024TIP3   OH263486   3.780   0.215  13.334 -0.0345 -0.1938  0.4533
14024TIP3    H163487   3.705   0.267  13.305  1.3252  1.7596  0.3528
14024TIP3    H263488   3.826   0.191  13.253  2.1387  2.7943  0.7144
14025TIP3   OH263489   4.218   3.170  12.870 -0.3178 -0.4858 -0.1075
14025TIP3    H163490   4.307   3.175  12.904  0.0349 -0.1581 -1.0760
14025TIP3    H263491   4.228   3.150  12.777 -1.2100  0.9934 -0.5372
14026TIP3   OH263492   0.734   5.621  13.630  0.1158  0.4738  0.5560
14026TIP3    H163493   0.650   5.651  13.666  0.6061  0.4019  1.7912
14026TIP3    H263494   0.800   5.658  13.689  0.9291  0.1849 -0.1666
14027TIP3   OH263495   3.180   3.641   5.440 -0.1066  0.7488  0.0724
14027TIP3    H163496   3.186   3.719   5.384 -0.9819  0.1712 -0.8519
14027TIP3    H263497   3.146   3.573   5.382 -0.7083  0.0505  1.2348
14028TIP3   OH263498   5.815   4.195   2.425 -0.0085  0.2944  0.0557
14028TIP3    H163499   5.851   4.160   2.344  1.0434  0.0886  0.5939
14028TIP3    H263500   5.865   4.275   2.441  0.9655 -0.5392  1.3538
14029TIP3   OH263501   5.027   1.198   5.435 -0.4251  0.3390 -0.7153
14029TIP3    H163502   5.066   1.266   5.382 -0.0714  0.2371 -0.5861
14029TIP3    H263503   5.056   1.216   5.524 -0.2939 -0.0042 -0.6864
14030TIP3   OH263504   0.516   5.587  12.960  0.1242  0.0075  0.4077
14030TIP3    H163505   0.431   5.547  12.976 -0.1476  0.3661 -0.1203
14030TIP3    H263506   0.496   5.679  12.940  0.6862  0.2572  0.9611
14031TIP3   OH263507   5.142   3.691   0.154  0.7067  0.7328 -0.5342
14031TIP3    H163508   5.076   3.752   0.120  1.5953  1.8582 -0.2634
14031TIP3    H263509   5.144   3.708   0.248  0.4722 -0.1995 -0.3578
14032TIP3   OH263510   4.848   6.344  12.236 -0.2775  0.0586 -0.0565
14032TIP3    H163511   4.919   6.304  12.186 -0.6747  1.1472 -1.5451
14032TIP3    H263512   4.788   6.378  12.170 -2.3642 -1.1150  1.1821
14033TIP3   OH263513   0.076   4.220  16.877  0.2692  0.0774  0.0635
14033TIP3    H163514   0.048   4.128  16.870 -0.8629  0.6091 -3.3761
14033TIP3    H263515   0.171   4.217  16.870  0.1575 -0.7508 -1.1446
14034TIP3   OH263516   6.748   0.432  16.914 -1.0277  0.1826 -0.2215
14034TIP3    H163517   6.725   0.522  16.895  0.8363  0.7336 -0.0009
14034TIP3    H263518   6.826   0.415  16.861 -1.0576 -1.1121  0.1328
14035TIP3   OH263519   0.494   5.904   5.850  0.6070 -0.0105  0.0565
14035TIP3    H163520   0.521   5.907   5.758  1.4462 -0.0737  0.2966
14035TIP3    H263521   0.398   5.901   5.847  0.6584 -1.4141 -0.8611
14036TIP3   OH263522   5.371   4.798   4.516 -0.7780  0.5372  0.0400
14036TIP3    H163523   5.314   4.839   4.450 -1.9817  2.0694  1.9853
14036TIP3    H263524   5.357   4.705   4.505 -2.1458  0.8403 -0.8557
14037TIP3   OH263525   2.465   4.209   2.093  0.2102  0.0181 -0.0527
14037TIP3    H163526   2.372   4.201   2.075  0.2475  1.1291 -0.7820
14037TIP3    H263527   2.475   4.298   2.127  1.0362 -0.0227 -0.1802
14038TIP3   OH263528   0.135   6.047   0.086  0.1445  0.2756  0.1390
14038TIP3    H163529   0.118   6.108   0.157 -1.3908  0.7409 -0.6007
14038TIP3    H263530   0.066   6.065   0.022  0.4183 -1.3591 -0.6501
14039TIP3   OH263531   5.006   1.307   4.115  0.2830 -0.7694  0.1882
14039TIP3    H163532   5.009   1.311   4.210 -1.0955  1.0522  0.1944
14039TIP3    H263533   5.083   1.356   4.086  0.2815 -0.6570  0.3740
14040TIP3   OH263534   0.357   1.683   6.024  0.3702  0.3297  0.2472
14040TIP3    H163535   0.364   1.757   5.963  0.8497 -2.2762 -2.9714
14040TIP3    H263536   0.445   1.644   6.024 -0.6804 -2.1263 -0.6178
14041TIP3   OH263537   6.191   6.031  13.345 -0.3021 -0.0165 -0.1062
14041TIP3    H163538   6.121   6.095  13.349  0.7939  1.1608  0.6732
14041TIP3    H263539   6.165   5.970  13.276 -1.0633  1.6268 -1.2849
14042TIP3   OH263540   1.264   3.895  14.245 -0.5927  0.4392  0.4074
14042TIP3    H163541   1.283   3.846  14.325 -1.3328 -0.2206  0.1789
14042TIP3    H263542   1.182   3.858  14.213 -0.0011  0.3243 -0.9664
14043TIP3   OH263543   3.570   1.543  12.894  0.3769 -0.1714  0.7033
14043TIP3    H163544   3.654   1.513  12.929  0.1464  1.0908  2.4141
14043TIP3    H263545   3.510   1.539  12.969 -0.8354 -0.0351 -0.2394
14044TIP3   OH263546   6.498   3.719  11.037 -0.2528 -0.5466 -0.4127
14044TIP3    H163547   6.432   3.651  11.053  0.3914 -0.7132  1.6821
14044TIP3    H263548   6.581   3.673  11.042  0.2222  0.4866  1.6332
14045TIP3   OH263549   5.029   4.431   2.041  0.5469 -0.2724 -0.2207
14045TIP3    H163550   5.066   4.345   2.020  0.6411 -0.2976  0.0516
14045TIP3    H263551   5.081   4.493   1.990  0.9370 -0.3116  0.1258
14046TIP3   OH263552   4.375   5.298  15.323 -0.2412 -0.7039 -0.1228
14046TIP3    H163553   4.353   5.207  15.306  1.2206 -0.5002 -3.5521
14046TIP3    H263554   4.467   5.296  15.349 -0.7329 -0.3616  1.7109
14047TIP3   OH263555   1.486   2.269  15.123 -0.1508 -0.1608 -0.0972
14047TIP3    H163556   1.511   2.361  15.124  1.4171 -0.5831  1.6320
14047TIP3    H263557   1.440   2.258  15.039 -0.0712  2.0926 -0.4757
14048TIP3   OH263558   0.424   6.036   5.039  0.3640 -0.4133 -0.1509
14048TIP3    H163559   0.422   5.998   4.951  0.5008  1.8070 -1.1560
14048TIP3    H263560   0.498   6.096   5.038 -1.0878  1.4508  0.6696
14049TIP3   OH263561   2.947   2.921   6.530  0.7137  0.4484  0.0631
14049TIP3    H163562   2.958   3.011   6.562  1.6987  0.1864  0.4713
14049TIP3    H263563   3.036   2.888   6.520  0.3457 -0.9158  1.1243
14050TIP3   OH263564   5.861   0.304  15.094 -0.3290  0.3752  0.0469
14050TIP3    H163565   5.890   0.395  15.096 -0.2207  0.3299  0.5716
14050TIP3    H263566   5.928   0.259  15.042  0.7981  0.1867  1.6381
14051TIP3   OH263567   5.437   0.957  11.360  0.1076 -0.6369 -0.0748
14051TIP3    H163568   5.526   0.941  11.389  0.4032  0.2006 -0.5046
14051TIP3    H263569   5.388   0.974  11.441  0.2817 -1.3730  0.1810
14052TIP3   OH263570   4.148   5.805  14.536 -0.2221 -0.2304 -0.0529
14052TIP3    H163571   4.243   5.790  14.539 -0.5501 -2.0896  2.1347
14052TIP3    H263572   4.134   5.846  14.451  2.6230  0.6595 -0.1540
14053TIP3   OH263573   0.086   4.220  13.160 -0.1011  0.0691  0.0231
14053TIP3    H163574   0.143   4.255  13.229 -0.2248  0.6939 -0.1879
14053TIP3    H263575   0.040   4.297  13.126  1.0606 -0.0242 -1.7749
14054TIP3   OH263576   1.766   6.023  14.710 -0.2001 -0.1572 -0.1654
14054TIP3    H163577   1.822   6.008  14.786 -0.2272  2.0175  0.3179
14054TIP3    H263578   1.678   6.001  14.741 -0.0018 -0.8021 -0.0529
14055TIP3   OH263579   6.195   2.757   4.735  0.5188  0.3811 -0.3812
14055TIP3    H163580   6.291   2.762   4.728  0.5186  2.9537  0.8821
14055TIP3    H263581   6.172   2.830   4.791 -2.2266 -0.1860 -0.7354
14056TIP3   OH263582   1.332   3.907   5.900  0.7583 -0.3948  0.2893
14056TIP3    H163583   1.364   3.930   5.987  1.4995 -1.0622  0.1998
14056TIP3    H263584   1.347   3.813   5.893 -1.0843 -0.7067  0.1838
14057TIP3   OH263585   3.055   4.687  11.944 -0.5057  0.2796 -0.3874
14057TIP3    H163586   2.968   4.720  11.968  0.0697  0.4223  1.6020
14057TIP3    H263587   3.083   4.743  11.872 -1.3780  1.2890  0.0488
14058TIP3   OH263588   5.166   2.365  12.992 -0.0242  0.2301  0.6094
14058TIP3    H163589   5.226   2.292  12.981 -0.2621  0.1612 -0.3320
14058TIP3    H263590   5.095   2.347  12.930  0.8306  2.1787 -1.0016
14059TIP3   OH263591   4.453   6.492   4.391  0.0776 -0.3525 -0.0710
14059TIP3    H163592   4.384   6.491   4.458 -0.3026 -1.1648 -0.4664
14059TIP3    H263593   4.485   6.401   4.388  2.9347  0.5110  1.8943
14060TIP3   OH263594   6.005   3.513   0.036  0.6287  0.2411  0.3690
14060TIP3    H163595   5.944   3.502   0.109  0.4502 -0.5184  0.1115
14060TIP3    H263596   6.020   3.608   0.031  0.0605  0.3638  0.9125
14061TIP3   OH263597   0.392   5.739   3.172 -0.3633  0.4578 -0.8665
14061TIP3    H163598   0.388   5.826   3.133  1.2238 -0.3318 -2.8797
14061TIP3    H263599   0.485   5.721   3.183 -0.7197 -0.3981  0.9073
14062TIP3   OH263600   3.755   0.321  10.930  0.0500 -0.3838  0.0934
14062TIP3    H163601   3.692   0.255  10.901  1.5577 -1.8918  0.2017
14062TIP3    H263602   3.799   0.349  10.850  0.8868 -1.0672  0.3085
14063TIP3   OH263603   6.351   5.377  13.438 -0.2725  0.6912 -0.3108
14063TIP3    H163604   6.280   5.442  13.437  0.4336  1.4666 -0.3311
14063TIP3    H263605   6.314   5.301  13.394 -0.3957  1.8463 -2.2476
14064TIP3   OH263606   1.791   5.846   3.725 -0.0327  0.1060  0.2441
14064TIP3    H163607   1.755   5.910   3.664  2.7801  0.4485 -1.1254
14064TIP3    H263608   1.787   5.889   3.811 -2.1431  0.3834  0.0551
14065TIP3   OH263609   2.395   3.595  13.455 -0.0225 -0.0295  0.5828
14065TIP3    H163610   2.466   3.648  13.491  0.3033 -0.5644  0.7367
14065TIP3    H263611   2.380   3.632  13.368  0.5485 -0.0095  0.4916
14066TIP3   OH263612   2.651   6.157   3.056 -0.9936  0.2612 -0.1157
14066TIP3    H163613   2.560   6.152   3.028 -1.6830  0.8246  1.9826
14066TIP3    H263614   2.650   6.215   3.132  1.0535 -0.0957  0.2096
14067TIP3   OH263615   3.447   4.331   3.986  0.2154 -0.4078 -0.2569
14067TIP3    H163616   3.416   4.386   3.914 -0.9447  0.2460  0.7306
14067TIP3    H263617   3.472   4.249   3.944  2.4240  1.0018 -1.8438
14068TIP3   OH263618   0.163   0.451  14.318 -0.2606  0.4464 -0.2442
14068TIP3    H163619   0.137   0.450  14.411  0.5054  1.8138 -0.0042
14068TIP3    H263620   0.258   0.452  14.320 -0.2461  0.5945 -1.0461
14069TIP3   OH263621   3.972   0.103  13.711  0.2346 -0.2791 -0.1377
14069TIP3    H163622   4.035   0.145  13.652 -0.1302 -1.4102 -1.3626
14069TIP3    H263623   4.019   0.094  13.794  0.6375  1.6552 -0.1208
14070TIP3   OH263624   6.275   0.720   3.594 -0.6393 -0.0067 -0.2402
14070TIP3    H163625   6.281   0.665   3.672 -1.3449  0.3718  0.0839
14070TIP3    H263626   6.359   0.708   3.550  0.3325  0.8873  1.3052
14071TIP3   OH263627   0.148   3.395   3.844 -0.1029 -0.1012  0.3101
14071TIP3    H163628   0.147   3.322   3.782 -1.1829  1.4618 -1.5514
14071TIP3    H263629   0.236   3.432   3.835 -0.4011  0.3945 -0.6342
14072TIP3   OH263630   6.477   3.658   4.688 -0.1084 -0.0773 -0.1081
14072TIP3    H163631   6.458   3.666   4.595 -0.2422  0.2948 -0.0510
14072TIP3    H263632   6.391   3.665   4.731 -0.0437 -0.2127  0.0435
14073TIP3   OH263633   5.620   0.334   3.904 -0.4069 -0.0325  0.2282
14073TIP3    H163634   5.562   0.383   3.846 -0.1939 -0.0805 -0.0296
14073TIP3    H263635   5.594   0.359   3.992 -0.2397  0.6178  0.0959
14074TIP3   OH263636   1.522   5.539   5.382  0.4664 -0.2381 -0.1969
14074TIP3    H163637   1.487   5.465   5.432  0.4294 -0.6644 -0.8536
14074TIP3    H263638   1.541   5.503   5.295  3.3764 -0.2535  0.3728
14075TIP3   OH263639   6.136   0.630  16.801 -0.4717 -0.0563 -0.1249
14075TIP3    H163640   6.138   0.536  16.782  0.3420 -0.4640  1.7746
14075TIP3    H263641   6.065   0.665  16.747  0.2460 -1.4845 -2.0218
14076TIP3   OH263642   2.834   3.341  14.681  0.0749 -0.2436 -0.4341
14076TIP3    H163643   2.805   3.365  14.593  2.3337 -0.2515 -1.2150
14076TIP3    H263644   2.826   3.422  14.732 -3.0024 -0.6990 -0.1374
14077TIP3   OH263645   2.359   2.041  13.262  0.4369 -0.0667 -0.4112
14077TIP3    H163646   2.389   2.115  13.209  0.4802 -0.2054 -0.5798
14077TIP3    H263647   2.416   2.042  13.339 -1.3986  1.7923  0.9566
14078TIP3   OH263648   5.169   1.721   2.313  0.1080 -0.0070  0.7582
14078TIP3    H163649   5.077   1.734   2.337  0.2265  0.3605  1.0122
14078TIP3    H263650   5.212   1.804   2.336  0.5091 -0.1887  0.6660
14079TIP3   OH263651   2.639   4.829   1.814  0.2501 -0.4952 -0.2954
14079TIP3    H163652   2.679   4.883   1.746 -0.4598 -1.7375 -1.7263
14079TIP3    H263653   2.598   4.893   1.873  1.6466  0.6331 -0.5256
14080TIP3   OH263654   2.104   6.325   3.057 -0.3784 -0.5269  0.5721
14080TIP3    H163655   2.030   6.280   3.098 -1.0517  0.5784  0.5823
14080TIP3    H263656   2.155   6.361   3.130  1.0650 -2.6364  0.6465
14081TIP3   OH263657   5.312   1.645  11.761 -0.1907  0.3250 -0.4971
14081TIP3    H163658   5.384   1.675  11.817 -0.1226 -0.8798  0.0688
14081TIP3    H263659   5.265   1.725  11.737  0.4091  0.9542  0.4193
14082TIP3   OH263660   3.644   5.959   0.716  0.5233 -0.0086 -0.5459
14082TIP3    H163661   3.620   5.871   0.746 -0.4187  0.8027  1.1687
14082TIP3    H263662   3.740   5.959   0.718  0.5438 -1.1700 -1.0933
14083TIP3   OH263663   2.252   5.932  13.832 -0.0320  0.0075 -0.2674
14083TIP3    H163664   2.226   6.023  13.847 -0.7779 -0.4467  1.3106
14083TIP3    H263665   2.308   5.910  13.906  1.4181 -0.3516 -1.4529
14084TIP3   OH263666   1.295   5.752  13.254 -0.8367  0.0269 -0.1423
14084TIP3    H163667   1.374   5.708  13.287 -0.2329  0.5580 -0.8598
14084TIP3    H263668   1.316   5.772  13.162 -1.0208  2.0194  0.2416
14085TIP3   OH263669   1.612   4.667   5.660 -0.3035  0.3546 -0.4219
14085TIP3    H163670   1.527   4.702   5.688  0.7882  1.1445  2.0575
14085TIP3    H263671   1.641   4.727   5.592  0.4291  2.9407  2.0790
14086TIP3   OH263672   3.246   3.223  13.425 -0.3488 -0.2846  0.3006
14086TIP3    H163673   3.225   3.141  13.380 -2.4255  0.6674 -0.5133
14086TIP3    H263674   3.261   3.286  13.355  0.5468  0.2110  0.9264
14087TIP3   OH263675   2.231   6.645  12.418 -0.5553  0.0270  0.6109
14087TIP3    H163676   2.319   6.657  12.383 -1.0208  0.5540 -0.4012
14087TIP3    H263677   2.222   6.713  12.484 -0.4453  0.4001  0.2426
14088TIP3   OH263678   0.885   6.111   0.149 -0.1990  0.0807  0.6037
14088TIP3    H163679   0.843   6.151   0.225 -1.1263  0.1383  0.0710
14088TIP3    H263680   0.954   6.056   0.186 -0.8563 -0.1528  1.5052
14089TIP3   OH263681   4.923   5.769   2.228  0.2141 -0.2959  0.4110
14089TIP3    H163682   4.948   5.757   2.319 -0.9184 -0.5785  0.7015
14089TIP3    H263683   4.834   5.731   2.223  0.6849 -1.2560 -1.0371
14090TIP3   OH263684   5.230   2.501  12.696 -0.2923  0.0896  0.1552
14090TIP3    H163685   5.173   2.439  12.651 -1.7789  0.9949  0.7510
14090TIP3    H263686   5.301   2.518  12.634 -0.7295 -0.9513 -0.6500
14091TIP3   OH263687   0.699   5.178   1.625 -0.3386 -0.1248  0.0153
14091TIP3    H163688   0.738   5.095   1.598 -0.3194 -0.2898  0.5569
14091TIP3    H263689   0.707   5.234   1.547  1.2501 -0.0533  0.1983
14092TIP3   OH263690   6.184   6.447   0.568  0.4603 -0.1437 -0.0646
14092TIP3    H163691   6.231   6.400   0.638  0.6840 -0.1798 -0.2380
14092TIP3    H263692   6.131   6.379   0.526 -0.5465  0.1010  0.8021
14093TIP3   OH263693   2.184   1.037   3.496  0.1729 -0.0784  0.1671
14093TIP3    H163694   2.144   1.104   3.441  0.7099 -0.4162 -0.6425
14093TIP3    H263695   2.196   0.962   3.438  1.4846 -0.1576  0.5205
14094TIP3   OH263696   5.020   2.404   3.127 -0.5269 -0.9698 -0.0518
14094TIP3    H163697   5.009   2.425   3.220 -0.8681 -1.2608 -0.0261
14094TIP3    H263698   4.945   2.349   3.105 -1.0709  0.0356 -0.7787
14095TIP3   OH263699   1.621   4.813   3.153 -0.8558  0.6193 -0.6151
14095TIP3    H163700   1.655   4.751   3.088  0.4727  0.7068 -0.0172
14095TIP3    H263701   1.696   4.866   3.177 -1.5829  1.2880  0.2260
14096TIP3   OH263702   5.380   0.453   2.547 -0.1663 -0.1881 -0.0752
14096TIP3    H163703   5.319   0.482   2.614  0.1244  0.5743 -0.1404
14096TIP3    H263704   5.333   0.385   2.499  0.2168 -1.9493  1.9603
14097TIP3   OH263705   4.300   0.490  14.949 -0.1848 -0.6236  0.1414
14097TIP3    H163706   4.206   0.507  14.945 -0.1780 -0.6474 -0.1250
14097TIP3    H263707   4.319   0.438  14.871 -0.1742 -1.6876  0.8469
14098TIP3   OH263708   6.243   6.410  13.504  0.4170 -0.5491  0.2244
14098TIP3    H163709   6.156   6.438  13.533  0.5205 -0.2668  0.2597
14098TIP3    H263710   6.271   6.347  13.570 -0.6064 -2.1545 -0.8389
14099TIP3   OH263711   2.813   0.948  11.963 -0.1003 -0.7685 -0.0107
14099TIP3    H163712   2.838   0.952  11.870  2.0695 -0.2435  0.5825
14099TIP3    H263713   2.845   0.863  11.992  0.3306 -0.3953  0.5889
14100TIP3   OH263714   0.800   3.747  15.528  0.0658  0.1256 -0.2343
14100TIP3    H163715   0.789   3.763  15.435 -0.7776  1.6353  0.0989
14100TIP3    H263716   0.751   3.818  15.570  0.4761 -0.5086  1.3471
14101TIP3   OH263717   5.437   0.829  10.984  0.3586 -0.9374 -0.2071
14101TIP3    H163718   5.364   0.812  11.043  0.6071  0.8973  0.6584
14101TIP3    H263719   5.455   0.744  10.943  0.0988 -2.2128  2.2534
14102TIP3   OH263720   5.077   1.651   5.878  0.8811  0.9891 -0.0670
14102TIP3    H163721   4.990   1.649   5.838  0.4535  0.6216  0.8606
14102TIP3    H263722   5.061   1.674   5.969  1.7569  0.8862  0.1232
14103TIP3   OH263723   6.129   1.440  15.081 -0.4568  0.8217 -0.1717
14103TIP3    H163724   6.086   1.392  15.011  1.3322 -0.4050 -0.4517
14103TIP3    H263725   6.218   1.455  15.050 -0.0404  1.4662  1.2609
14104TIP3   OH263726   2.727   2.145   4.688  0.1115 -0.0515  0.3334
14104TIP3    H163727   2.795   2.092   4.728  0.1270  0.9402  1.6396
14104TIP3    H263728   2.671   2.172   4.760 -1.5281 -0.6294 -0.6856
14105TIP3   OH263729   6.602   1.404  14.725  0.0679  0.0743  0.1253
14105TIP3    H163730   6.651   1.394  14.643 -0.4618 -1.0720 -0.0487
14105TIP3    H263731   6.668   1.392  14.793 -0.1650 -2.5951 -0.0915
14106TIP3   OH263732   0.531   1.184  15.000  0.0962  0.0857  0.0880
14106TIP3    H163733   0.540   1.089  14.999  0.7765  0.1517 -0.2495
14106TIP3    H263734   0.609   1.216  14.954 -0.1045  0.8067  0.2459
14107TIP3   OH263735   2.987   5.531  16.902 -0.0604  0.2751  0.7190
14107TIP3    H163736   3.004   5.532  16.997 -0.5587 -1.0380  0.8261
14107TIP3    H263737   2.951   5.444  16.885  0.5162  0.3148 -0.7682
14108TIP3   OH263738   6.732   5.289   0.060 -0.6295  0.3329  0.4826
14108TIP3    H163739   6.745   5.354   0.130  0.7651  0.7384 -0.1399
14108TIP3    H263740   6.798   5.222   0.078 -0.3235  0.3987 -0.3845
14109TIP3   OH263741   3.506   0.431  12.961  0.3999  0.2627 -0.5679
14109TIP3    H163742   3.439   0.456  12.897 -1.3968  1.6226  1.7165
14109TIP3    H263743   3.587   0.469  12.928 -0.4079  0.5355 -2.2590
14110TIP3   OH263744   2.732   6.134   1.614 -0.0835  0.0260  0.4400
14110TIP3    H163745   2.649   6.108   1.573  0.6379 -0.2982 -0.8363
14110TIP3    H263746   2.791   6.061   1.596  0.1761 -0.2687  2.3416
14111TIP3   OH263747   1.026   0.058   0.693 -0.3011  0.3113  0.6712
14111TIP3    H163748   1.100   0.091   0.642  0.2267  1.4119  2.1323
14111TIP3    H263749   0.968   0.019   0.627  0.2409  1.9372 -0.8151
14112TIP3   OH263750   1.337   2.313   0.671  0.1103  0.2055  0.8335
14112TIP3    H163751   1.364   2.269   0.752 -0.4765  2.1408  2.1324
14112TIP3    H263752   1.247   2.339   0.687 -0.2389 -0.0137 -0.7393
14113TIP3   OH263753   2.197   3.481   4.079  0.5093 -0.4609 -0.1887
14113TIP3    H163754   2.155   3.564   4.055 -2.1572 -1.8247 -0.3294
14113TIP3    H263755   2.220   3.441   3.995  2.3291  0.3498 -0.1114
14114TIP3   OH263756   1.097   4.094  13.907 -0.4231  0.3864 -0.6181
14114TIP3    H163757   1.041   4.100  13.985  0.0637 -0.8858 -0.1628
14114TIP3    H263758   1.074   4.010  13.867  1.0772 -0.1189 -0.4759
14115TIP3   OH263759   1.268   6.503  11.204  0.0022  0.4388 -0.2535
14115TIP3    H163760   1.316   6.571  11.157  0.0098  0.4657 -0.2066
14115TIP3    H263761   1.201   6.551  11.253  1.8103  0.6712  2.0234
14116TIP3   OH263762   3.037   4.481  16.446  0.8729  0.0884  0.4567
14116TIP3    H163763   2.992   4.500  16.363  0.7817 -2.4890 -0.1368
14116TIP3    H263764   2.976   4.511  16.514  0.0585  0.4167 -0.4049
14117TIP3   OH263765   0.357   1.814  16.458 -0.2363 -0.3178 -0.3019
14117TIP3    H163766   0.264   1.828  16.476  0.2049  1.0526  1.0476
14117TIP3    H263767   0.372   1.722  16.481 -1.6351 -1.0770 -2.2967
14118TIP3   OH263768   5.708   3.089   3.197  0.1498  1.4720  0.3687
14118TIP3    H163769   5.682   3.158   3.137  2.0569  0.4445 -1.7221
14118TIP3    H263770   5.646   3.018   3.180  0.6579  1.1989 -0.3828
14119TIP3   OH263771   2.798   2.872   1.434 -0.3181 -0.0987  0.2367
14119TIP3    H163772   2.721   2.881   1.377 -1.1482 -0.4028  1.2945
14119TIP3    H263773   2.793   2.947   1.493 -1.5349 -1.7440  2.3232
14120TIP3   OH263774   3.601   1.803   3.285  0.1289 -0.0033 -0.1391
14120TIP3    H163775   3.682   1.776   3.242  0.1992 -1.4641  0.8843
14120TIP3    H263776   3.542   1.825   3.212  0.9316 -0.4156 -0.9203
14121TIP3   OH263777   4.390   1.907  16.648  0.1879  0.2264 -0.3890
14121TIP3    H163778   4.301   1.929  16.618  0.2681 -0.9644 -1.5750
14121TIP3    H263779   4.447   1.937  16.577  0.6760  0.3244  0.0434
14122TIP3   OH263780   2.732   6.715   5.246 -0.0966  0.1560  0.0157
14122TIP3    H163781   2.812   6.745   5.289  0.0819 -0.5172  0.1556
14122TIP3    H263782   2.727   6.622   5.268 -0.0591 -0.1723 -1.3461
14123TIP3   OH263783   0.105   6.131  11.421  0.1853 -0.3786 -0.4304
14123TIP3    H163784   0.162   6.137  11.344 -0.4541 -2.2639 -1.0963
14123TIP3    H263785   0.054   6.212  11.419  0.3575 -0.2811 -1.8651
14124TIP3   OH263786   5.832   5.382   2.518  0.0826 -0.4173 -0.5616
14124TIP3    H163787   5.819   5.469   2.555  0.5691 -1.1195  1.3549
14124TIP3    H263788   5.775   5.326   2.571  2.6974 -1.8522  0.8297
14125TIP3   OH263789   1.151   3.627  16.316 -0.0745 -1.1845 -0.5682
14125TIP3    H163790   1.218   3.671  16.264 -0.2392  2.0022  1.8021
14125TIP3    H263791   1.200   3.586  16.387 -0.4198 -0.5439  0.0436
14126TIP3   OH263792   1.425   5.434  15.070 -0.2692 -0.0065 -0.4762
14126TIP3    H163793   1.356   5.500  15.071 -0.2422  0.0937 -3.0866
14126TIP3    H263794   1.490   5.467  15.131 -0.9638  1.6078 -0.5812
14127TIP3   OH263795   5.389   2.187   3.328 -0.2364  0.3096  0.3194
14127TIP3    H163796   5.482   2.206   3.338 -0.1964  0.7416 -0.7931
14127TIP3    H263797   5.347   2.273   3.322 -0.4907  0.1175 -0.9400
14128TIP3   OH263798   4.532   0.517   0.082 -0.1491 -0.0420  0.5451
14128TIP3    H163799   4.499   0.577   0.016  2.8766  0.4210 -0.6351
14128TIP3    H263800   4.506   0.556   0.166 -2.4573  0.2934 -0.2903
14129TIP3   OH263801   6.185   4.379   0.236 -0.7406 -0.5264 -0.3658
14129TIP3    H163802   6.272   4.367   0.197  0.5681  2.9309  1.2685
14129TIP3    H263803   6.203   4.387   0.330 -2.8186  0.3403 -0.0272
14130TIP3   OH263804   2.114   4.489  12.348  0.4346 -0.3979 -0.2195
14130TIP3    H163805   2.160   4.416  12.390  3.1195  1.2756 -0.0785
14130TIP3    H263806   2.022   4.464  12.351  1.1230 -3.0363  1.2718
14131TIP3   OH263807   1.320   6.776  17.201 -0.5182  0.4261 -0.0784
14131TIP3    H163808   1.345   6.848  17.259  2.6229  0.2433 -1.1513
14131TIP3    H263809   1.332   6.811  17.112 -2.5007 -0.2451 -0.6461
14132TIP3   OH263810   2.864   0.433   0.709 -0.0811 -0.1414 -0.2405
14132TIP3    H163811   2.918   0.358   0.685  0.3621  0.8528 -2.5815
14132TIP3    H263812   2.774   0.400   0.706  0.1787 -0.8663 -0.0909
14133TIP3   OH263813   6.734   6.389   5.586  0.2667 -0.0750  0.2481
14133TIP3    H163814   6.760   6.443   5.660  2.1628 -1.0608  0.3347
14133TIP3    H263815   6.685   6.316   5.625  0.3835 -0.0622  0.4165
14134TIP3   OH263816   2.359   4.711  14.549  0.4558  0.3092  0.2721
14134TIP3    H163817   2.437   4.726  14.602  0.9419 -2.5692  0.4539
14134TIP3    H263818   2.393   4.681  14.465 -0.4285  0.9526 -0.3255
14135TIP3   OH263819   2.493   0.321  15.610  0.9086 -0.0050  0.4300
14135TIP3    H163820   2.519   0.288  15.524 -0.0604 -0.1981  0.2033
14135TIP3    H263821   2.451   0.405  15.593  1.3165  0.2745  0.7846
14136TIP3   OH263822   0.998   0.115   1.247 -0.2839  0.0804 -0.1159
14136TIP3    H163823   1.082   0.161   1.242 -0.3472  0.3009  0.6510
14136TIP3    H263824   0.933   0.184   1.237 -0.3753 -0.0694 -0.5581
14137TIP3   OH263825   0.686   1.578   0.626  0.4898 -0.2093  0.3744
14137TIP3    H163826   0.728   1.502   0.585  0.0073 -0.2238 -0.0928
14137TIP3    H263827   0.660   1.634   0.553 -0.5949 -0.3591  0.6292
14138TIP3   OH263828   1.675   4.278   6.221  0.0338  0.0267  0.3419
14138TIP3    H163829   1.585   4.267   6.190 -0.1048  1.1486  0.3261
14138TIP3    H263830   1.668   4.270   6.316 -0.0182 -0.2601  0.3165
14139TIP3   OH263831   4.007   2.683   1.414  0.2596 -0.3375  0.7490
14139TIP3    H163832   4.005   2.588   1.427  2.1275 -0.2252  2.1020
14139TIP3    H263833   3.974   2.719   1.496 -0.1322  0.1858  0.3618
14140TIP3   OH263834   5.065   6.683   3.658  0.0312  0.3458 -0.2558
14140TIP3    H163835   5.035   6.703   3.569 -0.0100 -1.4148 -0.6577
14140TIP3    H263836   5.115   6.761   3.684 -2.0125  1.9047 -0.8526
14141TIP3   OH263837   1.644   5.889   3.146 -0.1239 -0.2946  0.0328
14141TIP3    H163838   1.593   5.813   3.172  0.8615 -0.4658  1.5229
14141TIP3    H263839   1.600   5.922   3.067 -1.7380 -1.2016  0.5394
14142TIP3   OH263840   0.916   1.446  13.928  0.0615  0.0019 -0.7584
14142TIP3    H163841   0.898   1.536  13.957 -0.1740  0.3438 -1.9549
14142TIP3    H263842   0.857   1.392  13.980 -1.2177  0.7183 -1.4626
14143TIP3   OH263843   0.128   6.271   3.709  0.2304 -0.1820  0.8567
14143TIP3    H163844   0.067   6.338   3.741 -0.4607 -0.2883 -0.2185
14143TIP3    H263845   0.095   6.190   3.748  0.6943 -0.0022  1.6441
14144TIP3   OH263846   2.499   6.701  12.351  0.0932 -0.5667 -0.1147
14144TIP3    H163847   2.562   6.671  12.416 -0.3757 -1.4835 -0.0670
14144TIP3    H263848   2.545   6.697  12.268  0.1038 -1.2441 -0.0811
14145TIP3   OH263849   0.877   5.424  13.023  0.7215  0.3146 -0.0012
14145TIP3    H163850   0.890   5.469  13.107  2.5331 -1.5477  0.7505
14145TIP3    H263851   0.955   5.445  12.973  1.0009 -0.9690 -0.1141
14146TIP3   OH263852   6.267   6.274  10.883 -0.5294  0.3999 -1.0841
14146TIP3    H163853   6.175   6.259  10.905 -1.0267  0.9670 -2.7149
14146TIP3    H263854   6.267   6.360  10.840  0.6610  0.0562 -1.7698
14147TIP3   OH263855   5.095   5.767  16.939 -0.7318 -0.2393 -0.3251
14147TIP3    H163856   5.020   5.796  16.887  1.8024  3.9634 -1.8854
14147TIP3    H263857   5.117   5.680  16.904 -2.9828 -0.1931 -1.9211
14148TIP3   OH263858   2.594   3.996  15.206  0.1341  0.1099  0.0695
14148TIP3    H163859   2.586   4.076  15.258  1.2952  1.7492 -2.1634
14148TIP3    H263860   2.687   3.974  15.211 -0.1067 -0.8527  0.3102
14149TIP3   OH263861   3.943   2.129  11.524  0.2144  0.3065 -0.1220
14149TIP3    H163862   4.000   2.121  11.447  0.3731 -0.7702  0.1070
14149TIP3    H263863   4.002   2.156  11.595  0.4047 -0.5500  0.0536
14150TIP3   OH263864   0.493   4.089   3.636 -0.0387 -0.0369  0.6170
14150TIP3    H163865   0.512   3.996   3.648 -0.0212 -0.2532 -1.0291
14150TIP3    H263866   0.413   4.090   3.582 -0.9282  0.8985  1.9179
14151TIP3   OH263867   2.815   5.281  14.379  0.5141 -0.1507 -0.4555
14151TIP3    H163868   2.721   5.272  14.363  0.5473  0.4679 -0.9828
14151TIP3    H263869   2.822   5.355  14.439  0.8543  1.5111 -2.4898
14152TIP3   OH263870   6.063   3.628  16.891  0.0099 -0.0901  0.3391
14152TIP3    H163871   6.059   3.678  16.810 -1.4418  1.5849  1.3924
14152TIP3    H263872   6.030   3.688  16.958  0.7773 -1.5733  2.1039
14153TIP3   OH263873   0.822   0.576  11.633 -0.4608  0.1594  0.2426
14153TIP3    H163874   0.858   0.606  11.716 -0.6697 -0.8001  0.6904
14153TIP3    H263875   0.897   0.566  11.575 -0.2650  0.3283  0.4692
14154TIP3   OH263876   1.914   5.857  11.936  0.1730 -0.2201  0.0825
14154TIP3    H163877   1.871   5.781  11.897 -0.3110  0.6439 -1.1068
14154TIP3    H263878   1.877   5.863  12.024  0.0989 -1.2553  0.1375
14155TIP3   OH263879   0.497   1.209  12.693 -0.2407  0.1984  0.0876
14155TIP3    H163880   0.515   1.118  12.669 -2.3256  0.0758 -1.1033
14155TIP3    H263881   0.447   1.244  12.619 -0.2839  2.0382  0.9537
14156TIP3   OH263882   1.585   3.995  10.544 -0.3323  0.3520  0.0117
14156TIP3    H163883   1.636   3.921  10.576 -0.1138 -0.4155 -2.0061
14156TIP3    H263884   1.513   4.004  10.605  0.7206 -0.2870  1.3693
14157TIP3   OH263885   5.234   6.783  13.829  0.0082 -0.3938  0.0990
14157TIP3    H163886   5.240   6.688  13.821  1.6257  0.0364 -6.2660
14157TIP3    H263887   5.325   6.813  13.830 -0.4925  1.1952 -0.5122
14158TIP3   OH263888   4.649   2.459  11.739 -0.0642  0.3703 -0.0625
14158TIP3    H163889   4.688   2.466  11.652 -0.7131  1.3071 -0.2786
14158TIP3    H263890   4.591   2.534  11.746 -1.1962 -0.5497  0.5947
14159TIP3   OH263891   4.933   5.207  14.314  0.0616 -0.2698 -0.2465
14159TIP3    H163892   4.874   5.209  14.390 -1.1992 -0.6517 -1.1909
14159TIP3    H263893   4.876   5.226  14.239  1.1909 -0.4449 -1.1652
14160TIP3   OH263894   0.892   0.589  10.479 -0.2238 -0.5297  0.5500
14160TIP3    H163895   0.979   0.629  10.478 -1.0253  1.2953  1.1426
14160TIP3    H263896   0.832   0.662  10.469 -1.7431 -1.5760  1.7279
14161TIP3   OH263897   1.038   3.279   4.743 -0.3218  0.5411  0.2304
14161TIP3    H163898   1.031   3.343   4.814 -1.5633 -2.0484  2.5090
14161TIP3    H263899   0.960   3.293   4.690 -0.4144  1.1018  0.5067
14162TIP3   OH263900   2.586   1.858   4.253 -0.2435  0.4452 -0.0477
14162TIP3    H163901   2.619   1.921   4.317  0.5437  0.2014 -0.2135
14162TIP3    H263902   2.622   1.774   4.281 -1.8599 -0.0561  0.5804
14163TIP3   OH263903   2.877   3.092   3.297  0.2750  0.4669  0.3496
14163TIP3    H163904   2.846   3.095   3.206  0.2627  1.6125  0.3945
14163TIP3    H263905   2.967   3.122   3.293  1.1074 -1.9438  0.3646
14164TIP3   OH263906   4.554   1.700   2.360  0.1835  0.0619 -0.1599
14164TIP3    H163907   4.496   1.639   2.407 -1.5746  0.7137 -1.4077
14164TIP3    H263908   4.594   1.646   2.292  0.8744 -0.3455  0.5665
14165TIP3   OH263909   6.347   3.452  15.481 -0.0732  0.0522  0.4010
14165TIP3    H163910   6.428   3.493  15.511  1.4408 -3.0336  0.6329
14165TIP3    H263911   6.322   3.392  15.552 -1.1819 -0.8785 -0.7510
14166TIP3   OH263912   5.383   5.169   2.032  0.3617  0.0497  0.4150
14166TIP3    H163913   5.407   5.176   2.124  0.7230  0.7438  0.2754
14166TIP3    H263914   5.313   5.234   2.020  1.2674  0.9669 -0.0979
14167TIP3   OH263915   0.621   5.828   1.564  0.0661  0.1922  0.1529
14167TIP3    H163916   0.639   5.854   1.655 -0.9775 -0.1830  0.4815
14167TIP3    H263917   0.545   5.881   1.539  1.0511  1.1249 -0.8962
14168TIP3   OH263918   1.513   2.597   1.252  0.3695  0.4027  0.1404
14168TIP3    H163919   1.538   2.684   1.283  0.6065  0.4352 -0.1352
14168TIP3    H263920   1.587   2.568   1.199  0.6636 -0.3360  0.9387
14169TIP3   OH263921   5.292   6.304  15.897  0.4791  0.3590  0.1020
14169TIP3    H163922   5.362   6.255  15.941  0.0920 -1.0819 -0.8209
14169TIP3    H263923   5.337   6.353  15.828  0.7297  0.3568  0.2641
14170TIP3   OH263924   0.686   0.319   0.008  0.7345 -0.2846 -0.6649
14170TIP3    H163925   0.716   0.305   0.098 -1.1110 -1.4427 -0.2038
14170TIP3    H263926   0.636   0.241  -0.013 -0.4382  0.8045 -2.0320
14171TIP3   OH263927   3.992   6.512   3.852  0.4099  0.1601 -0.1689
14171TIP3    H163928   3.981   6.429   3.898 -2.0797  0.2768 -0.5140
14171TIP3    H263929   3.916   6.519   3.795  1.4956  1.8464 -1.4825
14172TIP3   OH263930   0.031   1.943  13.615  0.3245 -0.2591  0.2140
14172TIP3    H163931   0.078   1.882  13.672  0.2574  0.2699  0.8494
14172TIP3    H263932   0.066   2.029  13.639  0.3598 -0.0372 -0.6108
14173TIP3   OH263933   0.608   4.399   6.407 -0.6418  0.3850  0.0812
14173TIP3    H163934   0.586   4.489   6.384 -1.9221  0.3735  1.2305
14173TIP3    H263935   0.688   4.406   6.459  0.2836  0.6948 -1.3624
14174TIP3   OH263936   6.491   3.491   5.976 -0.3472 -0.4607  0.2832
14174TIP3    H163937   6.452   3.573   6.004 -1.4891 -0.5844 -0.9038
14174TIP3    H263938   6.584   3.501   5.995 -0.4489  1.1659 -0.0089
14175TIP3   OH263939   6.564   0.489   3.936  0.6139  0.4326 -0.2814
14175TIP3    H163940   6.610   0.520   3.858  1.5518 -0.9729 -0.3016
14175TIP3    H263941   6.607   0.407   3.959 -1.9536 -0.9995 -0.3638
14176TIP3   OH263942   5.445   4.313   4.257  0.5032  0.1187  0.3418
14176TIP3    H163943   5.350   4.301   4.254  0.6091 -0.8625  0.5654
14176TIP3    H263944   5.470   4.337   4.168  0.1035 -0.1008  0.1737
14177TIP3   OH263945   2.349   0.844  16.644  0.1432 -0.5869 -0.1953
14177TIP3    H163946   2.412   0.773  16.650  0.5477 -0.3477 -1.3998
14177TIP3    H263947   2.375   0.892  16.565 -1.4995 -0.4452 -0.6733
14178TIP3   OH263948   4.868   6.544   2.700  0.3368  0.0566 -0.1795
14178TIP3    H163949   4.841   6.577   2.614  0.9284  1.4854  0.1829
14178TIP3    H263950   4.916   6.616   2.740  0.6783 -0.8511  1.0753
14179TIP3   OH263951   5.557   4.104   2.819 -0.0985 -0.2039 -0.1969
14179TIP3    H163952   5.583   4.015   2.795  0.7566  0.0114 -0.1132
14179TIP3    H263953   5.624   4.160   2.778 -1.1396  0.4635 -1.0211
14180TIP3   OH263954   1.934   0.014  13.694  0.8993 -0.7837  0.0282
14180TIP3    H163955   1.892   0.099  13.706  1.0926 -0.9397  1.9314
14180TIP3    H263956   1.945   0.006  13.599 -1.7902  0.0232 -0.3961
14181TIP3   OH263957   0.352   1.901   3.018 -1.1781 -0.0538 -0.0491
14181TIP3    H163958   0.263   1.900   2.982 -1.4288 -0.0638  0.5668
14181TIP3    H263959   0.353   1.977   3.077 -0.8799 -0.2544  0.2053
14182TIP3   OH263960   4.869   0.112  11.165  0.2294 -0.1410 -0.0865
14182TIP3    H163961   4.952   0.108  11.213  0.4978 -1.5967 -0.6268
14182TIP3    H263962   4.887   0.169  11.091  0.2210  0.9943  0.7833
14183TIP3   OH263963   4.380   5.602  12.130  0.3539  0.0433  0.0937
14183TIP3    H163964   4.454   5.592  12.189  0.2744 -0.0527  0.1774
14183TIP3    H263965   4.396   5.685  12.086  1.7987 -1.1578 -1.7258
14184TIP3   OH263966   0.896   1.543  16.840  0.5782 -0.5770 -0.2632
14184TIP3    H163967   0.924   1.625  16.880 -1.1604 -0.3479  0.5083
14184TIP3    H263968   0.977   1.504  16.806  1.7318  0.3954  1.3141
14185TIP3   OH263969   3.515   6.306  14.966  0.2301 -0.0533 -0.1764
14185TIP3    H163970   3.495   6.295  15.059  2.2710 -2.8788 -0.0204
14185TIP3    H263971   3.594   6.359  14.964 -0.3834  0.8651 -0.3549
14186TIP3   OH263972   1.891   1.037  13.210 -0.1528 -0.2855 -0.0885
14186TIP3    H163973   1.985   1.040  13.195  0.0541  0.3871  1.2589
14186TIP3    H263974   1.863   1.128  13.203 -0.6939 -0.4730 -0.4071
14187TIP3   OH263975   2.680   5.109   5.867  0.0188  0.5236  0.4103
14187TIP3    H163976   2.732   5.029   5.876 -0.3846  0.2998  0.7999
14187TIP3    H263977   2.690   5.153   5.951 -0.6020  0.3639  0.5727
14188TIP3   OH263978   2.960   5.280  13.002 -0.7750 -0.0534 -0.3702
14188TIP3    H163979   3.034   5.321  12.958 -1.0407  0.2494 -0.5383
14188TIP3    H263980   2.925   5.219  12.938 -0.8659  0.0387 -0.4101
14189TIP3   OH263981   0.891   1.257   5.775 -0.0384 -0.6733  0.4698
14189TIP3    H163982   0.874   1.163   5.775  0.6654 -0.8087  0.3173
14189TIP3    H263983   0.808   1.298   5.799  0.1953 -1.4370  2.6557
14190TIP3   OH263984   6.769   5.184  13.490 -0.1284 -0.0248 -0.1648
14190TIP3    H163985   6.730   5.257  13.536  1.3682 -0.1434  1.3209
14190TIP3    H263986   6.819   5.136  13.556 -2.0950 -3.1503 -0.7998
14191TIP3   OH263987   3.708   0.422  11.337 -0.0968  0.4137 -0.7194
14191TIP3    H163988   3.619   0.390  11.347  0.0075 -0.1783 -1.6547
14191TIP3    H263989   3.758   0.376  11.404 -0.7382  1.7393  0.6960
14192TIP3   OH263990   6.482   6.783   2.134 -0.6060  0.4000  0.0735
14192TIP3    H163991   6.563   6.824   2.163 -0.9298  0.6086  0.6901
14192TIP3    H263992   6.446   6.741   2.212 -0.3823 -0.8971 -0.5058
14193TIP3   OH263993   4.178   0.277   4.862 -0.3039 -0.5780 -0.1436
14193TIP3    H163994   4.106   0.340   4.868 -1.4833 -1.6869 -1.9449
14193TIP3    H263995   4.185   0.258   4.768  1.4737 -1.4854  0.1484
14194TIP3   OH263996   5.716   0.352  13.632  0.0846 -0.0046  0.3746
14194TIP3    H163997   5.727   0.343  13.538  0.4339 -1.9316  0.5761
14194TIP3    H263998   5.622   0.354  13.646  0.0347  0.6451 -0.0366
14195TIP3   OH263999   4.291   3.351  16.195  0.6001  0.8361  0.5308
14195TIP3    H164000   4.329   3.433  16.228  0.4696  0.5191  1.4881
14195TIP3    H264001   4.221   3.379  16.136 -0.5781  1.4385  2.1675
14196TIP3   OH264002   3.718   6.268  15.214  0.4770  0.1460  0.0750
14196TIP3    H164003   3.811   6.290  15.207 -0.1957  2.3241 -2.8388
14196TIP3    H264004   3.708   6.190  15.161  0.4346  0.5894 -0.5714
14197TIP3   OH264005   4.268   0.457  11.763 -0.2590 -0.5578  1.0706
14197TIP3    H164006   4.296   0.372  11.728 -0.8596 -0.4528  0.3346
14197TIP3    H264007   4.331   0.475  11.834 -0.0108 -1.5197  1.1048
14198TIP3   OH264008   5.064   4.878  14.469  0.2671  0.3330  0.6358
14198TIP3    H164009   5.127   4.945  14.446  0.0526  0.0871 -0.6900
14198TIP3    H264010   4.979   4.916  14.446  0.1166 -0.2373  0.2454
14199TIP3   OH264011   6.442   2.292   0.665 -0.3055 -0.0383  0.0835
14199TIP3    H164012   6.483   2.268   0.748 -1.7357  1.2386  1.1865
14199TIP3    H264013   6.418   2.208   0.625  0.0671 -0.6513  1.1373
14200TIP3   OH264014   2.228   5.199   3.386  0.1953 -0.0665  0.2728
14200TIP3    H164015   2.311   5.245   3.373  1.2837 -2.1100 -0.3398
14200TIP3    H264016   2.211   5.204   3.480  2.1496 -1.4602  0.7384
14201TIP3   OH264017   5.063   3.272  14.288 -0.0623  0.3339  0.4382
14201TIP3    H164018   5.090   3.340  14.227 -1.0560  0.4029  0.0770
14201TIP3    H264019   5.130   3.274  14.357  1.3031 -0.0313 -0.8506
14202TIP3   OH264020   1.416   3.782   6.387 -0.7225  0.4133  0.5127
14202TIP3    H164021   1.416   3.696   6.429 -0.5338 -0.4137 -1.1397
14202TIP3    H264022   1.329   3.790   6.349 -0.3501  0.4455 -0.3372
14203TIP3   OH264023   6.372   3.621  12.035  0.6941 -0.7443  0.0878
14203TIP3    H164024   6.298   3.577  12.076  1.1999 -0.9218  0.8235
14203TIP3    H264025   6.386   3.699  12.088 -0.7842  0.8158 -1.7584
14204TIP3   OH264026   2.217   4.993  15.474 -0.2980  0.5342 -0.8080
14204TIP3    H164027   2.207   4.909  15.518 -3.3606  1.1208 -0.2826
14204TIP3    H264028   2.223   4.971  15.381  1.1466 -0.3845 -0.5085
14205TIP3   OH264029   6.083   1.030   6.549 -0.9907  0.3462  0.1625
14205TIP3    H164030   6.059   0.938   6.536 -0.3837  0.3528 -1.0920
14205TIP3    H264031   6.122   1.056   6.466  1.1410  1.0351  1.3284
14206TIP3   OH264032   1.187   3.455  11.417  0.0684  0.5950  0.2043
14206TIP3    H164033   1.253   3.399  11.376 -0.1715  0.0323  0.5878
14206TIP3    H264034   1.104   3.408  11.404 -0.0493  0.5576  1.0743
14207TIP3   OH264035   0.279   3.848   5.114  0.3057 -0.0232 -0.2036
14207TIP3    H164036   0.365   3.882   5.140  0.8455 -0.3742 -1.4581
14207TIP3    H264037   0.294   3.754   5.102  0.3080  0.2731 -2.6530
14208TIP3   OH264038   1.657   5.050   0.860  0.1293  0.2944 -0.6671
14208TIP3    H164039   1.615   5.107   0.796  0.2508  0.0284 -0.9880
14208TIP3    H264040   1.686   5.109   0.930  2.4913  0.9805 -2.1664
14209TIP3   OH264041   2.410   1.779   5.242 -0.7708  0.0760  0.0259
14209TIP3    H164042   2.384   1.741   5.158  1.5746  0.6636 -1.0042
14209TIP3    H264043   2.488   1.729   5.268 -1.7960 -0.4754  2.1536
14210TIP3   OH264044   2.694   0.864  13.903 -0.1383  0.4051  0.3344
14210TIP3    H164045   2.746   0.921  13.846  0.2423  0.7109  0.9874
14210TIP3    H264046   2.622   0.920  13.933 -1.0373 -0.1127 -0.8362
14211TIP3   OH264047   4.905   2.164  16.129  0.3668 -0.2792 -0.5392
14211TIP3    H164048   4.962   2.241  16.125  0.9221 -0.4487  2.4235
14211TIP3    H264049   4.851   2.178  16.207  1.1119 -3.2478  0.5977
14212TIP3   OH264050   2.865   1.905  14.128  0.1632 -0.2422 -0.4075
14212TIP3    H164051   2.858   1.810  14.140 -0.4971  0.0205  1.6095
14212TIP3    H264052   2.954   1.927  14.154 -0.1619 -0.1324  0.6507
14213TIP3   OH264053   1.381   0.662  13.784  0.3823  0.0009 -0.9178
14213TIP3    H164054   1.444   0.715  13.833 -0.7461  0.9090 -0.4108
14213TIP3    H264055   1.403   0.572  13.806 -1.5107  0.3815  3.2014
14214TIP3   OH264056   4.371   5.749  15.502  0.2559 -0.2243 -0.2194
14214TIP3    H164057   4.407   5.759  15.414  1.5295  1.8210  0.5221
14214TIP3    H264058   4.397   5.660  15.528  0.7822 -0.4510 -1.4790
14215TIP3   OH264059   2.080   0.779   0.717 -0.1006  0.4435  0.0839
14215TIP3    H164060   2.066   0.869   0.747  0.5855  0.0528  1.6524
14215TIP3    H264061   2.137   0.788   0.640 -1.2356  1.4261 -0.6491
14216TIP3   OH264062   5.946   6.071   0.568 -0.0016 -0.0626 -0.3464
14216TIP3    H164063   5.886   6.031   0.631 -0.4441  1.3872  0.1588
14216TIP3    H264064   5.994   6.136   0.619 -1.5106  2.2836 -1.8313
14217TIP3   OH264065   6.522   2.829   5.825 -0.4688  0.1601 -0.9728
14217TIP3    H164066   6.484   2.839   5.737 -0.3452  0.6792 -0.9703
14217TIP3    H264067   6.446   2.813   5.882 -0.7535  1.7806 -0.8772
14218TIP3   OH264068   5.909   5.304  13.160  0.1611  0.8303 -0.2076
14218TIP3    H164069   5.999   5.334  13.156  0.0403  1.2745  0.3411
14218TIP3    H264070   5.862   5.360  13.099 -0.1169  1.9783  1.0193
14219TIP3   OH264071   6.509   1.263   0.023  0.1956 -0.1982  0.2705
14219TIP3    H164072   6.508   1.202  -0.051 -2.1578  1.6724 -1.3536
14219TIP3    H264073   6.540   1.346  -0.015  1.6667  0.1009  2.0445
14220TIP3   OH264074   1.881   0.172   3.990  0.1144 -0.3781  1.0608
14220TIP3    H164075   1.948   0.146   4.054  0.4602 -0.8449  0.5074
14220TIP3    H264076   1.930   0.198   3.912 -0.3215 -0.0762  0.8848
14221TIP3   OH264077   3.425   4.323  14.095  0.5291 -0.3052 -0.2561
14221TIP3    H164078   3.399   4.404  14.051 -0.5770 -0.4629  0.0699
14221TIP3    H264079   3.416   4.256  14.027  0.6954 -0.2622 -0.3198
14222TIP3   OH264080   2.722   3.946   5.441  0.3772 -0.0507  0.1951
14222TIP3    H164081   2.636   3.914   5.417  0.4685  0.3510 -0.6954
14222TIP3    H264082   2.712   3.979   5.531 -0.3875 -0.0074  0.0911
14223TIP3   OH264083   6.763   5.999   1.773 -0.3241  0.3957 -0.4741
14223TIP3    H164084   6.724   6.084   1.755  0.1393  0.6335 -0.3731
14223TIP3    H264085   6.742   5.946   1.696 -2.5424 -0.0982  0.4348
14224TIP3   OH264086   3.298   0.046  15.208 -0.3193 -0.0497 -0.3547
14224TIP3    H164087   3.319   0.125  15.157 -1.2376 -0.1044 -0.8236
14224TIP3    H264088   3.374   0.034  15.266 -0.1089  1.0887 -0.3862
14225TIP3   OH264089   5.711   0.383  15.334 -0.1914 -0.4213 -0.3528
14225TIP3    H164090   5.787   0.331  15.308 -0.1732 -0.3903 -0.3598
14225TIP3    H264091   5.687   0.431  15.255  0.5878  0.5800  0.0188
14226TIP3   OH264092   4.361   3.963  13.369  0.6074 -0.0373 -0.2510
14226TIP3    H164093   4.315   4.002  13.295  0.5904  0.7294  0.1567
14226TIP3    H264094   4.325   4.009  13.446  1.6507  0.1850  0.1127
14227TIP3   OH264095   3.723   0.743   3.089 -0.0812  0.1663  0.5836
14227TIP3    H164096   3.806   0.748   3.042 -0.2702 -1.2747  0.0705
14227TIP3    H264097   3.725   0.817   3.150  0.2787  1.9605 -1.5314
14228TIP3   OH264098   2.789   1.364  16.655 -0.6197  0.1883  0.4248
14228TIP3    H164099   2.852   1.431  16.682 -0.4396 -0.0407  0.5818
14228TIP3    H264100   2.809   1.349  16.562  0.5227 -0.9034  0.8235
14229TIP3   OH264101   1.088   3.141   4.050  0.2672  0.0888  0.4131
14229TIP3    H164102   1.125   3.055   4.069 -0.9493 -0.3273  0.9541
14229TIP3    H264103   1.100   3.190   4.132 -1.6096 -0.4970  1.0536
14230TIP3   OH264104   4.659   3.280   2.486 -0.1683  0.3575  0.3612
14230TIP3    H164105   4.708   3.273   2.568 -0.7678 -0.3001  0.6598
14230TIP3    H264106   4.654   3.190   2.453 -1.3679  0.3847  0.4468
14231TIP3   OH264107   4.912   5.206   5.689  0.3092 -0.1338  0.3807
14231TIP3    H164108   4.923   5.112   5.674 -1.3441 -0.1772 -0.6588
14231TIP3    H264109   4.836   5.213   5.746  0.9563  0.5458  1.1747
14232TIP3   OH264110   5.896   4.501   0.726  0.0066  0.1438 -0.0616
14232TIP3    H164111   5.841   4.541   0.794  0.7382 -0.8029  1.1232
14232TIP3    H264112   5.964   4.455   0.775  1.2939  0.5029 -1.4864
14233TIP3   OH264113   3.947   2.995  13.056  0.2309  0.3209  0.0539
14233TIP3    H164114   3.971   2.977  13.147 -2.2694 -1.4099  0.4322
14233TIP3    H264115   3.934   2.908  13.017 -1.1613  1.0969 -1.2722
14234TIP3   OH264116   0.388   6.759  11.136 -0.3327 -0.3078 -0.2994
14234TIP3    H164117   0.361   6.702  11.065  1.6270 -1.0324 -0.5079
14234TIP3    H264118   0.383   6.848  11.100 -3.6495 -0.2751  0.1117
14235TIP3   OH264119   0.563   2.485  16.387 -0.0370 -0.1187  0.2160
14235TIP3    H164120   0.510   2.406  16.383  0.9211 -0.7407 -0.4403
14235TIP3    H264121   0.585   2.504  16.295 -0.4876  1.0573  0.3383
14236TIP3   OH264122   2.603   0.554   5.575 -0.0003 -0.4906 -0.4374
14236TIP3    H164123   2.523   0.531   5.527  0.3581 -0.8109 -0.8879
14236TIP3    H264124   2.670   0.495   5.540  0.3834 -0.3778  0.0994
14237TIP3   OH264125   6.139   4.408  16.147  0.4456  0.7423  0.4914
14237TIP3    H164126   6.086   4.329  16.144  1.3973  0.0693  1.1276
14237TIP3    H264127   6.201   4.399  16.075  1.8460 -0.0259  1.7806
14238TIP3   OH264128   1.923   6.481  14.704  0.1151  0.6276 -0.3116
14238TIP3    H164129   1.979   6.479  14.782 -0.5589 -2.7548  0.1452
14238TIP3    H264130   1.849   6.536  14.729 -0.1363 -0.4943  1.4607
14239TIP3   OH264131   3.184   1.260  12.155 -0.4241 -0.4683  0.2764
14239TIP3    H164132   3.257   1.202  12.175 -0.0862 -0.2701 -0.3888
14239TIP3    H264133   3.106   1.211  12.180 -0.0898 -0.8551  0.5563
14240TIP3   OH264134   4.145   0.533  10.133  0.7246 -0.7228  0.1495
14240TIP3    H164135   4.185   0.592  10.198  0.0652 -0.3920  0.2574
14240TIP3    H264136   4.217   0.510  10.075  0.3399  2.8357 -1.8847
14241TIP3   OH264137   3.413   5.037  13.447 -0.2634 -0.2009  0.0722
14241TIP3    H164138   3.430   4.989  13.366 -1.0020 -0.2541 -0.0624
14241TIP3    H264139   3.493   5.028  13.498 -0.6762 -2.3333  0.4018
14242TIP3   OH264140   3.802   5.316   0.303 -0.4079 -0.5589 -0.7580
14242TIP3    H164141   3.855   5.396   0.307 -0.7836 -0.2520 -1.7330
14242TIP3    H264142   3.833   5.262   0.376 -0.6570  0.7802  0.3410
14243TIP3   OH264143   4.913   5.554   1.764 -0.6303 -0.2232 -0.4862
14243TIP3    H164144   4.912   5.460   1.778 -1.1467 -0.4393 -1.8867
14243TIP3    H264145   4.971   5.588   1.832 -2.5944 -1.2451  1.7763
14244TIP3   OH264146   3.217   0.459  11.275 -0.3206 -0.4416  0.3308
14244TIP3    H164147   3.309   0.437  11.289 -0.9685 -1.7968  2.7927
14244TIP3    H264148   3.204   0.539  11.324 -0.2656  0.2280 -0.7329
14245TIP3   OH264149   6.284   1.240  16.209 -0.8983 -0.0277 -0.3716
14245TIP3    H164150   6.207   1.229  16.266  0.1401 -2.2366  0.7016
14245TIP3    H264151   6.262   1.191  16.130  0.0586 -2.1863  0.6536
14246TIP3   OH264152   6.020   5.575   4.985 -0.0848  0.5440  0.1344
14246TIP3    H164153   6.013   5.518   4.909 -0.1113 -0.4547  0.8790
14246TIP3    H264154   6.088   5.535   5.040 -1.3538  0.2145  1.5134
14247TIP3   OH264155   6.752   2.647  15.228  0.7913 -0.0788  0.1195
14247TIP3    H164156   6.841   2.613  15.222  0.9287  0.4560 -0.9692
14247TIP3    H264157   6.703   2.597  15.162 -0.1443 -1.6728  1.9880
14248TIP3   OH264158   6.625   2.574   4.880  0.2114  0.1047  0.2433
14248TIP3    H164159   6.569   2.497   4.877 -0.0181  0.2719  0.1401
14248TIP3    H264160   6.630   2.604   4.789 -1.4977  1.4729  0.5767
14249TIP3   OH264161   0.792   5.897   3.814 -0.7579 -0.1609 -0.4011
14249TIP3    H164162   0.831   5.852   3.890 -2.7327 -1.7689 -0.3068
14249TIP3    H264163   0.699   5.899   3.833 -1.0300  1.3225 -1.8408
14250TIP3   OH264164   1.216   3.052   2.486 -0.3477  0.5698  0.0079
14250TIP3    H164165   1.218   3.038   2.580  2.7763  3.3420  0.4377
14250TIP3    H264166   1.164   3.131   2.474  0.1526  0.8240 -0.5023
14251TIP3   OH264167   6.605   0.085   5.631  0.0124  0.1835  1.0534
14251TIP3    H164168   6.531   0.128   5.674 -0.1223  1.1181 -0.0749
14251TIP3    H264169   6.658   0.050   5.703 -1.1185  0.1868  1.8965
14252TIP3   OH264170   1.638   1.659   2.531 -0.2120  0.5666  0.4901
14252TIP3    H164171   1.725   1.675   2.567  0.3869  0.5297 -0.9011
14252TIP3    H264172   1.614   1.742   2.490  0.4508 -0.2967 -1.7143
14253TIP3   OH264173   2.517   2.811   1.587  0.3859 -0.3818  0.0483
14253TIP3    H164174   2.479   2.877   1.646 -1.6608 -1.0476 -0.4785
14253TIP3    H264175   2.515   2.853   1.501 -0.8104 -1.0499 -0.2682
14254TIP3   OH264176   3.370   2.316   2.658 -0.5720  0.7747  0.4424
14254TIP3    H164177   3.459   2.345   2.638 -1.3270  1.5743 -1.8891
14254TIP3    H264178   3.381   2.228   2.695  1.1112  0.2716 -1.1880
14255TIP3   OH264179   2.971   0.458   3.733  0.0032 -0.1267  0.1594
14255TIP3    H164180   2.957   0.488   3.823 -0.5737  0.2405 -0.0519
14255TIP3    H264181   2.883   0.447   3.697  0.1842  2.9824 -1.4212
14256TIP3   OH264182   6.089   6.069  12.623 -0.2795  0.2294 -0.6780
14256TIP3    H164183   6.061   5.981  12.600 -0.9962 -0.2554  1.8432
14256TIP3    H264184   6.172   6.056  12.670 -0.6056  0.8374  0.0896
14257TIP3   OH264185   6.520   2.479  14.462  0.6977 -0.1281 -0.2490
14257TIP3    H164186   6.505   2.557  14.409  0.2109 -1.0504 -1.5222
14257TIP3    H264187   6.532   2.409  14.397  0.7900 -1.1565  0.8619
14258TIP3   OH264188   4.469   5.475  15.085 -0.0744 -0.0281 -0.8128
14258TIP3    H164189   4.470   5.437  14.997 -1.1511 -0.8537 -0.4872
14258TIP3    H264190   4.471   5.400  15.144 -2.3362  0.3770 -0.1563
14259TIP3   OH264191   1.397   6.131   0.313 -0.0674 -0.1126  0.5118
14259TIP3    H164192   1.471   6.132   0.251 -0.5934 -0.1476 -0.1161
14259TIP3    H264193   1.372   6.039   0.319 -0.5155 -0.0093  0.1898
14260TIP3   OH264194   0.485   0.733  14.353  0.0107 -0.7434 -0.2709
14260TIP3    H164195   0.544   0.691  14.291  0.5036  0.7380 -0.8242
14260TIP3    H264196   0.478   0.823  14.322  0.5876  0.1237  2.0568
14261TIP3   OH264197   0.085   0.721   5.366  0.6926  0.6384 -0.1240
14261TIP3    H164198   0.079   0.725   5.461 -0.9124 -1.3353 -0.1247
14261TIP3    H264199   0.135   0.641   5.348 -0.3683  0.1580 -0.9708
14262TIP3   OH264200   2.568   4.224   5.059 -0.4017  0.2445 -0.1112
14262TIP3    H164201   2.653   4.178   5.064 -1.3834 -1.4730  2.0965
14262TIP3    H264202   2.559   4.265   5.145 -1.3256  1.3103 -0.7140
14263TIP3   OH264203   4.918   4.384  15.658  0.0562  0.0220  0.0636
14263TIP3    H164204   4.995   4.330  15.675  0.0160  0.5644  2.0799
14263TIP3    H264205   4.917   4.448  15.730 -3.0638 -0.8762  0.8832
14264TIP3   OH264206   6.604   6.299   1.172  0.2459  0.0130  0.3403
14264TIP3    H164207   6.639   6.298   1.083 -1.1509  0.8833 -0.2236
14264TIP3    H264208   6.550   6.378   1.177 -2.5636 -1.8607  0.8164
14265TIP3   OH264209   5.099   5.754   3.127 -0.0531 -0.3277  0.1774
14265TIP3    H164210   5.152   5.722   3.200  1.2620  1.4215  0.0073
14265TIP3    H264211   5.079   5.845   3.149 -0.4559 -0.0676 -1.1756
14266TIP3   OH264212   4.835   6.448   5.650 -0.5255 -0.4560 -0.0652
14266TIP3    H164213   4.797   6.534   5.634 -0.8495 -0.5619  0.1064
14266TIP3    H264214   4.768   6.386   5.618 -1.1694 -0.6649  1.6413
14267TIP3   OH264215   1.327   6.094  12.721  0.1433 -0.6108 -0.0888
14267TIP3    H164216   1.310   6.031  12.650  1.8161  0.3520 -1.3770
14267TIP3    H264217   1.241   6.110  12.759 -0.8555 -0.9232 -2.1227
14268TIP3   OH264218   1.780   4.298  14.440 -0.1650 -0.1929 -0.2170
14268TIP3    H164219   1.721   4.278  14.512  0.3858  1.0028  0.5914
14268TIP3    H264220   1.858   4.244  14.456 -0.2745 -0.3500 -0.2242
14269TIP3   OH264221   5.028   2.666  15.702 -0.0195  0.3575  0.6258
14269TIP3    H164222   5.090   2.595  15.719  0.8774  0.8742 -0.3695
14269TIP3    H264223   5.033   2.721  15.780  0.9653  0.5033  0.4765
14270TIP3   OH264224   2.191   6.356   3.878  0.0786  0.7524 -0.0792
14270TIP3    H164225   2.174   6.285   3.939 -1.1490  0.4225 -0.7858
14270TIP3    H264226   2.170   6.320   3.792  3.2085  0.7449 -0.8946
14271TIP3   OH264227   6.017   3.197   4.406 -0.0255  0.4777 -0.3080
14271TIP3    H164228   5.956   3.184   4.478  1.1151 -1.1588  0.3841
14271TIP3    H264229   6.019   3.113   4.360  1.2429  0.6910 -0.6743
14272TIP3   OH264230   3.502   0.225   3.156 -0.6795  0.2599  0.1853
14272TIP3    H164231   3.471   0.291   3.219 -1.4288 -0.4811  0.6129
14272TIP3    H264232   3.487   0.264   3.071 -1.4278  0.5139  0.4315
14273TIP3   OH264233   6.292   2.075   0.231 -0.3105 -0.0112  0.5793
14273TIP3    H164234   6.255   2.023   0.160  3.0018 -4.1829  1.6586
14273TIP3    H264235   6.324   2.154   0.190  0.6213 -1.8751 -2.4051
14274TIP3   OH264236   1.777   3.267  13.828  0.2535 -0.1900 -0.1936
14274TIP3    H164237   1.702   3.288  13.773  0.8132  2.1251 -0.1451
14274TIP3    H264238   1.743   3.207  13.894 -1.4093  0.3699 -0.5139
14275TIP3   OH264239   0.392   5.046   0.729 -0.8108  0.0056 -0.6753
14275TIP3    H164240   0.307   5.084   0.749 -0.3672 -0.7507  2.9915
14275TIP3    H264241   0.378   4.951   0.735  1.1218 -0.1006  4.2692
14276TIP3   OH264242   1.411   5.903  12.485  0.6065  0.8065  0.3125
14276TIP3    H164243   1.436   5.896  12.393  1.3308 -0.3819  0.5846
14276TIP3    H264244   1.339   5.841  12.495  0.7922  0.6419  0.6374
14277TIP3   OH264245   3.520   2.966  15.824 -0.2027  0.3178 -0.0820
14277TIP3    H164246   3.460   2.941  15.753 -1.5441  2.6128  0.2071
14277TIP3    H264247   3.566   3.043  15.789  2.1790 -1.0681 -0.0719
14278TIP3   OH264248   2.885   1.632  14.072  0.4165 -0.0448  0.3207
14278TIP3    H164249   2.954   1.627  14.138 -0.3528 -2.1495  1.0160
14278TIP3    H264250   2.931   1.624  13.989  1.2536  1.1108  0.6705
14279TIP3   OH264251   4.622   3.978  16.608  0.2377  0.3225 -0.3630
14279TIP3    H164252   4.565   3.955  16.681  1.5579  0.9283  0.8733
14279TIP3    H264253   4.711   3.973  16.644  0.8070  2.5710 -1.3748
14280TIP3   OH264254   2.858   6.456  11.330 -0.2457  0.3120 -0.1452
14280TIP3    H164255   2.949   6.435  11.307 -0.8084  0.8845 -3.1002
14280TIP3    H264256   2.837   6.396  11.402  2.8570  1.0685  1.4842
14281TIP3   OH264257   4.417   0.315   1.470 -0.4649  0.3412  0.3641
14281TIP3    H164258   4.445   0.342   1.383  1.0752 -2.4566 -0.0373
14281TIP3    H264259   4.334   0.362   1.484 -0.5248  1.1345 -2.4061
14282TIP3   OH264260   2.324   6.653  17.185  0.7469  0.1159  0.4290
14282TIP3    H164261   2.250   6.711  17.202  0.6701  0.1148  0.0956
14282TIP3    H264262   2.286   6.577  17.140  0.5943 -0.9335  2.2644
14283TIP3   OH264263   2.498   1.216   2.334 -0.5062 -0.5420  0.2296
14283TIP3    H164264   2.419   1.204   2.386 -1.5645 -0.3159 -1.2976
14283TIP3    H264265   2.556   1.268   2.390 -2.5788  1.7888  0.2697
14284TIP3   OH264266   2.974   2.642  12.136 -0.2916 -0.4245  0.4457
14284TIP3    H164267   3.048   2.675  12.087  1.1489 -0.0015  2.8316
14284TIP3    H264268   2.960   2.553  12.103  1.0598 -0.3848 -0.2307
14285TIP3   OH264269   0.673   2.239  12.491  0.3385  0.1247 -0.4971
14285TIP3    H164270   0.691   2.224  12.584  0.6909 -2.4791 -0.9440
14285TIP3    H264271   0.596   2.295  12.490 -0.2521 -0.6219  1.3632
14286TIP3   OH264272   2.771   6.649   2.278  0.0710  0.1629  0.2987
14286TIP3    H164273   2.680   6.632   2.298 -0.5628 -0.5573 -2.9306
14286TIP3    H264274   2.774   6.742   2.255 -0.0109 -0.0071 -0.4070
14287TIP3   OH264275   6.504   1.608  13.376 -0.3320  0.1968 -0.5049
14287TIP3    H164276   6.429   1.665  13.358 -1.5122 -1.8055 -2.0890
14287TIP3    H264277   6.466   1.522  13.392  1.5490 -0.5516  0.1040
14288TIP3   OH264278   4.169   0.926  16.760 -0.7827  0.3690 -0.2515
14288TIP3    H164279   4.091   0.886  16.721  0.3519 -1.7839 -0.4101
14288TIP3    H264280   4.205   0.981  16.690 -0.6318 -0.8393 -1.1543
14289TIP3   OH264281   3.879   3.519   2.534  0.4262  0.5249 -0.2918
14289TIP3    H164282   3.913   3.561   2.613  0.5919  2.7444 -1.4998
14289TIP3    H264283   3.861   3.429   2.561  0.8750  1.1185  2.1549
14290TIP3   OH264284   0.237   3.357  13.017  0.0716  0.2884  0.2595
14290TIP3    H164285   0.192   3.298  13.079  0.4823 -1.1221 -0.7756
14290TIP3    H264286   0.324   3.319  13.007  0.5109  1.3691 -0.0441
14291TIP3   OH264287   4.563   3.200   3.252  0.4700  0.3765  0.0632
14291TIP3    H164288   4.631   3.228   3.313 -0.2900  0.8237  0.7073
14291TIP3    H264289   4.525   3.122   3.292 -0.5658  1.1213  0.5682
14292TIP3   OH264290   6.673   5.070   5.599 -0.2938 -0.4252  0.1107
14292TIP3    H164291   6.742   5.089   5.663 -1.3557  0.4950  1.0224
14292TIP3    H264292   6.627   5.154   5.589 -0.0246 -0.5098 -2.0295
14293TIP3   OH264293   0.596   5.405  16.857  0.5052  0.5002 -0.2545
14293TIP3    H164294   0.660   5.397  16.928  0.3848 -0.2819 -0.2262
14293TIP3    H264295   0.640   5.368  16.780 -0.4261 -1.4904  0.1093
14294TIP3   OH264296   5.146   5.009  14.786  0.5047  0.1692 -0.1748
14294TIP3    H164297   5.070   5.067  14.792 -1.3203 -2.0302 -1.2451
14294TIP3    H264298   5.181   5.025  14.699  1.5740  1.5075  0.4827
14295TIP3   OH264299   1.308   0.037  14.230  0.5117  0.1221  0.3493
14295TIP3    H164300   1.232   0.016  14.176  0.3231 -0.4891  0.8331
14295TIP3    H264301   1.274   0.096  14.297  0.7540  0.9122 -0.2241
14296TIP3   OH264302   5.253   6.369  13.503  0.0641  0.1965  0.1453
14296TIP3    H164303   5.263   6.294  13.444 -0.9714  0.5033 -0.4397
14296TIP3    H264304   5.170   6.352  13.549 -1.0365  1.8012 -1.2064
14297TIP3   OH264305   0.689   4.413  12.691  0.2273 -0.2923 -0.8957
14297TIP3    H164306   0.694   4.402  12.596  0.3774 -1.0038 -0.8088
14297TIP3    H264307   0.780   4.425  12.719  0.2767 -1.0569 -0.7285
14298TIP3   OH264308   1.080   2.135  14.729 -0.2383 -0.3705 -0.1679
14298TIP3    H164309   1.126   2.096  14.655 -0.6849 -1.0422 -0.1011
14298TIP3    H264310   0.989   2.105  14.718 -0.5695  0.5782 -0.0651
14299TIP3   OH264311   5.459   5.416  12.744 -0.1148  0.0750  0.7332
14299TIP3    H164312   5.501   5.417  12.658 -0.3275 -1.1192  0.6125
14299TIP3    H264313   5.394   5.486  12.739  1.1374  1.2636  0.5760
14300TIP3   OH264314   5.082   2.660   3.104  0.3893 -0.1189  0.1182
14300TIP3    H164315   5.062   2.566   3.100  0.0063 -0.0186 -0.3559
14300TIP3    H264316   4.998   2.703   3.089  0.6346  0.3005 -0.0516
14301TIP3   OH264317   2.846   4.818  11.366  0.3479 -0.2005  0.1122
14301TIP3    H164318   2.769   4.853  11.322  0.1516  0.2500  0.7938
14301TIP3    H264319   2.917   4.878  11.342 -0.3461  1.7633  2.6955
14302TIP3   OH264320   4.315   4.272  16.582 -0.2097 -0.4566 -0.0398
14302TIP3    H164321   4.329   4.233  16.669  1.8220  3.2756  1.4122
14302TIP3    H264322   4.229   4.314  16.588  0.5764  1.0785  0.7043
14303TIP3   OH264323   6.329   3.549   5.414 -0.8590 -0.1861 -0.3190
14303TIP3    H164324   6.377   3.606   5.354 -0.5489 -1.0425 -0.8860
14303TIP3    H264325   6.320   3.602   5.494  0.2637  0.3032 -0.5004
14304TIP3   OH264326   5.016   0.451   2.026 -0.4252 -0.1858  0.3688
14304TIP3    H164327   4.932   0.440   1.982 -0.8367 -0.3827  1.1747
14304TIP3    H264328   5.013   0.540   2.061 -0.3341 -0.2185  0.4601
14305TIP3   OH264329   0.770   3.661   5.477 -0.5135  0.3622  0.1222
14305TIP3    H164330   0.756   3.568   5.495 -1.5449  0.8526  1.9642
14305TIP3    H264331   0.821   3.663   5.396  0.6782 -1.8412  0.7981
14306TIP3   OH264332   1.105   0.702  13.887 -0.4626  0.6790  0.1463
14306TIP3    H164333   1.196   0.698  13.858 -0.0912 -0.3321  1.4216
14306TIP3    H264334   1.095   0.791  13.921  0.5805  0.1967  1.7231
14307TIP3   OH264335   1.815   4.379   0.808  0.3728  0.0333  0.5278
14307TIP3    H164336   1.834   4.432   0.731  0.8554 -0.6619  0.1686
14307TIP3    H264337   1.892   4.323   0.819 -0.0828 -0.5221  0.9691
14308TIP3   OH264338   5.371   1.434  12.758  0.2065 -0.4755  0.7338
14308TIP3    H164339   5.303   1.495  12.728  1.8811  0.6986 -0.7459
14308TIP3    H264340   5.406   1.474  12.837 -0.5412 -0.8935  1.2850
14309TIP3   OH264341   5.507   0.943   4.216  0.0229  0.3423  0.0783
14309TIP3    H164342   5.543   1.032   4.221 -2.6220  1.5600 -1.2666
14309TIP3    H264343   5.412   0.957   4.209 -0.5226 -2.6423  0.9456
14310TIP3   OH264344   4.202   4.969  13.471 -0.1882 -0.9550  0.1568
14310TIP3    H164345   4.212   4.880  13.504  1.2789 -1.8111 -2.4103
14310TIP3    H264346   4.108   4.979  13.457 -0.5390 -1.4855  1.9955
14311TIP3   OH264347   5.005   5.070  10.936 -0.2648  0.0217 -1.1080
14311TIP3    H164348   4.933   5.031  10.886 -3.7497  1.6831  2.3094
14311TIP3    H264349   4.999   5.164  10.919 -0.2455  0.3900  0.7521
14312TIP3   OH264350   3.635   6.481   5.643 -0.3157 -0.3541 -0.7682
14312TIP3    H164351   3.590   6.470   5.727  1.7292  0.7578  0.5065
14312TIP3    H264352   3.680   6.398   5.629  0.1016 -0.2059 -0.3031
14313TIP3   OH264353   1.038   1.691   2.557  0.1841 -0.2506  0.2338
14313TIP3    H164354   1.067   1.738   2.479  0.5553 -1.3627 -0.3235
14313TIP3    H264355   1.103   1.622   2.569 -0.2422 -0.5092  1.1295
14314TIP3   OH264356   2.404   1.205  11.446 -0.2193  0.1338 -0.3924
14314TIP3    H164357   2.496   1.227  11.461 -0.2730  0.6491 -0.8030
14314TIP3    H264358   2.369   1.184  11.533 -0.0174  1.1114 -0.0661
14315TIP3   OH264359   5.672   4.170  15.444 -0.1223  0.2326  0.4397
14315TIP3    H164360   5.740   4.145  15.506 -0.0143 -1.9218 -0.4930
14315TIP3    H264361   5.715   4.233  15.385  1.1000 -1.1585 -0.1850
14316TIP3   OH264362   2.130   4.292  13.670 -0.1818  0.3263  0.4575
14316TIP3    H164363   2.108   4.339  13.750 -0.9496 -0.3999  0.6778
14316TIP3    H264364   2.212   4.332  13.640 -0.3578  1.1937  1.1223
14317TIP3   OH264365   1.751   5.559   0.830  0.0039 -0.3584 -0.0633
14317TIP3    H164366   1.710   5.489   0.780  0.9559 -0.0149 -1.3348
14317TIP3    H264367   1.844   5.555   0.806  0.5586 -0.4477  1.9657
14318TIP3   OH264368   1.057   1.241   1.037 -0.0010  0.4452  0.1846
14318TIP3    H164369   1.070   1.334   1.053 -1.9987  0.7639  0.0458
14318TIP3    H264370   1.080   1.229   0.944  2.4584  0.3477  0.7761
14319TIP3   OH264371   0.437   1.697  11.241  1.0553  0.1024 -0.3760
14319TIP3    H164372   0.365   1.697  11.304  1.4211 -2.7204  0.1126
14319TIP3    H264373   0.397   1.727  11.159  0.1638  2.0482  0.7431
14320TIP3   OH264374   5.969   4.209  16.242  0.6842 -0.0714  0.1977
14320TIP3    H164375   5.984   4.127  16.288  0.2480 -0.8157 -0.9735
14320TIP3    H264376   5.892   4.193  16.188 -0.9908  1.9339  1.9265
14321TIP3   OH264377   2.678   2.778   3.799 -0.0878 -0.5047  0.3002
14321TIP3    H164378   2.603   2.725   3.827 -1.0175 -0.6850 -2.3726
14321TIP3    H264379   2.754   2.732   3.835 -0.9262 -3.3049 -1.3265
14322TIP3   OH264380   0.001   5.431   0.304  0.0239  0.0550 -0.0293
14322TIP3    H164381  -0.081   5.475   0.326 -0.3379 -1.2516  1.2953
14322TIP3    H264382   0.065   5.502   0.295 -0.6991  0.9070  1.4010
14323TIP3   OH264383   6.649   4.193  12.295 -0.4473 -0.7868  0.3010
14323TIP3    H164384   6.623   4.144  12.217  1.6257  0.6482 -1.3444
14323TIP3    H264385   6.588   4.266  12.299  0.0104 -0.3487 -0.5407
14324TIP3   OH264386   5.367   0.691  12.837 -0.3102  0.1699  0.3131
14324TIP3    H164387   5.328   0.646  12.912 -1.6928  0.7240 -0.0491
14324TIP3    H264388   5.314   0.663  12.763 -0.1338  1.0883 -0.1647
14325TIP3   OH264389   1.664   1.192   0.375  0.1716 -0.0629  0.1244
14325TIP3    H164390   1.723   1.180   0.300  1.4360  1.9065  0.7510
14325TIP3    H264391   1.616   1.273   0.355  0.3761  0.3660  1.3322
14326TIP3   OH264392   6.404   0.453  12.503  0.5619 -0.2838 -0.4571
14326TIP3    H164393   6.453   0.386  12.455 -0.7916 -1.4912 -0.1868
14326TIP3    H264394   6.349   0.494  12.436  0.5382 -0.2353 -0.4073
14327TIP3   OH264395   5.444   1.917   2.050 -0.4132  0.0917  0.9227
14327TIP3    H164396   5.499   1.986   2.013 -1.8225  0.9289  0.3434
14327TIP3    H264397   5.488   1.836   2.025 -0.0755  0.7137 -0.6126
14328TIP3   OH264398   3.371   2.777   2.704 -0.2053  0.3269  0.7717
14328TIP3    H164399   3.464   2.801   2.696  0.5627 -2.5594  0.3838
14328TIP3    H264400   3.324   2.853   2.669  1.9399  2.3340  2.0344
14329TIP3   OH264401   1.719   3.228   4.676 -0.1721 -0.0411 -0.3080
14329TIP3    H164402   1.777   3.158   4.707  1.3344  1.4881  0.4587
14329TIP3    H264403   1.636   3.213   4.722  0.4962 -0.6652  0.7121
14330TIP3   OH264404   0.805   4.380  16.886 -0.3940  0.0313 -0.0722
14330TIP3    H164405   0.786   4.395  16.978 -0.9906  0.0612 -0.1961
14330TIP3    H264406   0.879   4.320  16.886 -1.0777 -0.8315  0.4293
14331TIP3   OH264407   3.402   3.838   5.097 -0.1948 -0.0288  0.4248
14331TIP3    H164408   3.405   3.923   5.143 -1.7283 -0.2677  1.0057
14331TIP3    H264409   3.458   3.781   5.150 -0.1048  0.3204  0.7127
14332TIP3   OH264410   6.008   3.363   2.334 -0.5901  0.0991  0.1417
14332TIP3    H164411   5.989   3.457   2.332 -0.4079  0.1528  0.7282
14332TIP3    H264412   6.000   3.335   2.243 -1.3006  0.5511  0.0566
14333TIP3   OH264413   3.481   3.309  14.040  0.3750  0.0975 -0.0463
14333TIP3    H164414   3.521   3.319  13.953  2.0680  0.0546  0.7073
14333TIP3    H264415   3.493   3.395  14.081 -1.0680  0.3358 -0.1031
14334TIP3   OH264416   5.713   4.021   0.704 -0.1168 -0.4844  0.0882
14334TIP3    H164417   5.754   4.086   0.762 -0.7588  1.4920 -1.6098
14334TIP3    H264418   5.641   3.985   0.755 -0.2345  0.7162  0.7903
14335TIP3   OH264419   2.157   6.555  13.874  0.4757  0.1648  0.1128
14335TIP3    H164420   2.090   6.568  13.941  0.6457 -0.5013  0.4206
14335TIP3    H264421   2.225   6.504  13.918  1.4056  1.2412 -0.0659
14336TIP3   OH264422   0.418   4.890   1.262  0.5024 -0.0331  0.3093
14336TIP3    H164423   0.415   4.794   1.261 -1.2720 -0.0004  0.7242
14336TIP3    H264424   0.364   4.916   1.187 -0.0238  0.6400  0.9147
14337TIP3   OH264425   0.964   6.607   5.773 -0.5842  0.0312  0.6153
14337TIP3    H164426   1.031   6.561   5.723 -0.2707  0.5888  0.5059
14337TIP3    H264427   0.947   6.687   5.722  0.3877  1.0441  1.8258
14338TIP3   OH264428   6.727   1.113  15.733  0.0917  0.4027  0.0026
14338TIP3    H164429   6.799   1.120  15.796 -0.0025 -0.6449  0.2325
14338TIP3    H264430   6.764   1.063  15.660 -0.6805 -0.9804  0.5474
14339TIP3   OH264431   4.955   4.652   4.075  0.1951  0.1737  1.1544
14339TIP3    H164432   5.008   4.607   4.142 -1.5222 -1.2957  1.5595
14339TIP3    H264433   4.961   4.745   4.098  0.7121 -0.1964  2.5662
14340TIP3   OH264434   6.214   2.436  14.210  0.1684 -0.4104  0.2566
14340TIP3    H164435   6.186   2.353  14.249  0.0751 -0.1844  0.6753
14340TIP3    H264436   6.190   2.428  14.118 -3.3029  0.6402  0.9899
14341TIP3   OH264437   6.500   1.034   3.850 -0.2722  0.3934  0.4777
14341TIP3    H164438   6.573   1.096   3.854  0.2589 -0.1943 -0.1244
14341TIP3    H264439   6.534   0.955   3.892 -0.9712  0.5290  1.3012
14342TIP3   OH264440   3.566   6.605   5.100 -0.3888 -0.1150 -0.1416
14342TIP3    H164441   3.490   6.661   5.082 -3.5053 -3.5042  1.7492
14342TIP3    H264442   3.564   6.538   5.031  0.7483 -0.4240  0.1086
14343TIP3   OH264443   2.656   4.582   5.885  0.2080  0.0522 -0.3105
14343TIP3    H164444   2.606   4.619   5.957  0.8428  1.1374 -0.4132
14343TIP3    H264445   2.747   4.580   5.916  0.3831 -0.1220 -0.8153
14344TIP3   OH264446   6.193   4.424   4.202  0.1998  0.3581 -0.1500
14344TIP3    H164447   6.184   4.344   4.149  0.5637  0.6071 -0.5862
14344TIP3    H264448   6.178   4.495   4.140  1.0533  0.6645 -0.0037
14345TIP3   OH264449   0.724   2.467   4.295 -0.4396 -0.2615 -0.1078
14345TIP3    H164450   0.660   2.406   4.260 -0.5633  0.0313 -0.3983
14345TIP3    H264451   0.787   2.480   4.223  2.3851 -3.8702  1.5527
14346TIP3   OH264452   5.029   3.436   1.688 -0.0855 -0.6586  0.1013
14346TIP3    H164453   4.970   3.366   1.662  0.6118 -1.0646 -0.4155
14346TIP3    H264454   5.048   3.483   1.606 -1.3136  0.7373  0.5885
14347TIP3   OH264455   0.042   2.486   4.345  0.1938  0.1946  0.4812
14347TIP3    H164456   0.128   2.511   4.378 -0.4736  0.1386  2.3144
14347TIP3    H264457   0.015   2.413   4.401  0.7316 -2.5978 -2.6943
14348TIP3   OH264458   0.176   5.879   2.776 -0.4474  0.9819  0.1977
14348TIP3    H164459   0.233   5.943   2.819  0.3044 -1.4236  2.9254
14348TIP3    H264460   0.088   5.915   2.785 -0.1590  1.1235  2.7138
14349TIP3   OH264461   5.931   2.780  15.912  1.1142  0.0780  0.0112
14349TIP3    H164462   5.993   2.707  15.906  2.0041  0.9353 -1.3033
14349TIP3    H264463   5.985   2.858  15.908  0.0474  0.8380  0.1691
14350TIP3   OH264464   0.731   1.329   2.492  0.8107 -1.2579  0.3041
14350TIP3    H164465   0.751   1.418   2.523 -0.3637 -0.2498 -1.7105
14350TIP3    H264466   0.669   1.343   2.421  0.8513 -3.7085 -0.2256
14351TIP3   OH264467   1.822   5.860  16.491  0.2378 -0.0843 -0.2965
14351TIP3    H164468   1.762   5.821  16.427 -0.1599  0.5732 -0.3256
14351TIP3    H264469   1.903   5.874  16.442  0.5599 -1.3576 -0.1493
14352TIP3   OH264470   3.071   1.904   5.325 -0.8380 -0.4318 -0.6760
14352TIP3    H164471   2.993   1.849   5.330  0.0765 -1.9287 -2.0585
14352TIP3    H264472   3.143   1.842   5.311  0.3695  1.0398 -1.1512
14353TIP3   OH264473   1.337   3.823  14.505 -0.1069  0.1869 -0.0607
14353TIP3    H164474   1.420   3.867  14.524 -0.3020  0.6802 -0.3170
14353TIP3    H264475   1.273   3.871  14.558 -0.3680  0.4087 -0.5687
14354TIP3   OH264476   3.760   2.226  14.683 -0.0852 -0.2136  0.3533
14354TIP3    H164477   3.715   2.292  14.631 -1.9107  1.3254  3.7192
14354TIP3    H264478   3.714   2.144  14.663  1.2109 -0.2710 -2.6839
14355TIP3   OH264479   2.816   2.791  12.326  0.2988 -0.2606  0.1210
14355TIP3    H164480   2.786   2.868  12.374  1.6207 -0.7976  1.8316
14355TIP3    H264481   2.824   2.822  12.235  0.5916  1.5568  0.7390
14356TIP3   OH264482   6.786   4.177   1.445  0.1983  0.9096  0.2817
14356TIP3    H164483   6.833   4.190   1.528  0.5904  0.6950  0.0978
14356TIP3    H264484   6.755   4.264   1.421  0.0888  0.9766  0.6489
14357TIP3   OH264485   0.082   5.668  15.726  0.0536  0.1367  0.1065
14357TIP3    H164486   0.008   5.728  15.729  1.6201  2.1614 -0.5970
14357TIP3    H264487   0.049   5.591  15.681 -1.6626  0.9373 -0.0343
14358TIP3   OH264488   4.747   4.257   1.615 -0.2309 -0.2688  0.0634
14358TIP3    H164489   4.756   4.163   1.626 -2.2933 -0.9118 -2.9034
14358TIP3    H264490   4.652   4.271   1.605  0.0957  2.0124 -0.1801
14359TIP3   OH264491   1.100   1.607  14.770  0.7942 -0.1588  0.0103
14359TIP3    H164492   1.184   1.590  14.728  1.7961 -1.2533  2.3315
14359TIP3    H264493   1.074   1.522  14.807 -0.6280  0.4767  0.5167
14360TIP3   OH264494   5.436   2.321   4.685 -0.4104  0.3327  0.5527
14360TIP3    H164495   5.471   2.354   4.767  0.3326  1.9625 -0.3887
14360TIP3    H264496   5.395   2.238   4.708  0.5998  0.3118  2.3938
14361TIP3   OH264497   3.955   2.732   3.569  0.1971 -0.5159 -0.4825
14361TIP3    H164498   3.929   2.691   3.487 -1.8448  0.3940 -0.3312
14361TIP3    H264499   3.887   2.798   3.586 -0.4377 -1.8862  2.8157
14362TIP3   OH264500   6.158   2.407   3.135  0.1548 -0.6282 -0.3100
14362TIP3    H164501   6.248   2.382   3.156  0.2236 -0.8380 -0.8403
14362TIP3    H264502   6.141   2.366   3.050 -0.7600 -1.3987  0.2235
14363TIP3   OH264503   3.235   0.595  12.060  0.1728 -0.2591  0.6273
14363TIP3    H164504   3.189   0.580  12.143  0.5499  1.2230  1.1079
14363TIP3    H264505   3.181   0.551  11.995 -1.2623  0.3810  1.3629
14364TIP3   OH264506   4.599   0.687   1.160  0.3919  0.4983 -0.8257
14364TIP3    H164507   4.638   0.774   1.153  0.5486  0.4471 -0.5826
14364TIP3    H264508   4.620   0.658   1.248 -0.6010  0.6593 -0.5335
14365TIP3   OH264509   0.354   2.316   6.672 -0.0872  0.1226 -0.2658
14365TIP3    H164510   0.262   2.289   6.675  0.3827 -1.7495 -2.2885
14365TIP3    H264511   0.353   2.399   6.624 -0.6287 -0.2031 -0.8157
14366TIP3   OH264512   5.076   1.325  12.820  0.1312  0.1722 -0.6164
14366TIP3    H164513   5.118   1.331  12.906 -2.4550  0.3046  0.6845
14366TIP3    H264514   5.045   1.414  12.802  0.4356  0.0900 -1.6007
14367TIP3   OH264515   1.252   1.698  16.014  0.2081  0.7888 -0.3806
14367TIP3    H164516   1.283   1.785  15.990  0.3023  1.1374  1.0046
14367TIP3    H264517   1.173   1.714  16.065  1.9211  0.1980  2.5368
14368TIP3   OH264518   1.351   2.102   3.469  1.0415  0.1903  0.4409
14368TIP3    H164519   1.426   2.118   3.525  0.1287  0.5891  1.5629
14368TIP3    H264520   1.302   2.032   3.513  1.5551 -1.1676 -1.0785
14369TIP3   OH264521   0.457   6.456   4.425  0.3329  0.3028 -0.2672
14369TIP3    H164522   0.464   6.479   4.518 -1.5585 -1.6449  0.4098
14369TIP3    H264523   0.459   6.540   4.379  0.7080  1.3327  1.5718
14370TIP3   OH264524   5.611   2.390   4.321 -0.1662  0.1421  0.2260
14370TIP3    H164525   5.667   2.442   4.264  1.2101 -1.2952  0.2225
14370TIP3    H264526   5.641   2.300   4.308 -2.2047 -0.6135  0.5479
14371TIP3   OH264527   4.657   2.623  13.830 -0.0896  0.2598 -0.0390
14371TIP3    H164528   4.569   2.586  13.840  0.3624 -0.6119  0.7727
14371TIP3    H264529   4.711   2.549  13.801  0.4400  0.7157 -0.2325
14372TIP3   OH264530   6.633   0.435   5.893 -0.6685 -0.4036 -0.5762
14372TIP3    H164531   6.590   0.499   5.949  0.0883 -0.2760 -0.1307
14372TIP3    H264532   6.619   0.351   5.938  1.9187 -0.0200  1.0565
14373TIP3   OH264533   3.775   1.730  12.585  0.0864 -0.2336  0.5968
14373TIP3    H164534   3.756   1.776  12.504 -1.4473  0.2495  1.2061
14373TIP3    H264535   3.750   1.639  12.568 -0.3340 -0.1121  0.5455
14374TIP3   OH264536   6.348   4.180  12.824 -1.2106 -0.2845  0.3152
14374TIP3    H164537   6.365   4.111  12.888 -0.1867  0.0570  0.4164
14374TIP3    H264538   6.309   4.135  12.750 -1.5542 -0.8158  0.8137
14375TIP3   OH264539   5.643   5.201  14.001  0.6476 -0.3523  0.1015
14375TIP3    H164540   5.590   5.265  13.954  3.0214  1.8641  0.2901
14375TIP3    H264541   5.696   5.159  13.934 -0.9215 -2.1755 -0.0238
14376TIP3   OH264542   4.312   6.024  16.772 -0.3705  0.2834  0.1913
14376TIP3    H164543   4.260   5.960  16.723 -0.4694  1.2868 -1.0668
14376TIP3    H264544   4.266   6.034  16.855 -0.3083 -1.3187  0.4308
14377TIP3   OH264545   6.438   3.487   1.572 -0.4095 -0.0838  0.1506
14377TIP3    H164546   6.344   3.494   1.585 -0.3275  2.8286 -0.3342
14377TIP3    H264547   6.476   3.524   1.652  0.3003 -0.7121  0.1071
14378TIP3   OH264548   2.541   1.673   0.642  0.0581 -0.3203  0.5166
14378TIP3    H164549   2.484   1.744   0.614 -0.0421 -1.4435 -2.2630
14378TIP3    H264550   2.629   1.701   0.616  0.3480 -0.1688  1.6070
14379TIP3   OH264551   6.691   1.385  14.465  0.1546 -0.5558  0.0532
14379TIP3    H164552   6.707   1.477  14.441 -1.4272 -0.7945 -2.0750
14379TIP3    H264553   6.775   1.354  14.499  1.1728  1.2203 -0.7589
14380TIP3   OH264554   2.297   6.053   6.282  0.0579 -0.2957  0.0717
14380TIP3    H164555   2.268   6.008   6.361  1.1795  0.6402  1.0353
14380TIP3    H264556   2.229   6.034   6.217 -1.6620  0.1556  1.6836
14381TIP3   OH264557   5.961   3.693  13.781 -0.3914  0.7977 -0.2604
14381TIP3    H164558   5.972   3.634  13.855  1.4375  0.2637 -0.9195
14381TIP3    H264559   6.051   3.717  13.757 -0.9089  0.2608 -2.8604
14382TIP3   OH264560   4.550   5.105   5.557  0.0605  0.1047  0.1205
14382TIP3    H164561   4.616   5.038   5.577  1.2420  1.0414 -0.5942
14382TIP3    H264562   4.529   5.143   5.642  0.9668  0.2793  0.2710
14383TIP3   OH264563   0.436   5.810  17.232 -0.5445  0.3152  0.3634
14383TIP3    H164564   0.478   5.869  17.295 -1.7392 -0.4465  1.9150
14383TIP3    H264565   0.508   5.756  17.199  0.3293  1.6590 -0.0027
14384TIP3   OH264566   3.051   1.925   0.343 -0.0299 -0.1105 -0.1421
14384TIP3    H164567   3.024   1.981   0.269 -0.1966 -1.2555 -0.9629
14384TIP3    H264568   2.973   1.876   0.366  0.7594 -1.9325 -1.1772
14385TIP3   OH264569   2.251   1.412  14.009 -1.2760  0.1245  0.1209
14385TIP3    H164570   2.240   1.473  14.082 -1.1571 -0.3175  0.5071
14385TIP3    H264571   2.308   1.458  13.948 -0.2138 -0.0840  0.9557
14386TIP3   OH264572   2.962   2.362  11.501 -0.1315  0.5568  0.1184
14386TIP3    H164573   3.013   2.418  11.444 -1.1403  2.1593  0.7715
14386TIP3    H264574   3.019   2.344  11.576  0.7278 -0.5259 -0.7772
14387TIP3   OH264575   3.066   1.748  12.877  0.2823 -0.2764 -0.3075
14387TIP3    H164576   3.063   1.655  12.898  0.9851  0.0103  1.0643
14387TIP3    H264577   3.159   1.766  12.861  0.1892  0.2655 -0.2364
14388TIP3   OH264578   5.889   2.294   2.782  0.3725 -0.2328  0.1700
14388TIP3    H164579   5.878   2.388   2.771 -0.1109 -0.3446 -0.2903
14388TIP3    H264580   5.972   2.285   2.829 -1.4062  0.5928  3.6494
14389TIP3   OH264581   3.576   6.368  12.978 -0.2734 -0.3547  0.0955
14389TIP3    H164582   3.491   6.411  12.963  0.1224  0.0625 -0.9800
14389TIP3    H264583   3.631   6.436  13.016  0.7869  0.5542 -2.9091
14390TIP3   OH264584   0.208   0.839  12.555 -0.2785 -0.2228 -0.0218
14390TIP3    H164585   0.192   0.832  12.649  0.3316  0.4540  0.1367
14390TIP3    H264586   0.120   0.846  12.517 -0.5560 -1.2214  0.4310
14391TIP3   OH264587   3.656   5.670  10.480 -0.2937 -0.1803 -0.0684
14391TIP3    H164588   3.705   5.597  10.443  0.3742  0.1958  0.0621
14391TIP3    H264589   3.574   5.631  10.511 -0.5998 -0.6025 -1.3907
14392TIP3   OH264590   2.832   0.884  15.736 -0.4220 -0.0428 -0.0236
14392TIP3    H164591   2.818   0.789  15.737 -0.1928 -0.0746  0.5619
14392TIP3    H264592   2.743   0.920  15.729 -0.7256 -0.2711  2.1958
14393TIP3   OH264593   4.193   2.851   1.035 -0.3830 -0.4173 -0.6346
14393TIP3    H164594   4.239   2.777   1.074  0.5576 -0.7960 -2.3905
14393TIP3    H264595   4.147   2.814   0.959 -0.0102  0.7588 -1.4484
14394TIP3   OH264596   4.049   0.368  12.608 -0.6411  0.2493  0.2894
14394TIP3    H164597   3.955   0.375  12.627 -0.6629  0.0465  0.2612
14394TIP3    H264598   4.065   0.435  12.542 -0.2569  1.9745  2.1051
14395TIP3   OH264599   1.879   1.806  17.059 -0.2225 -0.0676 -0.0463
14395TIP3    H164600   1.956   1.838  17.012  1.8284 -0.9679  2.5767
14395TIP3    H264601   1.863   1.719  17.023 -0.2079  0.2452 -0.8190
14396TIP3   OH264602   0.579   5.183  11.685  0.9287  0.5746  0.1574
14396TIP3    H164603   0.651   5.237  11.718  0.8954  0.2173  0.8229
14396TIP3    H264604   0.519   5.246  11.646  0.4986  1.1156  1.6572
14397TIP3   OH264605   1.941   0.139   5.547 -0.5613 -0.1018  0.8904
14397TIP3    H164606   1.901   0.166   5.630 -1.0675 -0.9922  0.9362
14397TIP3    H264607   1.996   0.064   5.571 -0.2498  0.0045  0.5144
14398TIP3   OH264608   1.461   0.653  14.426 -0.3068 -0.1251  0.0605
14398TIP3    H164609   1.378   0.651  14.474  0.2643 -1.1120  1.0123
14398TIP3    H264610   1.510   0.579  14.459  0.6698  0.0099 -1.0524
14399TIP3   OH264611   4.854   2.653  13.107  0.3224 -0.0548  0.6860
14399TIP3    H164612   4.933   2.653  13.161  0.1441  0.2322  0.9488
14399TIP3    H264613   4.820   2.743  13.114  1.0332  0.3625 -0.9795
14400TIP3   OH264614   2.471   5.709  13.398 -0.7686 -0.3228 -0.7459
14400TIP3    H164615   2.519   5.792  13.395  0.1090 -0.7784  0.3512
14400TIP3    H264616   2.409   5.719  13.470 -0.5172 -0.6956 -0.4751
14401TIP3   OH264617   0.547   3.410  15.495  0.1162  0.2790 -0.5943
14401TIP3    H164618   0.506   3.338  15.447 -0.5276  1.4685 -1.8857
14401TIP3    H264619   0.639   3.384  15.504  0.0116 -0.4535 -1.5521
14402TIP3   OH264620   3.383   0.352  14.780 -0.3456  0.8016 -0.1728
14402TIP3    H164621   3.461   0.394  14.742 -0.7963  2.2359  0.4534
14402TIP3    H264622   3.317   0.421  14.779 -0.8753  0.3232  1.5986
14403TIP3   OH264623   6.773   0.902  12.433  0.0845 -0.1335  0.0247
14403TIP3    H164624   6.715   0.962  12.385 -0.5329 -0.9985 -0.3195
14403TIP3    H264625   6.715   0.832  12.463  0.6067  0.0128  1.3990
14404TIP3   OH264626   3.730   4.198  13.881  0.3901  0.3343  0.2624
14404TIP3    H164627   3.810   4.149  13.861  1.0202  2.1209 -1.7826
14404TIP3    H264628   3.672   4.179  13.807 -0.1339  1.0219  0.4992
14405TIP3   OH264629   2.481   1.302  16.736 -1.0199  0.9266  0.0898
14405TIP3    H164630   2.477   1.219  16.784 -2.1777 -1.1560 -3.3939
14405TIP3    H264631   2.572   1.309  16.707 -1.3402 -0.1382 -1.2233
14406TIP3   OH264632   1.080   0.979   4.667  0.1480 -0.0509  0.4649
14406TIP3    H164633   1.003   1.004   4.616 -0.4271 -2.2873  0.2022
14406TIP3    H264634   1.153   1.019   4.620 -0.4820 -1.1549 -1.4881
14407TIP3   OH264635   0.963   5.660   2.622  0.5853  0.7680  0.0939
14407TIP3    H164636   1.017   5.631   2.695  1.2492  0.5626 -0.4673
14407TIP3    H264637   0.887   5.702   2.662 -0.0209 -1.0712  0.9136
14408TIP3   OH264638   3.019   3.786  12.739 -0.2124  0.6046 -0.2703
14408TIP3    H164639   3.039   3.751  12.652  1.6251  1.2044 -0.1166
14408TIP3    H264640   2.938   3.836  12.727  0.3253  1.1501 -1.7768
14409TIP3   OH264641   3.555   1.383   3.459  0.3875  0.3117 -0.1209
14409TIP3    H164642   3.516   1.382   3.547 -2.2149  1.1984 -1.2126
14409TIP3    H264643   3.649   1.380   3.474 -0.0170  0.6683  2.7099
14410TIP3   OH264644   5.246   1.064   6.338 -0.2942  0.4891 -0.1993
14410TIP3    H164645   5.225   1.044   6.247  1.1904 -3.0461  0.1695
14410TIP3    H264646   5.162   1.060   6.383 -0.7388  0.1008 -1.0386
14411TIP3   OH264647   0.288   2.600   4.410  0.2632  0.2863  0.2799
14411TIP3    H164648   0.330   2.527   4.455  0.4205  0.4042  0.3240
14411TIP3    H264649   0.327   2.679   4.449  0.0784  0.3929  0.2479
14412TIP3   OH264650   2.055   3.180  14.555 -0.7254 -0.3930  0.3744
14412TIP3    H164651   2.092   3.262  14.586 -0.8950  0.1366 -0.7961
14412TIP3    H264652   1.961   3.190  14.568 -0.6670 -0.8411  1.2265
14413TIP3   OH264653   2.973   0.083  16.897  0.3618  0.4230  0.3827
14413TIP3    H164654   2.970   0.026  16.974  0.3399 -1.0530 -0.7068
14413TIP3    H264655   2.918   0.040  16.832 -0.4447  2.1788 -0.1398
14414TIP3   OH264656   2.735   6.054   1.327 -0.0997  0.6594 -0.5559
14414TIP3    H164657   2.738   6.004   1.246  0.7340  0.2831 -0.2987
14414TIP3    H264658   2.720   5.988   1.395  1.5246  0.6823 -0.1590
14415TIP3   OH264659   2.168   3.110  15.562  0.0685 -0.4267  0.2918
14415TIP3    H164660   2.092   3.137  15.615  0.0489 -0.9946  0.5583
14415TIP3    H264661   2.141   3.126  15.472 -0.0402  0.1985  0.4294
14416TIP3   OH264662   1.124   6.774  15.508 -0.5745 -0.7495  0.0303
14416TIP3    H164663   1.161   6.765  15.596  1.7123 -2.2296 -1.0095
14416TIP3    H264664   1.195   6.814  15.457 -1.7268 -0.2779 -1.2081
14417TIP3   OH264665   3.792   2.994  11.616 -0.4999 -0.0897  0.7672
14417TIP3    H164666   3.815   3.058  11.549  0.9394 -0.2070  1.1338
14417TIP3    H264667   3.828   3.031  11.697 -2.0410 -0.0417  1.4474
14418TIP3   OH264668   1.608   4.854   4.714  0.1271  0.1914  0.0659
14418TIP3    H164669   1.671   4.920   4.683 -0.8744  2.1357  1.9991
14418TIP3    H264670   1.527   4.876   4.668  0.9427 -2.7643 -2.9887
14419TIP3   OH264671   0.630   2.963  13.119  0.1899 -0.0753 -0.3151
14419TIP3    H164672   0.702   2.950  13.180  1.6670  0.8573 -1.8112
14419TIP3    H264673   0.671   2.962  13.033 -1.6874 -0.2300 -1.2386
14420TIP3   OH264674   2.615   1.870  14.468  0.3136  0.0905  0.4034
14420TIP3    H164675   2.629   1.918  14.386  1.5225 -0.3668  0.3463
14420TIP3    H264676   2.679   1.799  14.467 -0.1456 -0.3581  1.4146
14421TIP3   OH264677   6.667   1.831   5.122 -0.1169 -0.1747  0.3420
14421TIP3    H164678   6.762   1.840   5.114  0.1123 -1.9610  0.8418
14421TIP3    H264679   6.655   1.749   5.170 -1.8994  0.3522  0.8149
14422TIP3   OH264680   4.599   5.730  12.790 -0.1716  0.4395 -0.0023
14422TIP3    H164681   4.691   5.737  12.764  0.0600  1.1879  0.9722
14422TIP3    H264682   4.553   5.703  12.710  1.0130 -0.8551 -0.2789
14423TIP3   OH264683   0.368   1.156   6.722 -0.0434  0.4155 -0.1610
14423TIP3    H164684   0.276   1.161   6.747 -1.0635  1.2601 -3.7918
14423TIP3    H264685   0.371   1.087   6.655  1.8976  0.6359 -0.3362
14424TIP3   OH264686   5.230   3.443  14.813 -0.0546 -0.7279  0.0010
14424TIP3    H164687   5.217   3.463  14.906  1.8983  1.3538 -0.1210
14424TIP3    H264688   5.146   3.463  14.771 -0.5526 -0.4378  1.1260
14425TIP3   OH264689   1.950   5.538   3.404 -0.2214 -0.3838  0.1624
14425TIP3    H164690   1.962   5.486   3.325 -1.2639  0.4095 -0.5406
14425TIP3    H264691   1.949   5.475   3.475 -0.0460 -1.1819 -0.5343
14426TIP3   OH264692   6.638   5.567  12.679  0.2376 -0.3506 -0.4158
14426TIP3    H164693   6.548   5.539  12.662 -0.0932  0.8923 -0.7904
14426TIP3    H264694   6.686   5.486  12.696 -1.2526 -0.8953  1.2655
14427TIP3   OH264695   2.058   1.048   3.113  0.1997  0.4079 -0.1670
14427TIP3    H164696   2.106   1.118   3.157 -1.1273 -0.4879  2.8908
14427TIP3    H264697   2.125   0.983   3.092  0.9344  1.0732  0.0807
14428TIP3   OH264698   6.781   2.803  10.627 -0.5223 -0.3778 -0.8628
14428TIP3    H164699   6.716   2.856  10.674 -0.5614  0.5957 -1.9719
14428TIP3    H264700   6.814   2.862  10.559  1.4374 -0.9078 -0.3868
14429TIP3   OH264701   3.185   1.813   4.710  0.0740  0.2574  0.0526
14429TIP3    H164702   3.266   1.863   4.698  0.2474 -0.1135 -0.3500
14429TIP3    H264703   3.173   1.768   4.626 -0.2070 -0.1878  0.3353
14430TIP3   OH264704   5.584   1.853   1.359 -0.3009  0.2353 -0.0885
14430TIP3    H164705   5.542   1.881   1.441  1.1983 -0.8609  1.0791
14430TIP3    H264706   5.672   1.889   1.364 -1.0963  2.7126 -2.6392
14431TIP3   OH264707   0.274   0.723   2.795  0.1426 -0.8333 -0.6166
14431TIP3    H164708   0.331   0.795   2.768 -1.2882  0.3271 -0.5901
14431TIP3    H264709   0.275   0.725   2.890 -1.3120  0.3288 -0.5997
14432TIP3   OH264710   3.080   3.855   1.794 -0.3026 -0.1916  0.0251
14432TIP3    H164711   3.173   3.835   1.803 -0.5308 -1.9713 -1.3306
14432TIP3    H264712   3.036   3.791   1.851 -0.6895  1.1474  1.2859
14433TIP3   OH264713   4.978   3.011  15.736 -0.6397  0.1813 -0.0854
14433TIP3    H164714   4.898   2.974  15.699 -0.7322  0.1980  0.0983
14433TIP3    H264715   4.964   3.106  15.734 -0.6690  0.1788  0.0511
14434TIP3   OH264716   0.048   6.265   4.657  0.0515 -0.0583  0.1354
14434TIP3    H164717   0.075   6.184   4.699  0.0442 -0.4030 -0.5249
14434TIP3    H264718   0.006   6.315   4.728  1.0797 -0.1355  0.8137
14435TIP3   OH264719   1.188   0.066   5.024  0.4419  0.2880 -0.1089
14435TIP3    H164720   1.272   0.067   5.069 -0.3157  2.0604  1.3279
14435TIP3    H264721   1.197   0.132   4.954  1.0122 -1.1933 -1.4700
14436TIP3   OH264722   5.930   2.662   3.259 -0.2689 -0.5935  0.1083
14436TIP3    H164723   5.937   2.757   3.257 -1.6344 -0.4686  0.6414
14436TIP3    H264724   5.963   2.633   3.174 -2.3343  0.5477 -1.1303
14437TIP3   OH264725   0.101   4.247   4.371 -1.1961  0.2223  0.5152
14437TIP3    H164726   0.116   4.153   4.372 -1.0095  0.2538  1.5194
14437TIP3    H264727   0.061   4.265   4.456 -1.5260  1.0013  0.1962
14438TIP3   OH264728   0.509   0.253  14.106 -0.4297  0.0284 -0.1557
14438TIP3    H164729   0.478   0.335  14.145  1.7426  0.5910  0.4799
14438TIP3    H264730   0.495   0.187  14.175  0.1715  0.3666  0.3008
14439TIP3   OH264731   2.915   5.018  14.368 -0.1819 -0.4974  0.0083
14439TIP3    H164732   2.866   5.039  14.289 -2.4638 -1.0967  1.2075
14439TIP3    H264733   2.926   5.102  14.413 -0.3975 -0.3889 -0.1387
14440TIP3   OH264734   2.272   5.017  11.743  0.2248  0.4305 -0.2855
14440TIP3    H164735   2.367   5.024  11.747  0.0125  2.5075  2.8401
14440TIP3    H264736   2.247   5.069  11.667  1.5065  0.2477 -0.8559
14441TIP3   OH264737   3.565   4.042   3.799  0.9396 -0.1556 -0.0769
14441TIP3    H164738   3.492   4.025   3.740  0.6981 -0.9899  0.4552
14441TIP3    H264739   3.641   4.003   3.756  1.2480  1.4695 -1.0461
14442TIP3   OH264740   3.164   5.003   2.273 -0.6997 -0.0862  0.4015
14442TIP3    H164741   3.163   5.042   2.361  1.2011 -0.0381  0.4261
14442TIP3    H264742   3.209   4.919   2.284  0.4000  0.3479 -0.6908
14443TIP3   OH264743   2.668   5.717   0.615  0.2552 -0.0669 -0.4670
14443TIP3    H164744   2.602   5.656   0.647  1.4953 -1.1920  0.0017
14443TIP3    H264745   2.634   5.804   0.635 -0.8493 -0.6568  0.1976
14444TIP3   OH264746   3.489   6.230  13.513 -0.8201  0.0628  0.1523
14444TIP3    H164747   3.554   6.185  13.568  1.3319  0.9415 -1.6131
14444TIP3    H264748   3.483   6.176  13.434 -1.5929  0.4810 -0.0786
14445TIP3   OH264749   4.219   4.634   3.119  0.0332  0.3937  0.1204
14445TIP3    H164750   4.221   4.708   3.179  2.8193  1.0002 -0.6723
14445TIP3    H264751   4.204   4.673   3.033  1.2580  0.0212 -0.2658
14446TIP3   OH264752   3.679   5.268  15.129 -0.4854  0.0595 -0.1041
14446TIP3    H164753   3.728   5.214  15.067 -0.0222  1.1079 -0.6457
14446TIP3    H264754   3.746   5.308  15.185 -0.7271  1.2309 -0.6389
14447TIP3   OH264755   0.680   3.203  13.901  0.5730 -0.0671  0.3750
14447TIP3    H164756   0.638   3.160  13.976 -0.7983  1.6544  0.6332
14447TIP3    H264757   0.711   3.286  13.936  0.6017  0.4147 -0.8038
14448TIP3   OH264758   4.503   1.208  10.299 -0.0262 -0.0723  0.0504
14448TIP3    H164759   4.593   1.238  10.309 -0.2723  0.8117 -0.3099
14448TIP3    H264760   4.449   1.281  10.332 -0.6324 -0.0621 -0.9376
14449TIP3   OH264761   6.230   6.713  16.347  0.0146 -0.2145 -0.0651
14449TIP3    H164762   6.143   6.720  16.308 -0.0359  1.4117  0.2689
14449TIP3    H264763   6.268   6.800  16.335  0.0655  0.3132  3.2710
14450TIP3   OH264764   5.976   5.041   2.600 -0.7593  0.3371 -0.7657
14450TIP3    H164765   6.041   5.110   2.584  2.1981 -2.5933 -2.0897
14450TIP3    H264766   5.901   5.065   2.546  1.5256  0.8305 -3.8625
14451TIP3   OH264767   5.212   1.472   3.997  0.7505  0.0367 -0.1160
14451TIP3    H164768   5.236   1.549   4.049 -0.8149  1.0142 -0.7926
14451TIP3    H264769   5.164   1.508   3.922 -0.7649 -1.6568  0.0160
14452TIP3   OH264770   0.960   6.042  11.701  0.1236  0.3694  0.3342
14452TIP3    H164771   1.031   6.094  11.665  0.2514 -0.5870 -0.8312
14452TIP3    H264772   0.894   6.040  11.631  0.2561 -1.2753  0.2306
14453TIP3   OH264773   6.697   6.220  13.537 -0.2517 -0.0020 -0.0988
14453TIP3    H164774   6.764   6.280  13.567 -1.3787  0.2348  2.0180
14453TIP3    H264775   6.651   6.267  13.467 -1.0189  1.5624  1.4227
14454TIP3   OH264776   1.948   0.447  16.743 -0.7508  0.5728 -0.4904
14454TIP3    H164777   1.897   0.493  16.809 -0.2539  0.8727 -0.3126
14454TIP3    H264778   2.038   0.475  16.758 -0.5047 -0.1054 -0.6738
14455TIP3   OH264779   2.133   6.183  12.586 -0.3140 -0.3171  0.2113
14455TIP3    H164780   2.074   6.141  12.523 -1.8420  0.0794  1.3564
14455TIP3    H264781   2.126   6.277  12.567 -0.8155 -0.1906  0.9848
14456TIP3   OH264782   1.165   3.225  16.921  0.5583  0.5025 -0.1297
14456TIP3    H164783   1.167   3.159  16.852 -1.1879  1.3502 -1.0548
14456TIP3    H264784   1.119   3.299  16.881  2.1496  2.1423  0.9972
14457TIP3   OH264785   1.543   5.747   4.542  0.9727 -0.1519  0.2732
14457TIP3    H164786   1.524   5.840   4.551 -1.1164 -0.5636  0.3846
14457TIP3    H264787   1.516   5.709   4.626 -2.2858 -1.4595 -1.2943
14458TIP3   OH264788   4.126   4.409   5.586  0.5664 -0.1758 -0.0525
14458TIP3    H164789   4.047   4.357   5.600 -0.6237  1.0703 -1.9091
14458TIP3    H264790   4.156   4.385   5.498  0.9289  1.0476 -0.2802
14459TIP3   OH264791   4.409   2.046  11.415  0.0743 -0.4352 -0.0418
14459TIP3    H164792   4.464   2.114  11.454  1.0459 -1.1348 -0.2051
14459TIP3    H264793   4.398   2.074  11.324 -2.3436  1.2975  0.7098
14460TIP3   OH264794   3.649   5.989   1.634  1.0390 -0.1305 -0.2349
14460TIP3    H164795   3.603   5.932   1.696  0.9119  0.8816  0.6025
14460TIP3    H264796   3.581   6.017   1.572  0.6984  0.6872  0.5056
14461TIP3   OH264797   3.840   1.465  15.647  0.0498  0.2086  0.1207
14461TIP3    H164798   3.917   1.419  15.681  0.6651  0.2265 -1.2012
14461TIP3    H264799   3.872   1.552  15.623 -0.3834  0.2147 -0.4418
14462TIP3   OH264800   2.128   0.498  12.030 -0.8299  0.8288  0.3615
14462TIP3    H164801   2.048   0.510  11.978 -1.6825  1.1834  1.6948
14462TIP3    H264802   2.123   0.407  12.061 -0.3561  0.6353 -0.1334
14463TIP3   OH264803   5.932   1.971  15.079  0.1302 -0.0120  0.0503
14463TIP3    H164804   5.943   1.882  15.044 -0.3643  0.3480 -1.0592
14463TIP3    H264805   5.940   1.961  15.174  1.4951 -1.0184 -0.1646
14464TIP3   OH264806   6.412   6.600   3.841  0.1208  0.1175 -0.2887
14464TIP3    H164807   6.499   6.561   3.854 -0.4486 -0.8853  0.5121
14464TIP3    H264808   6.408   6.617   3.747  1.0503 -0.1406 -0.3833
14465TIP3   OH264809   4.224   6.268   5.676 -0.4616  0.3850 -0.3276
14465TIP3    H164810   4.295   6.236   5.621  0.9885  1.1196  1.0793
14465TIP3    H264811   4.158   6.200   5.672 -0.0751  0.0942 -2.3852
14466TIP3   OH264812   3.697   2.237   2.000 -0.1627 -0.3436  0.8279
14466TIP3    H164813   3.649   2.231   1.918  1.7054 -1.3028 -0.2300
14466TIP3    H264814   3.656   2.172   2.057  0.0459 -1.3419 -0.1464
14467TIP3   OH264815   2.011   4.902  14.050  0.5773 -0.0593 -0.1962
14467TIP3    H164816   2.094   4.896  14.096 -0.1917 -1.4861  1.0338
14467TIP3    H264817   2.033   4.884  13.958  1.5611 -0.9180  0.2010
14468TIP3   OH264818   5.260   1.770   1.448 -0.0265 -0.5498 -0.0942
14468TIP3    H164819   5.282   1.847   1.501 -0.2024 -0.3556 -0.3040
14468TIP3    H264820   5.335   1.760   1.389 -0.7168  0.4125 -1.1521
14469TIP3   OH264821   5.802   4.684   1.903  0.3775 -0.6863 -0.0656
14469TIP3    H164822   5.894   4.685   1.930  0.2223  1.7559  0.5060
14469TIP3    H264823   5.782   4.776   1.881 -2.4557 -0.7892  1.7750
14470TIP3   OH264824   1.250   2.560   1.701  0.1146  0.3844  0.1289
14470TIP3    H164825   1.276   2.569   1.609  0.1004 -2.7231 -0.2502
14470TIP3    H264826   1.332   2.541   1.747 -0.4212 -2.4459  0.0213
14471TIP3   OH264827   5.246   1.247   0.515  0.1883  0.0662 -0.0597
14471TIP3    H164828   5.173   1.235   0.455 -0.1062  0.5534  0.1894
14471TIP3    H264829   5.277   1.336   0.496  0.4607  0.0045  0.1044
14472TIP3   OH264830   6.594   1.090  11.506  0.3533  0.5130  1.0324
14472TIP3    H164831   6.682   1.092  11.469 -0.2077 -1.1159 -0.4670
14472TIP3    H264832   6.554   1.173  11.479  1.0987  0.8483  0.9419
14473TIP3   OH264833   5.059   0.124  11.344 -0.0177 -0.2064  0.2479
14473TIP3    H164834   5.070   0.197  11.405 -0.3364 -0.6262  0.8125
14473TIP3    H264835   5.148   0.091  11.330  0.0918  0.0857  0.2379
14474TIP3   OH264836   2.428   6.619  11.364 -0.6098 -0.5634  0.0685
14474TIP3    H164837   2.436   6.714  11.362  1.1088 -0.6694  0.9127
14474TIP3    H264838   2.499   6.588  11.308  0.3515 -1.4048  1.7090
14475TIP3   OH264839   3.557   0.302   2.897 -0.7793 -0.0015 -0.5071
14475TIP3    H164840   3.521   0.345   2.819 -1.0168  0.5587 -0.0948
14475TIP3    H264841   3.556   0.209   2.876 -1.1690  0.1208 -1.0399
14476TIP3   OH264842   3.717   5.540  15.535  0.0724  0.2988 -0.0476
14476TIP3    H164843   3.790   5.523  15.475  1.0441  0.9221  0.9421
14476TIP3    H264844   3.681   5.624  15.505  0.6060  0.6485  0.2876
14477TIP3   OH264845   6.645   0.018  12.564 -0.0023  0.3093  0.1091
14477TIP3    H164846   6.650   0.078  12.638  0.3623  3.1475 -2.1561
14477TIP3    H264847   6.711  -0.049  12.584  1.2383  1.9193  1.6109
14478TIP3   OH264848   1.652   6.761  16.362  0.1515 -0.1681  0.1455
14478TIP3    H164849   1.735   6.726  16.328  0.5582  0.3590  0.5903
14478TIP3    H264850   1.664   6.763  16.457 -0.0482  0.6929  0.1613
14479TIP3   OH264851   5.323   3.832  17.166  0.6341 -0.0616  0.5922
14479TIP3    H164852   5.325   3.928  17.170 -0.2294 -0.0567  1.1520
14479TIP3    H264853   5.260   3.807  17.233  1.5776 -1.0740  1.1137
14480TIP3   OH264854   3.696   2.126  13.661  0.3419  0.1733  0.4478
14480TIP3    H164855   3.666   2.044  13.621 -0.6625  1.0645 -0.6544
14480TIP3    H264856   3.717   2.102  13.751 -1.0502 -1.0415  0.4643
14481TIP3   OH264857   6.756   4.258  16.220  0.1162 -0.6560  0.1356
14481TIP3    H164858   6.761   4.163  16.223  1.1981 -0.8096 -3.7320
14481TIP3    H264859   6.695   4.277  16.149 -0.2453  1.5661  0.9965
14482TIP3   OH264860   1.168   1.017  15.234 -0.4743 -0.4287 -0.7186
14482TIP3    H164861   1.210   0.981  15.156 -1.0244  0.7423 -1.5684
14482TIP3    H264862   1.168   1.112  15.220 -0.0011 -0.1490  0.9917
14483TIP3   OH264863   2.760   3.676  10.625  0.3472 -0.0418  0.3362
14483TIP3    H164864   2.804   3.760  10.637  0.6803  0.0575 -1.4630
14483TIP3    H264865   2.667   3.699  10.622  0.3884  0.1687  0.6014
14484TIP3   OH264866   4.923   3.734   5.393 -0.3398  0.0813  0.0419
14484TIP3    H164867   4.867   3.702   5.464 -0.9046 -0.3526 -0.5988
14484TIP3    H264868   4.862   3.766   5.327  0.1440 -1.5232 -1.1947
14485TIP3   OH264869   1.157   5.889   5.901  0.1449 -0.8980 -0.1488
14485TIP3    H164870   1.095   5.893   5.973 -2.0064 -1.2497 -1.9382
14485TIP3    H264871   1.185   5.798   5.898  0.0676 -0.9304  0.0897
14486TIP3   OH264872   4.852   5.398  16.105  0.4434  0.0241  0.1212
14486TIP3    H164873   4.854   5.314  16.151  0.0408  0.1380  0.3425
14486TIP3    H264874   4.763   5.431  16.116  0.8559  0.9279  0.8399
14487TIP3   OH264875   6.024   6.610  13.899  0.1787  0.3311 -0.2665
14487TIP3    H164876   6.050   6.701  13.915 -0.3817  0.4455 -0.0036
14487TIP3    H264877   6.101   6.570  13.859  0.5339  0.8413 -0.0967
14488TIP3   OH264878   3.344   0.601  12.432 -0.1919  0.1214 -0.2983
14488TIP3    H164879   3.426   0.641  12.464 -1.3936 -0.1555  3.4038
14488TIP3    H264880   3.372   0.541  12.362  2.5862  1.2078 -0.1748
14489TIP3   OH264881   2.287   4.591   4.086 -0.1165  0.2127 -0.0904
14489TIP3    H164882   2.323   4.572   4.173  0.8270  0.7671 -0.3501
14489TIP3    H264883   2.364   4.604   4.031 -0.7135  0.1017 -0.9594
14490TIP3   OH264884   0.392   1.482   4.033  0.0181  0.3809  0.4892
14490TIP3    H164885   0.412   1.521   3.948 -0.3714  0.0320  0.2355
14490TIP3    H264886   0.371   1.556   4.090 -0.5190  0.5506  0.0674
14491TIP3   OH264887   3.191   3.595   0.147 -0.2060 -0.1559  1.1691
14491TIP3    H164888   3.175   3.540   0.224  1.0985  0.0173  1.5730
14491TIP3    H264889   3.152   3.547   0.074 -1.9140 -0.0760  2.0048
14492TIP3   OH264890   1.622   2.514  16.792  0.0004  0.0611 -0.1312
14492TIP3    H164891   1.608   2.477  16.705  1.6183  0.6056 -0.6441
14492TIP3    H264892   1.714   2.496  16.812  0.4934  2.6318  0.1506
14493TIP3   OH264893   5.056   4.075   0.883  0.1159 -0.3415 -0.1211
14493TIP3    H164894   5.098   4.103   0.964 -0.3481 -0.1315  0.0542
14493TIP3    H264895   4.985   4.139   0.870 -1.1519 -1.6212  0.4389
14494TIP3   OH264896   3.677   5.252   6.672  0.5046 -0.4988  0.1742
14494TIP3    H164897   3.595   5.229   6.714  0.8781  0.9124  1.7457
14494TIP3    H264898   3.725   5.169   6.665  0.5848 -0.7456  2.9406
14495TIP3   OH264899   3.640   2.663  13.782  0.2947 -1.1598  0.4527
14495TIP3    H164900   3.695   2.616  13.720  0.3471 -1.1821  0.5151
14495TIP3    H264901   3.579   2.597  13.816 -2.3686 -0.3030 -2.4943
14496TIP3   OH264902   1.243   3.741   3.024 -0.0926 -0.2157 -0.0317
14496TIP3    H164903   1.199   3.720   2.942 -2.6676  1.3536  0.8795
14496TIP3    H264904   1.175   3.733   3.091  0.7767  2.9812  1.3652
14497TIP3   OH264905   6.266   0.065  17.121 -0.2424 -0.0329 -0.2099
14497TIP3    H164906   6.239   0.154  17.099 -1.8138 -0.5165 -0.3505
14497TIP3    H264907   6.242   0.055  17.213  2.7905  0.7052  0.7022
14498TIP3   OH264908   0.039   1.642   2.247 -0.2084 -0.3285  0.0190
14498TIP3    H164909   0.044   1.546   2.240 -0.6860 -0.3471 -0.0782
14498TIP3    H264910   0.070   1.661   2.335 -1.1022 -0.6558  0.4108
14499TIP3   OH264911   5.077   6.601   0.419  0.0093  0.0424 -0.2839
14499TIP3    H164912   5.082   6.697   0.418 -0.7021  0.1953  3.3769
14499TIP3    H264913   5.161   6.573   0.455  0.6316 -0.8027 -2.3297
14500TIP3   OH264914   0.748   0.552   6.051  0.1185  0.0752 -0.0619
14500TIP3    H164915   0.797   0.543   6.133  0.7618 -0.4489 -0.5035
14500TIP3    H264916   0.670   0.498   6.063  0.2741 -0.1022  0.1566
14501TIP3   OH264917   5.031   2.161   3.913 -0.2772  0.9692  0.4670
14501TIP3    H164918   5.063   2.252   3.912  1.5914  0.3274 -0.1964
14501TIP3    H264919   5.054   2.127   3.827  1.6714 -1.0123  1.7303
14502TIP3   OH264920   4.840   4.652  13.631 -0.3497 -0.1272 -0.5636
14502TIP3    H164921   4.920   4.666  13.580 -0.8519 -0.5157 -1.4906
14502TIP3    H264922   4.791   4.587  13.579  0.1671 -2.2973  1.5830
14503TIP3   OH264923   1.523   0.017  12.856 -0.1401  0.1132  0.0119
14503TIP3    H164924   1.606   0.006  12.809 -0.7373 -0.8968 -0.8349
14503TIP3    H264925   1.458  -0.024  12.799 -0.8096 -1.5996  1.9677
14504TIP3   OH264926   0.382   5.217   1.663 -0.0904 -0.9767 -0.2082
14504TIP3    H164927   0.370   5.190   1.754 -0.7103 -4.7714 -1.3470
14504TIP3    H264928   0.477   5.221   1.652  0.0045 -1.5613  0.3382
14505TIP3   OH264929   2.572   5.255  16.002 -0.2274  0.4235  0.1220
14505TIP3    H164930   2.507   5.187  15.986 -1.3789  1.5828 -0.2355
14505TIP3    H264931   2.612   5.272  15.917  1.1835 -0.8992  0.4990
14506TIP3   OH264932   2.939   3.668  15.424 -0.0815 -0.1456 -0.6697
14506TIP3    H164933   2.880   3.684  15.498  1.1364  1.3042  0.0208
14506TIP3    H264934   2.974   3.580  15.440 -1.8163 -0.8999 -0.9329
14507TIP3   OH264935   3.489   3.512  11.208  0.1904 -0.1864 -1.3285
14507TIP3    H164936   3.417   3.554  11.255 -0.2881 -0.9521 -1.3534
14507TIP3    H264937   3.565   3.568  11.223 -0.2364  0.2114 -0.6435
14508TIP3   OH264938   1.753   4.603   6.849 -0.0374 -0.1711  0.4459
14508TIP3    H164939   1.836   4.570   6.883  1.5430  0.5061 -2.6011
14508TIP3    H264940   1.778   4.674   6.790 -2.8317  0.4852 -0.0210
14509TIP3   OH264941   5.551   6.099  16.629 -0.2588 -0.5598  0.2993
14509TIP3    H164942   5.507   6.113  16.713  0.5189  0.1334  0.5989
14509TIP3    H264943   5.641   6.080  16.653  0.8319  3.2420 -0.4873
14510TIP3   OH264944   1.455   4.103   2.895  0.6281  0.0142  0.2509
14510TIP3    H164945   1.549   4.124   2.895  0.8239 -0.8251 -0.9100
14510TIP3    H264946   1.424   4.132   2.810 -0.0723 -0.1876  0.4353
14511TIP3   OH264947   3.230   6.694   4.791  0.0202 -0.0121 -0.0151
14511TIP3    H164948   3.273   6.628   4.846 -0.4669 -0.7535 -0.5326
14511TIP3    H264949   3.162   6.731   4.847  1.9437  1.9035  1.1837
14512TIP3   OH264950   5.172   4.513  15.942 -0.1343 -0.2202 -0.3818
14512TIP3    H164951   5.201   4.502  15.851 -1.6362  1.9378 -1.1848
14512TIP3    H264952   5.084   4.476  15.944 -0.6621  0.9915 -0.2057
14513TIP3   OH264953   0.137   3.577  13.815 -0.0559  0.5946 -0.0425
14513TIP3    H164954   0.054   3.534  13.835  0.8001 -0.0350  2.2581
14513TIP3    H264955   0.200   3.506  13.811  0.4739  1.1262 -1.3268
14514TIP3   OH264956   0.494   5.872   5.448  0.9938  0.0514 -0.4469
14514TIP3    H164957   0.558   5.839   5.385  2.1794  1.3179  0.0540
14514TIP3    H264958   0.547   5.903   5.521 -0.2405  0.6619  0.2044
14515TIP3   OH264959   4.540   6.465   5.820  0.4289  0.1199  0.2369
14515TIP3    H164960   4.488   6.388   5.843 -1.8527  1.8838  1.0554
14515TIP3    H264961   4.631   6.436   5.834 -0.3900 -2.2938  0.9104
14516TIP3   OH264962   3.763   4.593  15.803 -0.5362  0.1080 -0.0269
14516TIP3    H164963   3.747   4.686  15.782 -0.7258  0.0988  0.0733
14516TIP3    H264964   3.808   4.595  15.887 -1.2591  0.0744  0.3588
14517TIP3   OH264965   4.750   5.709   4.215 -0.2558  0.1988  0.0903
14517TIP3    H164966   4.772   5.710   4.308 -3.0251  1.5117  0.7882
14517TIP3    H264967   4.762   5.800   4.187  1.1611 -0.3105 -1.0127
14518TIP3   OH264968   2.040   2.849  13.752  0.1402  0.5157  0.1981
14518TIP3    H164969   2.058   2.803  13.670 -0.5865  0.4961  0.0442
14518TIP3    H264970   1.972   2.913  13.729  0.9873  1.5358  0.4491
14519TIP3   OH264971   1.038   5.982   3.706  0.2729 -0.2122 -0.5938
14519TIP3    H164972   1.087   6.036   3.768  0.0832 -0.7360  0.0221
14519TIP3    H264973   0.959   5.957   3.754 -0.4360  0.3425 -1.4580
14520TIP3   OH264974   2.838   4.080  11.056 -0.2198  0.2229  0.4074
14520TIP3    H164975   2.767   4.017  11.039  0.2110  0.0245 -0.7023
14520TIP3    H264976   2.815   4.156  11.003  2.5665 -1.4375 -3.4959
14521TIP3   OH264977   0.509   2.065  15.223  0.9154  0.1358  0.0618
14521TIP3    H164978   0.482   2.145  15.269 -0.1696  0.1059 -0.5018
14521TIP3    H264979   0.486   1.994  15.283  1.3549  0.2120  0.3222
14522TIP3   OH264980   5.942   0.744  14.491 -0.6251  0.2698 -0.0268
14522TIP3    H164981   5.897   0.828  14.478  0.9763  1.2106  0.2818
14522TIP3    H264982   5.914   0.715  14.578 -2.3149 -0.2539 -0.7276
14523TIP3   OH264983   2.066   1.568  16.188  0.2979  0.4272 -0.7837
14523TIP3    H164984   2.153   1.534  16.210 -0.3356 -2.7460 -2.8212
14523TIP3    H264985   2.054   1.643  16.247  4.3795  0.9589 -0.4625
14524TIP3   OH264986   5.905   6.387  11.184  0.1673  0.5205 -0.2292
14524TIP3    H164987   5.813   6.387  11.211  0.8367  0.8835  2.2213
14524TIP3    H264988   5.902   6.390  11.088 -2.3615  1.0871 -0.1783
14525TIP3   OH264989   2.656   4.617   1.643 -0.1064 -0.3716 -0.5166
14525TIP3    H164990   2.669   4.542   1.702 -1.6005  0.4061  0.8546
14525TIP3    H264991   2.679   4.693   1.697 -1.4678  0.3493 -0.9498
14526TIP3   OH264992   2.183   2.935  13.187  0.1253 -0.4543  0.0628
14526TIP3    H164993   2.147   2.868  13.129  2.9811 -2.7768  0.8202
14526TIP3    H264994   2.182   2.895  13.274  0.9930  0.8377  0.6827
14527TIP3   OH264995   0.465   6.761   3.633 -0.3803  0.3622 -0.5180
14527TIP3    H164996   0.538   6.780   3.573  1.2349 -0.0363  1.2800
14527TIP3    H264997   0.507   6.725   3.711 -2.4660  0.7483  0.8166
14528TIP3   OH264998   5.825   0.538   4.642 -0.1309 -0.0514 -0.0198
14528TIP3    H164999   5.896   0.512   4.584 -0.2089 -2.0653  0.7255
14528TIP3    H265000   5.869   0.562   4.724 -0.0983  1.7966 -0.5538
14529TIP3   OH265001   0.467   6.743  12.880 -0.3125 -0.5261  0.2973
14529TIP3    H165002   0.372   6.745  12.890 -0.4868 -0.5783 -1.1999
14529TIP3    H265003   0.485   6.659  12.838  0.0897  0.7476 -2.1527
14530TIP3   OH265004   2.315   3.864   5.982  0.4215 -0.4092  0.4543
14530TIP3    H165005   2.307   3.810   6.061  0.3739 -0.6946  0.2543
14530TIP3    H265006   2.397   3.836   5.942  0.1338 -0.7073  0.0681
14531TIP3   OH265007   6.107   1.050  14.649 -0.0480 -0.4255 -0.5649
14531TIP3    H165008   6.129   0.972  14.598 -1.4582 -1.1016 -0.1631
14531TIP3    H265009   6.189   1.074  14.693  0.2880 -1.9647 -0.3166
14532TIP3   OH265010   5.583   0.014   1.306 -0.0377  0.0323  0.2366
14532TIP3    H165011   5.599  -0.025   1.392  1.2542  0.8830  0.4182
14532TIP3    H265012   5.645   0.088   1.303 -0.2760  0.1761 -1.3032
14533TIP3   OH265013   2.090   0.696   3.632 -1.0716 -0.3542 -0.0729
14533TIP3    H165014   2.032   0.767   3.603 -1.8714 -1.5645 -1.5396
14533TIP3    H265015   2.046   0.616   3.604  1.4988 -1.2960 -1.6244
14534TIP3   OH265016   5.458   3.429  16.597  0.3643  0.5341 -0.5165
14534TIP3    H165017   5.502   3.385  16.670 -0.7848 -1.1966 -0.8341
14534TIP3    H265018   5.390   3.482  16.638  0.3743  0.3541 -0.2664
14535TIP3   OH265019   4.552   1.257   5.571  0.5458 -0.4976  0.3437
14535TIP3    H165020   4.486   1.324   5.552  1.0715 -0.0987 -0.1222
14535TIP3    H265021   4.616   1.266   5.500 -0.4649 -2.9121 -0.9442
14536TIP3   OH265022   6.503   5.148   1.703 -0.0810  0.9947  0.0305
14536TIP3    H165023   6.571   5.086   1.675  0.1295  1.3089 -0.1561
14536TIP3    H265024   6.537   5.234   1.678  0.2997  1.3325  1.6161
14537TIP3   OH265025   0.128   2.963   5.614  0.3062 -0.2293 -0.1502
14537TIP3    H165026   0.147   2.879   5.657  2.3187  0.7745  0.9721
14537TIP3    H265027   0.059   3.002   5.669  1.4658  0.1556  1.0645
14538TIP3   OH265028   6.686   0.587  15.759 -0.3712  0.3313  0.4956
14538TIP3    H165029   6.676   0.675  15.795 -1.6968  1.5948 -2.7327
14538TIP3    H265030   6.776   0.583  15.729  0.0247  0.1520  1.6963
14539TIP3   OH265031   4.222   1.972  15.966  0.2788 -0.2717 -0.2909
14539TIP3    H165032   4.139   1.929  15.983 -0.7474  1.2764 -1.2783
14539TIP3    H265033   4.245   2.015  16.048 -0.4584  0.2253 -0.3424
14540TIP3   OH265034   5.466   6.479   3.289  0.0911 -0.4003 -0.0906
14540TIP3    H165035   5.537   6.491   3.226 -0.5560  1.0102 -0.6046
14540TIP3    H265036   5.495   6.410   3.347  1.1123 -1.0823 -1.3885
14541TIP3   OH265037   1.488   0.948   4.236 -0.1475 -0.1150  0.0060
14541TIP3    H165038   1.394   0.966   4.240 -0.9859 -4.2540  1.5071
14541TIP3    H265039   1.504   0.921   4.146 -0.4733  0.2607 -0.1639
14542TIP3   OH265040   6.095   4.441  13.054  0.1309  0.5738 -0.0631
14542TIP3    H165041   6.052   4.492  12.985 -1.5456  0.9964  1.2649
14542TIP3    H265042   6.143   4.506  13.106 -2.4794  0.9803  1.9817
14543TIP3   OH265043   5.707   4.269   6.761 -0.0414  0.1214 -0.5327
14543TIP3    H165044   5.674   4.181   6.778  0.6171  0.1862  1.1515
14543TIP3    H265045   5.776   4.256   6.695  1.0001 -0.8116  0.7112
14544TIP3   OH265046   1.117   1.002  17.171 -0.1920  0.2620 -0.1856
14544TIP3    H165047   1.025   0.983  17.151  0.6200 -3.0452 -1.0091
14544TIP3    H265048   1.144   1.060  17.100 -1.0472 -0.5133 -1.1684
14545TIP3   OH265049   2.526   1.062  14.988 -0.5561  0.5378 -0.2543
14545TIP3    H165050   2.476   1.051  15.069  0.8067 -0.0591  0.5284
14545TIP3    H265051   2.552   1.154  14.989  1.0942  0.0830  0.9837
14546TIP3   OH265052   1.312   4.472  14.139  0.1643  0.4007  0.6803
14546TIP3    H165053   1.320   4.385  14.100 -2.1280  0.9564 -1.1700
14546TIP3    H265054   1.392   4.517  14.114  0.3606 -0.4584 -0.2620
14547TIP3   OH265055   6.502   2.048  16.194 -0.0458  0.2912  0.1874
14547TIP3    H165056   6.533   2.081  16.278 -0.3371  0.8593  0.0730
14547TIP3    H265057   6.470   2.126  16.148 -0.8507 -0.1638 -0.0356
14548TIP3   OH265058   4.307   0.998   5.222  0.1299  0.6624 -0.6099
14548TIP3    H165059   4.371   0.927   5.211  0.5621  0.8409  0.6512
14548TIP3    H265060   4.353   1.076   5.192  0.3223  0.7039 -0.2131
14549TIP3   OH265061   5.150   1.986  15.496 -0.3684  0.6283 -0.1195
14549TIP3    H165062   5.209   1.919  15.532 -1.4765 -0.4346 -0.2486
14549TIP3    H265063   5.190   2.011  15.413 -0.4817 -0.6378 -0.5674
14550TIP3   OH265064   3.934   5.627  10.700  0.1228  0.1837 -0.5261
14550TIP3    H165065   3.873   5.556  10.720  0.0123  0.6149  0.6760
14550TIP3    H265066   4.020   5.585  10.696 -0.1683 -0.3329 -1.7030
14551TIP3   OH265067   2.217   4.900  15.189 -0.2365 -0.4245 -0.2181
14551TIP3    H165068   2.200   4.967  15.122  1.0689 -0.2788 -0.4051
14551TIP3    H265069   2.157   4.829  15.166  0.0536 -0.2943 -1.4382
14552TIP3   OH265070   5.583   2.027   4.701 -0.6654 -0.3059 -0.3284
14552TIP3    H165071   5.622   2.104   4.659 -0.0767 -0.4011  0.0452
14552TIP3    H265072   5.647   2.000   4.766 -0.2455 -1.9256 -1.3793
14553TIP3   OH265073   4.835   5.033   2.868  0.6535  0.7971 -0.0727
14553TIP3    H165074   4.795   4.947   2.863  0.5302  0.9416 -1.7142
14553TIP3    H265075   4.896   5.027   2.942  0.5907 -0.6582 -0.1293
14554TIP3   OH265076   6.574   1.116  17.038  0.4938 -0.5572  0.2171
14554TIP3    H165077   6.637   1.147  16.972  1.2245 -0.5456  0.9155
14554TIP3    H265078   6.591   1.022  17.046 -1.3729 -1.0843 -1.5110
14555TIP3   OH265079   3.656   2.486  11.176  0.0591  0.3344 -0.6531
14555TIP3    H165080   3.680   2.497  11.084  2.9037  1.0780  0.1293
14555TIP3    H265081   3.709   2.412  11.206  0.6567  1.3715  0.8925
14556TIP3   OH265082   4.368   1.052  12.341  0.2324 -0.5206 -0.3134
14556TIP3    H165083   4.318   1.036  12.421  1.9846 -0.8225  0.7212
14556TIP3    H265084   4.356   1.146  12.324  0.2105 -0.3709  0.5315
14557TIP3   OH265085   1.398   6.766  16.709  0.3523  0.2611  0.6750
14557TIP3    H165086   1.422   6.816  16.630  0.1313  0.5002  0.7585
14557TIP3    H265087   1.475   6.712  16.726  0.1036 -0.3723 -0.1550
14558TIP3   OH265088   1.419   5.696   3.205 -0.6275 -0.2453 -0.0711
14558TIP3    H165089   1.477   5.655   3.269  0.1248  0.1108 -0.5150
14558TIP3    H265090   1.377   5.767   3.253  0.2178  0.2574 -0.0657
14559TIP3   OH265091   4.163   1.187  13.946  0.6328  0.3933  0.3242
14559TIP3    H165092   4.236   1.131  13.974  0.6605  0.5399  0.5435
14559TIP3    H265093   4.193   1.227  13.865  0.5165 -0.1043  0.0337
14560TIP3   OH265094   2.839   1.206   0.035 -0.0883  0.0662 -0.5730
14560TIP3    H165095   2.907   1.264   0.068 -0.7608  1.1425 -1.0499
14560TIP3    H265096   2.790   1.179   0.113  0.7438 -0.5332 -0.2560
14561TIP3   OH265097   1.642   0.646  16.746 -0.0256 -0.4374 -0.4360
14561TIP3    H165098   1.553   0.627  16.718  0.1564 -0.9053 -0.6953
14561TIP3    H265099   1.697   0.624  16.671  0.2105  0.9597 -0.6900
14562TIP3   OH265100   3.530   5.118  14.299  0.2593 -0.1796  0.4447
14562TIP3    H165101   3.437   5.131  14.283  0.2987 -0.6903 -0.2387
14562TIP3    H265102   3.535   5.077  14.386 -0.1493 -0.1600  0.4740
14563TIP3   OH265103   6.727   6.744  14.378 -0.4151 -0.1707  0.4874
14563TIP3    H165104   6.671   6.672  14.404 -1.9739  1.4134  1.6283
14563TIP3    H265105   6.804   6.738  14.435 -0.1215 -1.4341 -0.0335
14564TIP3   OH265106   4.752   1.218  11.259 -0.0684 -0.1762 -0.2682
14564TIP3    H165107   4.686   1.238  11.193 -1.3104 -1.5916  0.5124
14564TIP3    H265108   4.716   1.253  11.340 -0.1838 -1.5775  0.2902
14565TIP3   OH265109   3.722   0.326   1.600  0.0781  0.3725  0.0777
14565TIP3    H165110   3.761   0.358   1.519  1.3715 -2.3255 -0.4092
14565TIP3    H265111   3.686   0.405   1.642  1.5221  2.1502 -1.9249
14566TIP3   OH265112   0.616   0.121   2.414 -0.5509  0.1678  0.2423
14566TIP3    H165113   0.695   0.093   2.368  0.1897  1.7271  0.5261
14566TIP3    H265114   0.558   0.152   2.345 -0.4231  0.1481  0.1251
14567TIP3   OH265115   1.362   3.439  14.167  0.3167 -0.1829 -0.2788
14567TIP3    H165116   1.313   3.470  14.243  0.8551  0.3800 -0.1602
14567TIP3    H265117   1.363   3.513  14.107 -0.4982 -0.7721 -1.0337
14568TIP3   OH265118   4.952   4.112   4.672 -0.2102  0.0183 -0.0900
14568TIP3    H165119   4.998   4.067   4.742 -0.4471  0.8307  0.5896
14568TIP3    H265120   4.859   4.098   4.691 -0.2786  0.3984 -0.1305
14569TIP3   OH265121   1.003   1.187   1.626 -0.1619 -0.0487  0.3130
14569TIP3    H165122   0.958   1.105   1.641  0.6226 -0.4586  0.4561
14569TIP3    H265123   0.966   1.248   1.690  0.1072 -0.6162  1.0061
14570TIP3   OH265124   5.373   0.669  10.611 -0.3324  0.3067  0.2353
14570TIP3    H165125   5.320   0.726  10.667 -2.3846 -1.1351 -0.1812
14570TIP3    H265126   5.332   0.674  10.525 -1.5085 -2.9637  0.5382
14571TIP3   OH265127   4.089   6.582   1.480  0.6693  0.2042 -0.2081
14571TIP3    H165128   4.162   6.629   1.521  1.2117 -0.0908 -0.8113
14571TIP3    H265129   4.042   6.649   1.431  0.2907  0.4713  0.5058
14572TIP3   OH265130   6.725   6.478   6.323  0.0787  0.2382  0.1467
14572TIP3    H165131   6.648   6.500   6.270  0.8736  1.6391 -0.4447
14572TIP3    H265132   6.689   6.454   6.408 -1.0066  1.0328 -0.0775
14573TIP3   OH265133   2.079   3.457  12.671  0.5808  0.1998 -0.0889
14573TIP3    H165134   2.061   3.471  12.764  0.2526 -2.4680  0.2883
14573TIP3    H265135   2.168   3.488  12.658  0.7401  0.2686  1.1808
14574TIP3   OH265136   4.573   6.135  12.031  0.1672  0.0725  0.1743
14574TIP3    H165137   4.503   6.199  12.039  0.8229  0.6939  0.9349
14574TIP3    H265138   4.648   6.185  11.999  0.8414 -0.2062  1.3035
14575TIP3   OH265139   4.201   6.244   1.669 -0.0766 -0.2576  0.2322
14575TIP3    H165140   4.129   6.302   1.694  0.4859  0.1393  0.9499
14575TIP3    H265141   4.253   6.296   1.608  0.2714 -0.1072  0.6565
14576TIP3   OH265142   5.177   3.055   2.413  0.0505  0.1838 -0.5600
14576TIP3    H165143   5.263   3.016   2.399 -0.9649 -1.2762 -3.0669
14576TIP3    H265144   5.123   2.983   2.446 -0.6981  0.5997 -0.8700
14577TIP3   OH265145   0.557   0.643   1.992 -0.4598  0.4653  0.3648
14577TIP3    H165146   0.547   0.578   2.061 -0.8141  0.4568  0.3062
14577TIP3    H265147   0.549   0.594   1.910  2.9812 -0.0217  0.2700
14578TIP3   OH265148   6.397   1.913  11.423  0.3170  0.2945 -0.2767
14578TIP3    H165149   6.422   1.949  11.508 -0.3455  1.0764 -0.4210
14578TIP3    H265150   6.340   1.839  11.444 -2.6461  2.5739 -0.1141
14579TIP3   OH265151   0.930   5.861   2.414  0.2460 -0.1139 -1.0546
14579TIP3    H165152   0.938   5.952   2.443 -0.2284  0.1043 -1.5977
14579TIP3    H265153   0.947   5.810   2.493 -0.2225  0.4622 -0.5679
14580TIP3   OH265154   1.122   2.936  11.285 -0.2549 -0.2574 -0.1003
14580TIP3    H165155   1.217   2.946  11.277 -0.4048  2.0815  0.6657
14580TIP3    H265156   1.111   2.851  11.327  1.6535  0.8474  2.8166
14581TIP3   OH265157   6.172   4.421   3.112  0.2288  0.2067  0.1035
14581TIP3    H165158   6.077   4.427   3.108  0.3789  3.3430  0.0910
14581TIP3    H265159   6.203   4.483   3.045  2.2697 -0.5462  0.3098
14582TIP3   OH265160   6.239   5.173   5.745  0.2672  0.7816 -0.0481
14582TIP3    H165161   6.186   5.185   5.823  1.3988  0.9197  0.7129
14582TIP3    H265162   6.257   5.079   5.743 -0.0946  0.7170 -0.3701
14583TIP3   OH265163   3.294   2.743   3.145 -0.1637 -0.4953  0.1954
14583TIP3    H165164   3.271   2.816   3.089  1.6440 -0.0260  0.0370
14583TIP3    H265165   3.353   2.689   3.092 -1.3567 -2.0198  0.3491
14584TIP3   OH265166   3.026   4.622   2.517  0.5901 -0.4370 -0.1955
14584TIP3    H165167   3.072   4.647   2.597  0.2604  0.6141 -0.3373
14584TIP3    H265168   3.093   4.577   2.465  1.1507  0.0323  0.1110
14585TIP3   OH265169   1.788   2.667   6.697 -0.4224  0.6872 -0.1598
14585TIP3    H165170   1.779   2.627   6.611 -1.3747  0.5497 -0.0104
14585TIP3    H265171   1.867   2.720   6.692 -1.7129  2.4874 -1.8294
14586TIP3   OH265172   1.306   0.833   5.157 -0.8426 -0.2235  0.1442
14586TIP3    H165173   1.296   0.738   5.154 -0.5803 -0.2703  0.7862
14586TIP3    H265174   1.302   0.860   5.065 -1.0738 -0.8373 -0.0266
14587TIP3   OH265175   4.506   2.560   4.333  0.3404  0.4897 -0.2497
14587TIP3    H165176   4.486   2.469   4.310  1.6023  0.7014 -2.2820
14587TIP3    H265177   4.490   2.609   4.253 -1.1003  2.2190  1.0382
14588TIP3   OH265178   4.374   5.006  15.319 -0.3232  0.2063 -0.6861
14588TIP3    H165179   4.407   5.008  15.409 -0.6263 -0.2720 -0.5668
14588TIP3    H265180   4.452   4.987  15.266 -0.1646  0.3812 -0.5169
14589TIP3   OH265181   1.210   3.197  12.849 -0.2848  0.9226  0.3327
14589TIP3    H165182   1.297   3.160  12.839 -0.0051  0.6362  3.3222
14589TIP3    H265183   1.224   3.292  12.849 -0.1010  0.8961 -0.1304
14590TIP3   OH265184   6.097   5.625  12.460 -0.4856  0.1116  0.0551
14590TIP3    H165185   6.143   5.549  12.425  1.0228  1.5468 -1.1180
14590TIP3    H265186   6.071   5.598  12.548  1.4991 -1.1729  0.2784
14591TIP3   OH265187   1.012   1.009   1.220  0.5038 -0.2575 -0.0001
14591TIP3    H165188   0.928   0.993   1.178  1.4556 -1.6955 -1.4228
14591TIP3    H265189   1.048   1.084   1.172 -0.1060  0.5768  0.8359
14592TIP3   OH265190   4.196   4.756   6.269 -0.0052  0.1430  0.0742
14592TIP3    H165191   4.188   4.793   6.182 -1.3926 -0.2654  0.0177
14592TIP3    H265192   4.109   4.764   6.308  0.4507 -0.1867  1.2157
14593TIP3   OH265193   4.195   4.164  12.400 -0.5797 -0.3215  0.3761
14593TIP3    H165194   4.122   4.202  12.448 -0.9957 -1.4903  0.6994
14593TIP3    H265195   4.162   4.152  12.311 -0.8260 -0.9329  0.5445
14594TIP3   OH265196   5.953   4.170   3.084  0.6899  0.0295  0.2185
14594TIP3    H165197   5.999   4.108   3.140 -1.0991 -0.7317  0.8919
14594TIP3    H265198   5.945   4.249   3.137  0.6257 -0.0708  0.3583
14595TIP3   OH265199   6.421   3.007   2.022  0.3605 -0.4539 -0.1256
14595TIP3    H165200   6.501   3.057   2.011  0.0699  0.2283  0.7343
14595TIP3    H265201   6.388   3.034   2.108 -1.5977  0.4519 -1.1153
14596TIP3   OH265202   0.865   0.993   1.764  0.3150  0.2881 -0.4222
14596TIP3    H165203   0.791   1.007   1.706  0.9157 -0.1034 -1.2932
14596TIP3    H265204   0.827   0.951   1.841 -0.5686  1.3012 -0.2825
14597TIP3   OH265205   5.972   2.182   0.182 -0.4936 -0.5396  0.0861
14597TIP3    H165206   6.040   2.116   0.167  0.4046  0.1040  1.2278
14597TIP3    H265207   5.909   2.168   0.111  0.5960 -1.4445 -0.7273
14598TIP3   OH265208   3.571   4.665   4.692  0.7384  0.2523 -0.6563
14598TIP3    H165209   3.600   4.618   4.770 -2.1779 -0.8367 -0.1694
14598TIP3    H265210   3.546   4.595   4.631 -2.0478  1.0693 -0.5389
14599TIP3   OH265211   2.871   1.785   3.983 -0.7146  0.2436  0.9151
14599TIP3    H165212   2.836   1.706   4.024 -0.3730 -1.0944 -1.2961
14599TIP3    H265213   2.964   1.784   4.006 -0.0756 -1.6275 -1.5090
14600TIP3   OH265214   3.687   6.390  16.007  0.2496 -0.0654 -0.0055
14600TIP3    H165215   3.609   6.420  15.960 -0.2669  1.2477  1.6255
14600TIP3    H265216   3.660   6.307  16.046  0.5415 -0.9436 -1.6382
14601TIP3   OH265217   5.195   0.796  15.190 -0.4120  0.0626 -0.2345
14601TIP3    H165218   5.155   0.875  15.224  0.2950  0.5743 -0.5866
14601TIP3    H265219   5.144   0.725  15.229  0.3650  0.6173  1.8648
14602TIP3   OH265220   6.607   1.021   2.356  0.6759 -0.1219  0.4691
14602TIP3    H165221   6.521   0.981   2.360  0.0561  1.2472  1.3658
14602TIP3    H265222   6.668   0.948   2.344 -0.6200 -1.0636 -0.3945
14603TIP3   OH265223   5.860   3.698  15.140  0.0522 -0.0239 -0.4736
14603TIP3    H165224   5.846   3.759  15.212  1.7388 -1.8124  1.4431
14603TIP3    H265225   5.944   3.725  15.101 -0.1799  0.0945 -0.8968
14604TIP3   OH265226   4.410   1.991  11.093 -0.0422  0.0369  0.1400
14604TIP3    H165227   4.382   1.900  11.097  0.0224  0.0615  1.2388
14604TIP3    H265228   4.394   2.017  11.002  0.0087 -1.0871 -0.1917
14605TIP3   OH265229   0.565   2.034   4.173  0.6451 -0.0737  0.6294
14605TIP3    H165230   0.633   2.078   4.122  0.8519  1.3532  2.0767
14605TIP3    H265231   0.606   1.953   4.203  0.6626 -0.7017 -1.0795
14606TIP3   OH265232   2.624   2.969  14.966  0.1785  0.3233  0.0737
14606TIP3    H165233   2.673   3.031  14.912 -0.6282  0.8338 -0.0794
14606TIP3    H265234   2.542   3.014  14.986  0.1778 -0.1377  1.1515
14607TIP3   OH265235   5.673   0.420  13.959 -0.0754 -0.1850  0.2222
14607TIP3    H165236   5.584   0.394  13.936 -0.1728 -0.0006  0.3875
14607TIP3    H265237   5.698   0.481  13.889 -0.3266  0.2820  0.5342
14608TIP3   OH265238   1.486   5.144  14.902  0.0795  0.0337 -0.6502
14608TIP3    H165239   1.475   5.207  14.973  0.4403 -1.8299  1.1073
14608TIP3    H265240   1.579   5.149  14.880 -0.1654  1.0969 -1.4667
14609TIP3   OH265241   3.589   1.295   4.355  0.7149 -0.2609  0.6026
14609TIP3    H165242   3.635   1.293   4.271 -0.5406  0.3264 -0.1178
14609TIP3    H265243   3.630   1.368   4.403 -0.9713  1.7722 -0.9430
14610TIP3   OH265244   5.908   5.683   5.448 -0.1238 -0.2176 -0.0729
14610TIP3    H165245   5.888   5.622   5.519  1.7168  0.9095  1.4490
14610TIP3    H265246   5.852   5.654   5.376 -3.1145 -0.5170  2.2371
14611TIP3   OH265247   0.131   0.488  11.222  0.2416 -0.0080 -0.7204
14611TIP3    H165248   0.086   0.429  11.282  2.1121  0.6646  1.4581
14611TIP3    H265249   0.105   0.576  11.251  0.6726  0.3164 -1.2913
14612TIP3   OH265250   4.389   3.905  14.256  0.1134 -0.2703 -0.2686
14612TIP3    H165251   4.394   3.856  14.174 -1.2616 -1.3660  0.2976
14612TIP3    H265252   4.314   3.964  14.244 -0.1168 -0.4650  0.2283
14613TIP3   OH265253   5.837   1.271   4.032 -0.0659  0.0590  0.5314
14613TIP3    H165254   5.865   1.181   4.016  0.1550  0.3538 -0.7692
14613TIP3    H265255   5.786   1.266   4.113 -1.0164 -1.4260 -0.1367
14614TIP3   OH265256   5.030   4.192  16.584 -0.6106 -1.0153 -0.6102
14614TIP3    H165257   4.963   4.252  16.551  0.2270 -0.0213 -0.5272
14614TIP3    H265258   4.980   4.118  16.620 -1.7002  0.1487  0.3103
14615TIP3   OH265259   3.899   6.716   1.920  0.0810 -0.5896 -0.2118
14615TIP3    H165260   3.913   6.810   1.912  0.9208 -0.7422 -0.6167
14615TIP3    H265261   3.985   6.678   1.904 -0.4138 -1.4621 -0.8053
14616TIP3   OH265262   6.422   3.554   1.219  0.0368 -0.9123 -0.5189
14616TIP3    H165263   6.335   3.515   1.216 -0.2167 -0.4863  0.8550
14616TIP3    H265264   6.415   3.632   1.164  0.3098 -2.3146 -2.5717
14617TIP3   OH265265   5.631   3.032  13.840 -0.2278  0.0310  0.1458
14617TIP3    H165266   5.577   3.105  13.870 -0.4446 -0.1933  0.3028
14617TIP3    H265267   5.721   3.064  13.850 -0.3438  0.6751 -0.8033
14618TIP3   OH265268   3.097   6.285   4.155 -0.7868  0.0589  0.3383
14618TIP3    H165269   3.189   6.313   4.159 -0.4106 -0.9029 -1.0838
14618TIP3    H265270   3.089   6.220   4.225 -0.4494  0.3299  0.6304
14619TIP3   OH265271   4.582   2.129   2.652 -0.3325 -0.4035  0.2342
14619TIP3    H165272   4.533   2.121   2.735  0.0639 -0.8881  0.4253
14619TIP3    H265273   4.518   2.108   2.585 -0.6090 -0.1985  0.4303
14620TIP3   OH265274   1.672   4.267  16.865 -0.0721 -0.8582  0.0774
14620TIP3    H165275   1.622   4.235  16.790 -1.4091 -0.5102  0.8228
14620TIP3    H265276   1.609   4.316  16.917  1.1492 -0.0258  0.7863
14621TIP3   OH265277   6.337   2.070   1.335 -0.0127 -0.3646 -0.0866
14621TIP3    H165278   6.248   2.090   1.305 -0.1311 -1.2316 -0.3428
14621TIP3    H265279   6.326   1.992   1.390  0.8205 -1.5917 -1.5986
14622TIP3   OH265280   5.239   0.189  14.460 -0.7672  0.7388 -0.2708
14622TIP3    H165281   5.211   0.219  14.546  0.3845 -0.8882  0.6835
14622TIP3    H265282   5.170   0.131  14.430 -0.8334  0.7532 -0.1417
14623TIP3   OH265283   6.135   3.295   5.646 -0.4488  0.0634 -0.5984
14623TIP3    H165284   6.101   3.293   5.556 -0.0989  2.9375 -0.8550
14623TIP3    H265285   6.202   3.227   5.647 -1.5604 -1.1179 -2.0278
14624TIP3   OH265286   1.822   2.814   2.559  0.0850 -0.0805 -0.1132
14624TIP3    H165287   1.796   2.875   2.491 -0.0927 -0.8044 -0.7024
14624TIP3    H265288   1.871   2.867   2.622 -2.0577  1.1241  0.5657
14625TIP3   OH265289   4.187   3.466  12.942 -0.5417 -0.2187  0.1976
14625TIP3    H165290   4.230   3.548  12.917 -2.0001  0.5886  0.2897
14625TIP3    H265291   4.259   3.406  12.960  0.5671  0.3382 -2.1318
14626TIP3   OH265292   0.458   4.649  10.656 -0.1345 -0.0115  0.3303
14626TIP3    H165293   0.454   4.568  10.605 -0.2509 -0.3321  0.8413
14626TIP3    H265294   0.483   4.620  10.744  1.4011  0.6790  0.1369
14627TIP3   OH265295   4.282   6.685   4.029 -0.5002 -0.0706  0.0261
14627TIP3    H165296   4.222   6.709   3.958 -1.0766  3.1534  1.5444
14627TIP3    H265297   4.340   6.760   4.038 -0.0833 -0.6612  2.6015
14628TIP3   OH265298   5.313   0.632  12.073 -0.3166  0.0069 -0.0392
14628TIP3    H165299   5.304   0.676  11.988 -1.0874  0.6211  0.3650
14628TIP3    H265300   5.258   0.682  12.133  1.4449  0.5061  1.1864
14629TIP3   OH265301   6.005   4.731  15.439  0.5656  0.1180  0.2969
14629TIP3    H165302   5.977   4.815  15.477  0.2602  0.7047 -1.2034
14629TIP3    H265303   5.925   4.692  15.406  0.8120 -0.4411  0.3654
14630TIP3   OH265304   1.576   2.860  16.834  0.3495 -0.2418 -0.3063
14630TIP3    H165305   1.589   2.765  16.836  0.2918 -0.3200 -2.4982
14630TIP3    H265306   1.656   2.894  16.793 -0.0849  0.5588 -0.5108
14631TIP3   OH265307   0.887   1.203   4.142 -0.8370  0.0766 -0.4647
14631TIP3    H165308   0.848   1.131   4.191  2.3416 -1.0916  0.5101
14631TIP3    H265309   0.946   1.160   4.079 -0.4470  1.7597 -1.2929
14632TIP3   OH265310   5.990   0.287   5.055  0.0252 -0.3624  0.1284
14632TIP3    H165311   5.908   0.318   5.017 -0.5628 -1.7554  0.2098
14632TIP3    H265312   5.969   0.269   5.147 -0.0197 -2.2288 -0.2250
14633TIP3   OH265313   2.427   2.266   4.871 -0.4905 -0.3611 -0.1929
14633TIP3    H165314   2.398   2.268   4.780 -1.4453 -0.5814  0.1008
14633TIP3    H265315   2.350   2.291   4.922  0.6624  2.1683  0.4182
14634TIP3   OH265316   0.244   2.211  14.008  0.5047 -0.5541  0.0413
14634TIP3    H165317   0.337   2.217  13.987  0.6348 -0.1044  0.7560
14634TIP3    H265318   0.205   2.168  13.931  0.9339  1.3481 -1.2793
14635TIP3   OH265319   4.493   3.093  15.673  0.0326 -0.2518 -0.3189
14635TIP3    H165320   4.531   3.171  15.712  0.6036 -0.1716 -1.0191
14635TIP3    H265321   4.427   3.063  15.736 -0.3590  0.9248 -0.1703
14636TIP3   OH265322   0.712   3.974  16.177 -0.3472  0.1201 -0.2457
14636TIP3    H165323   0.733   3.926  16.097  1.6295  0.9690 -0.2899
14636TIP3    H265324   0.648   4.040  16.150 -0.3637 -0.1787 -0.9422
14637TIP3   OH265325   3.765   1.175  12.508  0.3434  0.0340  0.1614
14637TIP3    H165326   3.723   1.261  12.502  1.0884  0.4427  0.7716
14637TIP3    H265327   3.803   1.161  12.421  2.4623  1.4859  0.8329
14638TIP3   OH265328   5.095   3.899  16.114 -0.3120 -0.3192  0.1065
14638TIP3    H165329   5.131   3.982  16.145  1.7668 -1.1524 -0.0197
14638TIP3    H265330   5.003   3.901  16.141 -0.0337  1.5825  0.9698
14639TIP3   OH265331   0.207   4.324   0.312 -0.4186 -0.4781 -0.8341
14639TIP3    H165332   0.202   4.287   0.400 -1.1848  1.9540  0.2053
14639TIP3    H265333   0.190   4.250   0.254 -0.5380 -1.9996  1.0830
14640TIP3   OH265334   0.413   5.236  12.803 -0.2712 -0.0204  0.1015
14640TIP3    H165335   0.418   5.206  12.713 -0.4620 -0.4268  0.2241
14640TIP3    H265336   0.489   5.292  12.815 -0.7996  0.8593 -0.6215
14641TIP3   OH265337   0.688   2.132  11.869 -0.5222 -0.0707 -0.0679
14641TIP3    H165338   0.734   2.084  11.938 -1.0053 -0.4736 -0.0204
14641TIP3    H265339   0.639   2.065  11.821  0.6658  0.0681 -1.4878
14642TIP3   OH265340   4.478   3.224   1.131  0.2558 -1.0456 -0.0295
14642TIP3    H165341   4.572   3.210   1.127  0.3333 -0.4622 -0.2411
14642TIP3    H265342   4.441   3.136   1.137  0.7652 -1.3153 -0.8459
14643TIP3   OH265343   4.773   5.630  15.065 -0.0998 -0.5217 -1.0557
14643TIP3    H165344   4.714   5.601  14.996 -0.0724 -1.2851 -0.7651
14643TIP3    H265345   4.854   5.580  15.050  0.8448  1.2593 -2.0653
14644TIP3   OH265346   5.295   0.858   3.180  0.3573  0.2488 -0.6382
14644TIP3    H165347   5.206   0.890   3.170  0.6816  1.3787  0.0518
14644TIP3    H265348   5.306   0.844   3.274  0.2887 -1.7324 -0.8989
14645TIP3   OH265349   2.869   1.921  12.536 -0.0947  0.3873 -0.6152
14645TIP3    H165350   2.961   1.895  12.526 -0.5197 -1.2075 -0.4912
14645TIP3    H265351   2.842   1.949  12.449  0.2643  0.0451 -0.8363
14646TIP3   OH265352   1.035   5.551  14.606 -0.2035  0.2937 -0.1254
14646TIP3    H165353   0.950   5.508  14.618  0.2131 -0.8791 -1.3883
14646TIP3    H265354   1.049   5.598  14.689 -1.2921 -0.8804  0.7477
14647TIP3   OH265355   1.958   3.030  12.217 -0.1194 -0.0568  0.2971
14647TIP3    H165356   1.986   2.948  12.175 -2.6983  0.3606 -2.3873
14647TIP3    H265357   1.871   3.047  12.182 -0.4087  2.8978  2.2467
14648TIP3   OH265358   1.009   6.231   3.252  0.1711 -0.5687 -0.0722
14648TIP3    H165359   0.996   6.227   3.347  0.0590 -0.7467 -0.0964
14648TIP3    H265360   1.018   6.140   3.225 -0.5432 -0.5602 -0.3415
14649TIP3   OH265361   1.075   6.649   5.463 -0.0851  0.1832  0.8671
14649TIP3    H165362   1.035   6.570   5.500 -0.9120 -0.7161 -1.8202
14649TIP3    H265363   1.062   6.640   5.369  0.8354  2.9999  0.4358
14650TIP3   OH265364   3.682   4.040  14.330  0.1131  0.1129  0.7320
14650TIP3    H165365   3.757   4.041  14.388 -0.1573 -0.4539  1.0948
14650TIP3    H265366   3.646   4.129  14.335 -0.2429 -0.0937  1.8678
14651TIP3   OH265367   5.593   5.111  11.063 -0.1866  0.1507  0.2170
14651TIP3    H165368   5.506   5.150  11.050  0.0981  0.5852 -0.3947
14651TIP3    H265369   5.654   5.178  11.033  0.2992 -0.7718 -0.9092
14652TIP3   OH265370   3.290   6.569  17.059 -0.8292 -0.5458  0.1950
14652TIP3    H165371   3.308   6.663  17.059 -1.3070 -0.4513  0.3658
14652TIP3    H265372   3.313   6.541  17.148  0.7393 -0.8748 -0.3000
14653TIP3   OH265373   6.642   3.347   3.769  0.0105  0.0104  0.2648
14653TIP3    H165374   6.659   3.383   3.682  1.1717  0.6368  0.7277
14653TIP3    H265375   6.708   3.388   3.825 -0.6741 -0.4337  1.4306
14654TIP3   OH265376   3.582   2.484   4.809  0.0457 -0.7182  0.1163
14654TIP3    H165377   3.612   2.565   4.850  0.2911 -1.3525  1.2161
14654TIP3    H265378   3.661   2.433   4.796  0.1608  0.0472 -2.5074
14655TIP3   OH265379   6.188   4.010  11.720  0.2476 -0.7082 -0.2942
14655TIP3    H165380   6.253   3.956  11.675  0.7725  0.4774 -1.0128
14655TIP3    H265381   6.226   4.025  11.807 -0.8755 -3.1972  0.6744
14656TIP3   OH265382   4.222   5.923  12.627  0.1365 -0.3425  0.2451
14656TIP3    H165383   4.165   5.997  12.648  1.4142  0.1181  2.2665
14656TIP3    H265384   4.280   5.956  12.558  1.2010  0.8065  1.6725
14657TIP3   OH265385   5.485   2.475   0.650  0.2702 -0.0981  0.5372
14657TIP3    H165386   5.573   2.476   0.612 -0.5968  0.5647 -1.5530
14657TIP3    H265387   5.452   2.387   0.632 -0.0048  0.0990  0.0671
14658TIP3   OH265388   1.936   3.607   2.461  0.0947 -0.4340  0.1826
14658TIP3    H165389   1.858   3.551   2.462  0.5095 -1.0257 -0.1913
14658TIP3    H265390   2.008   3.548   2.438  0.4607  0.3606 -0.7329
14659TIP3   OH265391   3.612   5.406   0.913  0.3126  0.2751 -0.4892
14659TIP3    H165392   3.687   5.384   0.968  0.1014  2.4036  0.7141
14659TIP3    H265393   3.549   5.446   0.973 -2.2339 -2.3656 -1.2837
14660TIP3   OH265394   0.201   3.359   6.480 -0.8092 -0.1287 -0.1978
14660TIP3    H165395   0.183   3.266   6.492 -0.6239 -0.2564 -0.9167
14660TIP3    H265396   0.194   3.374   6.386 -0.3197  0.4742 -0.1465
14661TIP3   OH265397   6.782   5.984   1.087  0.0652 -0.3680 -0.1653
14661TIP3    H165398   6.830   5.917   1.135  1.3473  0.8162  0.2476
14661TIP3    H265399   6.828   6.065   1.107 -1.2565  0.5921 -0.9273
14662TIP3   OH265400   3.624   3.144  14.260 -0.6174 -0.3134  0.4642
14662TIP3    H165401   3.605   3.184  14.175  2.0877  0.2810  0.0926
14662TIP3    H265402   3.661   3.058  14.239  0.5803  0.0598  1.0006
14663TIP3   OH265403   3.570   2.228   1.737 -0.0951  0.4123  0.2685
14663TIP3    H165404   3.568   2.154   1.676 -0.7041 -0.7857  1.7152
14663TIP3    H265405   3.507   2.290   1.701  0.7293  0.4185 -1.1871
14664TIP3   OH265406   3.964   6.217   2.704  0.0968  0.0680  0.3487
14664TIP3    H165407   4.045   6.213   2.755  1.1946 -0.6452 -1.3927
14664TIP3    H265408   3.919   6.135   2.724 -0.1059  0.3881  1.1908
14665TIP3   OH265409   0.733   6.648   0.622  0.3079  0.4274  0.1946
14665TIP3    H165410   0.756   6.723   0.567  0.7118  0.1474 -0.0232
14665TIP3    H265411   0.648   6.620   0.589  0.2393  0.6765  0.1555
14666TIP3   OH265412   2.884   2.222  16.206  0.0872 -0.0921 -0.3138
14666TIP3    H165413   2.915   2.175  16.284 -1.8499 -1.4298 -0.3077
14666TIP3    H265414   2.835   2.296  16.241 -1.4473 -1.1251 -0.2003
14667TIP3   OH265415   4.669   4.579   4.059  0.2960  0.4665 -0.6888
14667TIP3    H165416   4.652   4.493   4.020  1.8849 -1.0295  1.8688
14667TIP3    H265417   4.761   4.596   4.042  0.4424  0.8321  0.4261
14668TIP3   OH265418   4.870   0.406   2.842  0.0905  0.1755  0.0234
14668TIP3    H165419   4.859   0.366   2.756  1.6494 -0.9965  0.3386
14668TIP3    H265420   4.964   0.400   2.859 -0.2430  0.1169  1.9493
14669TIP3   OH265421   3.027   6.718   4.115  0.4715  0.1092 -0.2776
14669TIP3    H165422   2.957   6.653   4.124 -0.7284  1.6037  1.5543
14669TIP3    H265423   3.094   6.674   4.062 -1.2507 -1.8361 -0.8975
14670TIP3   OH265424   4.642   3.094   4.130  0.7191 -0.2286 -0.7123
14670TIP3    H165425   4.605   3.012   4.163  0.7999 -0.1870 -0.5212
14670TIP3    H265426   4.735   3.076   4.120  0.9237  0.1850  0.3850
14671TIP3   OH265427   0.643   1.571  13.120 -0.0094  0.8902  0.6719
14671TIP3    H165428   0.656   1.582  13.214 -0.8908 -0.9872  1.0326
14671TIP3    H265429   0.725   1.535  13.088 -0.0769  0.5166  0.9126
14672TIP3   OH265430   5.431   6.601   5.044 -0.1645  0.5612 -0.0465
14672TIP3    H165431   5.423   6.696   5.035 -0.2073  0.4450 -1.3120
14672TIP3    H265432   5.524   6.586   5.061 -0.3701  0.9170  1.4602
14673TIP3   OH265433   4.413   2.333  11.624  0.1224  0.0441  0.2741
14673TIP3    H165434   4.467   2.410  11.643 -1.4200  1.5993 -1.5048
14673TIP3    H265435   4.343   2.336  11.689 -0.4871  0.6972 -0.4108
14674TIP3   OH265436   3.571   4.360  15.268 -0.4172  0.1304 -0.3269
14674TIP3    H165437   3.612   4.431  15.318 -0.8742  0.3465 -0.2564
14674TIP3    H265438   3.477   4.380  15.270 -0.6840 -1.1055  0.6954
14675TIP3   OH265439   3.897   5.456  15.994  0.2162 -0.6720 -0.1249
14675TIP3    H165440   3.922   5.507  15.917 -2.6599  1.2229  0.1092
14675TIP3    H265441   3.806   5.480  16.010  0.0806 -2.7196  2.5580
14676TIP3   OH265442   3.257   0.803   5.113 -0.1330 -0.4973 -0.2411
14676TIP3    H165443   3.346   0.781   5.138  0.1694  1.4130  0.4798
14676TIP3    H265444   3.253   0.899   5.120 -1.7540 -0.4140 -1.8550
14677TIP3   OH265445   3.813   1.877   5.663 -0.9656  0.1829 -0.5771
14677TIP3    H165446   3.738   1.932   5.641 -1.4632 -0.3724 -0.2775
14677TIP3    H265447   3.868   1.933   5.718 -0.8343  0.8098 -1.3469
14678TIP3   OH265448   3.660   2.321   3.674  0.0701 -0.3908  0.1821
14678TIP3    H165449   3.676   2.327   3.768 -0.1474 -0.8585  0.2541
14678TIP3    H265450   3.658   2.227   3.656 -0.0951 -0.3079 -0.2539
14679TIP3   OH265451   2.260   5.003   1.254 -0.0797 -0.1419 -0.3688
14679TIP3    H165452   2.281   5.095   1.270 -2.8454  0.3512  0.7345
14679TIP3    H265453   2.165   4.998   1.263  0.1578 -3.4080  1.2931
14680TIP3   OH265454   5.162   5.830   2.750 -0.9977  0.4986 -0.0425
14680TIP3    H165455   5.219   5.854   2.824  1.1142  1.4375 -1.9152
14680TIP3    H265456   5.086   5.887   2.759  0.2303  2.1604  0.2063
14681TIP3   OH265457   1.686   2.667   1.621 -0.4554  0.2835 -0.3445
14681TIP3    H165458   1.697   2.584   1.575  0.1791  1.3689 -2.2004
14681TIP3    H265459   1.667   2.730   1.551 -1.6511  1.5705  1.1113
14682TIP3   OH265460   2.191   1.087  15.651 -0.3485  0.6411 -0.0666
14682TIP3    H165461   2.255   1.051  15.712  2.7125  0.1792 -3.3586
14682TIP3    H265462   2.136   1.012  15.627  0.4792  0.1074 -0.3160
14683TIP3   OH265463   5.268   0.176  12.654  0.5066  0.3366  0.2450
14683TIP3    H165464   5.251   0.209  12.742  0.0796  1.3149 -0.2005
14683TIP3    H265465   5.320   0.244  12.612 -2.1938  1.4758 -1.3935
14684TIP3   OH265466   3.081   4.531  12.220  0.3721 -0.0719  0.6846
14684TIP3    H165467   3.130   4.450  12.228 -2.1933 -1.9425 -1.7252
14684TIP3    H265468   3.084   4.554  12.127 -1.0246  1.2159  0.9154
14685TIP3   OH265469   6.214   4.537  15.816 -0.1635  0.6759 -0.8267
14685TIP3    H165470   6.256   4.584  15.888  0.3996 -0.1385 -0.6206
14685TIP3    H265471   6.247   4.447  15.823 -2.2684 -0.0949 -0.3674
14686TIP3   OH265472   1.631   6.070  12.428  0.1185 -0.1102  0.1457
14686TIP3    H165473   1.633   6.001  12.361 -0.8897 -1.4602  1.4687
14686TIP3    H265474   1.556   6.048  12.483  0.0462  1.8214  0.8495
14687TIP3   OH265475   1.848   4.436  15.331 -0.2435 -0.3702 -0.4065
14687TIP3    H165476   1.778   4.490  15.295 -1.1405 -1.6825 -0.6770
14687TIP3    H265477   1.928   4.479  15.302 -0.9283 -0.8184 -3.1462
14688TIP3   OH265478   1.528   0.258  12.019 -0.3658 -0.2656  0.2781
14688TIP3    H165479   1.548   0.329  11.957 -0.4875 -0.6110 -0.1643
14688TIP3    H265480   1.613   0.222  12.043 -0.4264 -2.8733 -2.9498
14689TIP3   OH265481   4.511   1.760   2.057 -0.3918 -0.1935 -0.0409
14689TIP3    H165482   4.571   1.810   2.113 -1.8544  2.5644 -0.8139
14689TIP3    H265483   4.436   1.741   2.114  0.9688 -3.3350  0.8222
14690TIP3   OH265484   5.035   2.980   5.948 -0.1750  0.3461 -0.4121
14690TIP3    H165485   5.019   3.072   5.970 -0.1349  0.5391 -1.1717
14690TIP3    H265486   5.125   2.964   5.977 -0.6494  0.1416  1.0057
14691TIP3   OH265487   3.796   6.707   2.186 -0.0353  0.0240 -0.7103
14691TIP3    H165488   3.844   6.777   2.231  1.8912 -0.8985 -1.2574
14691TIP3    H265489   3.820   6.717   2.094 -0.5897 -0.6965 -0.9376
14692TIP3   OH265490   6.540   1.469  10.426  0.6223  0.0334 -0.7031
14692TIP3    H165491   6.471   1.536  10.424  0.9504  0.3613 -1.3695
14692TIP3    H265492   6.493   1.387  10.441 -0.1298  0.0124 -2.9539
14693TIP3   OH265493   0.618   0.884   3.591 -0.1448 -0.3162  0.4213
14693TIP3    H165494   0.571   0.879   3.675 -0.6997  0.3606  0.1662
14693TIP3    H265495   0.633   0.793   3.566 -1.7478 -0.5614  0.2910
14694TIP3   OH265496   3.484   4.528  12.902 -0.6820  0.0286  0.0077
14694TIP3    H165497   3.407   4.474  12.882  1.5669 -2.9274 -0.9805
14694TIP3    H265498   3.471   4.554  12.993 -2.9487 -0.2147 -0.1981
14695TIP3   OH265499   1.215   1.596   0.162  0.0466  0.7573  0.5263
14695TIP3    H165500   1.125   1.613   0.134  0.5467  3.8793  0.6804
14695TIP3    H265501   1.206   1.529   0.230 -2.1183  0.7522  0.2775
14696TIP3   OH265502   4.411   6.491   1.850  0.0929  0.9945 -0.8771
14696TIP3    H165503   4.350   6.511   1.922  0.2015 -0.2488 -0.4326
14696TIP3    H265504   4.459   6.572   1.837  0.8846  0.8996  1.2432
14697TIP3   OH265505   5.981   4.312   4.494  0.4739  0.2584  0.2780
14697TIP3    H165506   5.934   4.230   4.509 -0.6763  0.7591 -0.5249
14697TIP3    H265507   6.073   4.288   4.503  0.1392 -1.0662  0.3419
14698TIP3   OH265508   0.319   0.179  11.861 -0.6032  0.4345  0.5440
14698TIP3    H165509   0.249   0.139  11.912  0.2040 -0.1650  1.1992
14698TIP3    H265510   0.352   0.250  11.917  1.7117 -1.5737  1.8304
14699TIP3   OH265511   0.870   4.804   2.492  0.1342 -0.0254  0.6560
14699TIP3    H165512   0.911   4.811   2.578  1.4846 -1.3720  0.1428
14699TIP3    H265513   0.783   4.768   2.510 -0.4428  1.8137  1.6443
14700TIP3   OH265514   3.927   5.982   1.637 -0.2894  0.2634 -0.1293
14700TIP3    H165515   3.845   5.960   1.593 -1.0136  3.1113 -0.3003
14700TIP3    H265516   3.992   5.984   1.567 -0.7614  1.3111 -0.5551
14701TIP3   OH265517   4.113   5.854  11.986  0.0614 -0.1515 -0.1787
14701TIP3    H165518   4.193   5.906  11.975 -0.5033  0.7478 -0.1401
14701TIP3    H265519   4.052   5.890  11.921 -0.7885  0.1547  0.7658
14702TIP3   OH265520   3.410   0.840  12.017 -0.1034 -0.4954 -0.0169
14702TIP3    H165521   3.349   0.769  12.037 -0.5367  0.1405  0.9632
14702TIP3    H265522   3.487   0.796  11.981 -1.0323 -1.3247 -1.0208
14703TIP3   OH265523   0.459   0.673   4.286 -0.0357  0.2523  0.0052
14703TIP3    H165524   0.373   0.714   4.295  0.2476  0.9403 -0.3678
14703TIP3    H265525   0.481   0.642   4.374 -0.2480  0.9174  0.2913
14704TIP3   OH265526   1.826   4.511  14.283 -0.0702  0.2342 -0.1729
14704TIP3    H165527   1.766   4.518  14.209  0.0676 -1.7799 -0.4879
14704TIP3    H265528   1.814   4.422  14.316  0.6673  0.7392  1.5506
14705TIP3   OH265529   3.785   4.248   1.991 -0.3957  0.0708 -0.3333
14705TIP3    H165530   3.747   4.281   2.073  0.2200 -0.0026 -0.0115
14705TIP3    H265531   3.866   4.299   1.981 -0.5403  0.1723 -0.9680
14706TIP3   OH265532   2.577   4.839   1.399  0.1851 -0.3513 -0.6577
14706TIP3    H165533   2.626   4.921   1.389  0.8272 -0.6220  0.2419
14706TIP3    H265534   2.578   4.800   1.312  1.0712 -0.0665 -0.7800
14707TIP3   OH265535   1.191   6.237   4.569 -0.0722 -0.5170  0.4752
14707TIP3    H165536   1.176   6.185   4.490 -2.5943 -0.0631  0.6218
14707TIP3    H265537   1.166   6.180   4.641  0.6063 -0.3263  0.8726
14708TIP3   OH265538   1.167   6.336  17.081 -0.0755  0.0960  0.3450
14708TIP3    H165539   1.169   6.431  17.084 -2.5878  0.1512  1.4273
14708TIP3    H265540   1.078   6.313  17.109 -0.5464 -2.4242 -2.9222
14709TIP3   OH265541   1.384   3.394   1.731  0.5183 -0.1865 -0.8332
14709TIP3    H165542   1.334   3.312   1.729 -0.6844  0.4586  1.2629
14709TIP3    H265543   1.349   3.446   1.659 -1.2040 -0.1120  0.0395
14710TIP3   OH265544   3.614   1.321  12.717  0.1078 -0.2080 -0.0000
14710TIP3    H165545   3.630   1.362  12.632 -0.1186  0.4135  0.2544
14710TIP3    H265546   3.571   1.389  12.769  0.9759 -0.3164  0.8795
14711TIP3   OH265547   0.350   0.275  12.686  0.3030 -0.7341  0.6119
14711TIP3    H165548   0.308   0.193  12.662 -1.1925 -0.5267  2.4138
14711TIP3    H265549   0.443   0.253  12.694  0.1569 -1.8596 -0.4942
14712TIP3   OH265550   1.224   3.497   0.672 -0.1184 -0.1495  0.1554
14712TIP3    H165551   1.241   3.427   0.610  1.8775 -0.4862  1.0468
14712TIP3    H265552   1.137   3.529   0.649 -0.4511 -1.9506 -1.1742
14713TIP3   OH265553   1.907   2.317   0.380  0.4894 -0.2055  0.0085
14713TIP3    H165554   1.831   2.289   0.430  0.4602 -1.6189 -0.8079
14713TIP3    H265555   1.871   2.380   0.316 -0.1484 -1.4876 -0.9218
14714TIP3   OH265556   0.066   1.343  16.272  0.0677  0.5953 -0.0987
14714TIP3    H165557   0.023   1.373  16.191  1.3437  2.0322 -0.2888
14714TIP3    H265558   0.159   1.340  16.249  0.3183 -0.1035  0.9877
14715TIP3   OH265559   1.628   0.443   3.304 -0.5945  0.3031  0.4149
14715TIP3    H165560   1.672   0.506   3.361  0.7809 -0.8866  0.6988
14715TIP3    H265561   1.557   0.407   3.357  0.5596 -0.6599  1.3439
14716TIP3   OH265562   2.071   0.694   4.855  0.3253 -0.5557 -0.0114
14716TIP3    H165563   2.059   0.787   4.837 -1.3159 -1.0139 -1.4483
14716TIP3    H265564   2.009   0.650   4.796  0.0240 -2.4829  1.6717
14717TIP3   OH265565   0.567   1.200  13.234 -0.0361  0.3746  1.1844
14717TIP3    H165566   0.565   1.119  13.285  0.3716 -0.9990 -0.8990
14717TIP3    H265567   0.660   1.221  13.229 -0.1483  1.0227  1.7764
14718TIP3   OH265568   0.334   1.708  14.538 -0.4822 -0.0363 -0.3068
14718TIP3    H165569   0.334   1.649  14.463 -0.5873 -1.2008  0.5881
14718TIP3    H265570   0.419   1.695  14.579 -0.4982  0.4488 -0.1169
14719TIP3   OH265571   1.116   4.891  12.737 -0.1572 -0.8451  0.3722
14719TIP3    H165572   1.057   4.941  12.680  2.1247 -0.4836 -1.7960
14719TIP3    H265573   1.108   4.801  12.707  0.4948 -0.7692 -0.0408
14720TIP3   OH265574   4.401   0.215  15.913 -0.0584 -0.4872  0.2294
14720TIP3    H165575   4.449   0.294  15.937  0.6317 -0.9016  0.2291
14720TIP3    H265576   4.370   0.232  15.824  0.9292 -0.6009 -0.1481
14721TIP3   OH265577   3.565   6.100   3.807 -0.2072  0.4335 -0.5090
14721TIP3    H165578   3.567   6.073   3.715 -0.1513 -0.1259 -0.3408
14721TIP3    H265579   3.582   6.194   3.804  1.2359  0.1645 -0.9627
14722TIP3   OH265580   0.652   1.542  12.476  0.2336 -0.0047 -1.0375
14722TIP3    H165581   0.704   1.518  12.553 -2.9115 -1.5680  0.7026
14722TIP3    H265582   0.675   1.477  12.410  1.4591  0.1324 -0.7517
14723TIP3   OH265583   3.427   0.410   2.352 -0.0989 -0.3136  0.1235
14723TIP3    H165584   3.386   0.356   2.420  1.7170 -1.3986  0.4031
14723TIP3    H265585   3.449   0.348   2.283 -0.2599  0.4796 -0.6414
14724TIP3   OH265586   4.001   5.492  16.957 -0.4448  0.6257  0.0049
14724TIP3    H165587   4.004   5.515  17.050  2.9253  0.6434 -0.0641
14724TIP3    H265588   3.963   5.405  16.956  0.4760  0.1819  1.5092
14725TIP3   OH265589   0.955   0.327   5.410 -0.0210  0.2378  0.2137
14725TIP3    H165590   1.027   0.272   5.442 -0.5352  0.3087  1.5181
14725TIP3    H265591   0.997   0.389   5.351  0.9796  0.1965  0.8643
14726TIP3   OH265592   0.578   5.890  15.441  0.0042  0.2748  0.1679
14726TIP3    H165593   0.559   5.974  15.482  3.0738  0.4007  1.4565
14726TIP3    H265594   0.493   5.845  15.439 -0.9476  1.7372  3.2993
14727TIP3   OH265595   5.114   0.339   0.416  0.2276  0.0688  0.5612
14727TIP3    H165596   5.156   0.287   0.484  0.0083 -2.2441 -0.9801
14727TIP3    H265597   5.183   0.397   0.384  1.0489 -0.6529  0.9934
14728TIP3   OH265598   2.739   0.120   2.192  0.3025  0.1105 -0.3944
14728TIP3    H165599   2.704   0.128   2.104 -1.0445  1.7172  0.2696
14728TIP3    H265600   2.663   0.103   2.247  1.2241 -1.7404  0.3803
14729TIP3   OH265601   0.275   1.573   0.894 -0.4552  0.2102 -0.0882
14729TIP3    H165602   0.359   1.527   0.903 -0.7311 -0.4312 -0.7539
14729TIP3    H265603   0.233   1.532   0.818 -1.1331  0.9027 -0.0905
14730TIP3   OH265604   3.001   5.102   1.783 -0.2283 -0.6720 -0.5371
14730TIP3    H165605   2.911   5.119   1.811  0.0809  0.0682  0.0417
14730TIP3    H265606   3.037   5.045   1.850  0.2365  0.3665  0.1014
14731TIP3   OH265607   0.868   5.674  13.858  0.4442  0.2258  0.6060
14731TIP3    H165608   0.847   5.766  13.843 -0.4991  0.1239  1.2424
14731TIP3    H265609   0.907   5.672  13.945  1.5030  0.1646  0.1429
14732TIP3   OH265610   3.107   4.653  13.771 -0.0384  0.1858  0.1872
14732TIP3    H165611   3.087   4.699  13.689 -0.0228 -2.0869 -1.1646
14732TIP3    H265612   3.030   4.667  13.826 -0.6216  0.6826 -0.7309
14733TIP3   OH265613   5.724   5.517  15.713 -0.2364 -0.7337 -0.4309
14733TIP3    H165614   5.811   5.480  15.702 -0.0178 -0.6802  1.1175
14733TIP3    H265615   5.701   5.548  15.625  1.9801  0.7765 -0.5167
14734TIP3   OH265616   3.589   2.035   5.705 -0.0147  0.3286  0.1380
14734TIP3    H165617   3.498   2.034   5.675 -0.0686 -0.0891  0.3233
14734TIP3    H265618   3.583   2.051   5.799  0.1344  1.0700  0.0212
14735TIP3   OH265619   6.284   1.554   1.585  0.3224  1.0126  0.6129
14735TIP3    H165620   6.348   1.528   1.652 -0.9113  1.0766  1.8317
14735TIP3    H265621   6.209   1.497   1.600  1.0087 -0.8094 -2.4285
14736TIP3   OH265622   6.602   2.196  13.669 -0.1644  0.1531 -0.1722
14736TIP3    H165623   6.598   2.285  13.633 -0.2640 -0.2071 -1.0481
14736TIP3    H265624   6.591   2.139  13.594  1.3994 -0.6329  0.1834
14737TIP3   OH265625   4.779   2.242  12.400  0.6497  0.6181 -0.3226
14737TIP3    H165626   4.824   2.314  12.355 -0.1315  1.4611  0.2287
14737TIP3    H265627   4.688   2.250  12.372  0.0255  1.5293  1.8616
14738TIP3   OH265628   1.224   2.866   0.268  0.0128 -0.4359 -0.2775
14738TIP3    H165629   1.206   2.831   0.181  2.7322  1.7663 -1.7781
14738TIP3    H265630   1.247   2.788   0.320 -0.2131 -1.5935 -1.8703
14739TIP3   OH265631   2.032   5.231   4.628  0.7016 -0.2700 -0.3003
14739TIP3    H165632   2.119   5.268   4.616  0.3345  0.7608  0.1109
14739TIP3    H265633   1.973   5.307   4.626  0.0602 -0.6537  1.9156
14740TIP3   OH265634   5.359   3.231   3.312 -0.1162  0.6119 -0.4083
14740TIP3    H165635   5.326   3.187   3.234 -1.1901  0.1021  0.3187
14740TIP3    H265636   5.348   3.166   3.382  1.9908  0.6082 -0.0554
14741TIP3   OH265637   1.133   3.016  12.069  0.0103  0.5874  0.0423
14741TIP3    H165638   1.166   2.957  12.002 -3.1514 -0.5638 -0.6177
14741TIP3    H265639   1.171   2.984  12.151 -0.9245 -1.8585 -0.4361
14742TIP3   OH265640   6.667   3.850   4.266  0.0366 -0.2168 -0.8784
14742TIP3    H165641   6.633   3.938   4.249  1.6625  0.1871 -2.1460
14742TIP3    H265642   6.736   3.838   4.201  2.7930 -0.7542  2.0294
14743TIP3   OH265643   5.581   3.457  13.763 -0.3258  0.5525  0.2247
14743TIP3    H165644   5.644   3.483  13.830 -0.0030  0.9678 -0.2369
14743TIP3    H265645   5.594   3.520  13.692  0.0747 -0.5268 -0.6714
14744TIP3   OH265646   5.638   0.900  15.671  0.1306  0.7753  0.1701
14744TIP3    H165647   5.647   0.806  15.683 -1.2818  0.7572  1.3322
14744TIP3    H265648   5.717   0.927  15.625 -0.3048 -1.2413 -1.8244
14745TIP3   OH265649   4.116   5.766  15.204  0.3491  0.5277  0.9323
14745TIP3    H165650   4.201   5.742  15.241  1.0698  1.4736 -0.0815
14745TIP3    H265651   4.137   5.806  15.120 -1.0684  1.1959  0.8866
14746TIP3   OH265652   4.371   4.321  12.922  0.4949 -0.1298 -0.1042
14746TIP3    H165653   4.388   4.377  12.846  2.4228 -0.8244 -0.2219
14746TIP3    H265654   4.280   4.339  12.945  0.2449  0.9868 -1.8320
14747TIP3   OH265655   3.652   5.989  12.666  0.0140  0.8903 -0.1705
14747TIP3    H165656   3.562   6.011  12.692 -1.4396 -2.1406 -2.2294
14747TIP3    H265657   3.649   5.988  12.571  2.2649  0.7840 -0.2540
14748TIP3   OH265658   1.348   1.882  10.801  0.0742 -0.0471 -0.3818
14748TIP3    H165659   1.274   1.943  10.796  0.7936  0.8178 -0.5062
14748TIP3    H265660   1.425   1.935  10.785  0.9214 -0.5444  1.7930
14749TIP3   OH265661   4.197   1.466   0.041 -0.6784 -0.1029 -0.2933
14749TIP3    H165662   4.179   1.475  -0.053 -0.2070  0.8067 -0.3028
14749TIP3    H265663   4.111   1.444   0.079 -0.7966 -0.8563 -0.9738
14750TIP3   OH265664   1.366   2.398  12.513 -0.1120 -0.0391  0.4896
14750TIP3    H165665   1.445   2.451  12.527  0.7415 -1.6785  1.9999
14750TIP3    H265666   1.312   2.452  12.455  1.7431  1.4777  0.0985
14751TIP3   OH265667   2.574   1.238  16.429 -0.3534 -0.3511  0.2752
14751TIP3    H165668   2.556   1.146  16.448  1.2028 -0.5363  0.8977
14751TIP3    H265669   2.661   1.238  16.390 -0.4591  0.8365  0.0264
14752TIP3   OH265670   0.341   5.423  16.777  0.1849  0.0428  0.2357
14752TIP3    H165671   0.424   5.437  16.822 -0.6266  1.4475  1.3305
14752TIP3    H265672   0.337   5.491  16.710  0.4996 -0.8334 -0.6862
14753TIP3   OH265673   5.420   3.692   0.380  0.1670  0.0458  0.5841
14753TIP3    H165674   5.332   3.659   0.401  0.7784 -1.0852  1.4545
14753TIP3    H265675   5.453   3.727   0.463  0.8192 -0.2272  0.4463
14754TIP3   OH265676   6.026   4.001  13.407 -0.1503 -0.3489  0.1792
14754TIP3    H165677   5.937   4.036  13.409 -0.0076  0.0106  0.3644
14754TIP3    H265678   6.017   3.909  13.430 -0.5194 -0.4072 -0.1957
14755TIP3   OH265679   3.577   5.246  16.882  0.5096 -0.2001  0.5278
14755TIP3    H165680   3.613   5.286  16.962 -0.2914  1.3384  0.1270
14755TIP3    H265681   3.484   5.238  16.899  0.2045  0.8753 -0.5432
14756TIP3   OH265682   6.058   0.483   4.495  0.2152  0.4743 -0.1820
14756TIP3    H165683   6.091   0.436   4.571  0.5851 -0.1853 -0.7437
14756TIP3    H265684   6.046   0.415   4.428  0.8442  1.1883 -1.0290
14757TIP3   OH265685   0.035   2.484   0.239  0.0915  0.3194 -0.3807
14757TIP3    H165686   0.057   2.577   0.231 -0.6994  0.4238 -1.3468
14757TIP3    H265687   0.107   2.447   0.291 -0.5194  1.8257  1.6293
14758TIP3   OH265688   1.702   2.818  11.885 -0.0059  0.1694 -0.0392
14758TIP3    H165689   1.794   2.834  11.862  0.1192 -0.5578 -0.0452
14758TIP3    H265690   1.668   2.765  11.813  0.1759 -1.4640  1.0663
14759TIP3   OH265691   6.480   0.836   0.332 -0.2461  0.4456  0.2200
14759TIP3    H165692   6.400   0.879   0.361  0.1688 -0.1845  2.3477
14759TIP3    H265693   6.510   0.785   0.407  2.3896  1.0104 -0.3707
14760TIP3   OH265694   3.235   5.498   0.945 -0.2678 -0.1335 -0.6149
14760TIP3    H165695   3.315   5.481   0.994 -0.0526  1.8002 -0.2730
14760TIP3    H265696   3.204   5.411   0.920  0.8867 -1.0101  0.9078
14761TIP3   OH265697   6.412   2.927   5.579  0.2596  0.1256 -0.6063
14761TIP3    H165698   6.499   2.959   5.555 -0.5006  1.6569 -1.3673
14761TIP3    H265699   6.384   2.875   5.504 -1.0840  2.8743 -2.0957
14762TIP3   OH265700   0.082   2.264   0.792  0.0268  0.6557  0.2971
14762TIP3    H165701   0.116   2.353   0.779  0.2186  0.4682 -0.5520
14762TIP3    H265702   0.150   2.220   0.843 -1.3994  1.8349  3.3005
14763TIP3   OH265703   6.350   0.288   1.807 -0.0969  0.0826 -0.4606
14763TIP3    H165704   6.386   0.293   1.896 -1.5249  0.3039  0.1137
14763TIP3    H265705   6.393   0.360   1.760  1.5589 -0.7779 -0.2933
14764TIP3   OH265706   0.037   5.444  13.276 -0.2302 -0.0491  0.3961
14764TIP3    H165707   0.072   5.430  13.364 -0.4167 -0.6071  0.3817
14764TIP3    H265708  -0.046   5.490  13.290 -0.3802 -0.3628  0.5194
14765TIP3   OH265709   1.371   1.155  14.174  0.0457 -0.7242 -0.2534
14765TIP3    H165710   1.392   1.199  14.092  1.8066 -0.5178  0.2840
14765TIP3    H265711   1.340   1.068  14.147 -2.7890  0.5479 -1.2730
14766TIP3   OH265712   3.777   0.602   5.493  0.8750 -0.6938 -0.1316
14766TIP3    H165713   3.849   0.605   5.557  1.5771 -0.6580 -0.9073
14766TIP3    H265714   3.752   0.693   5.481  0.2037 -0.7682  0.6882
14767TIP3   OH265715   1.999   6.542  16.681  0.1128  0.4174 -0.3322
14767TIP3    H165716   2.057   6.562  16.608  0.4703 -0.0124 -0.1674
14767TIP3    H265717   1.959   6.458  16.659  0.4030  0.1677  0.0698
14768TIP3   OH265718   1.449   6.498  12.012 -0.0258  0.3587  0.0292
14768TIP3    H165719   1.461   6.591  11.991 -1.5733  0.2190 -1.6368
14768TIP3    H265720   1.418   6.459  11.930 -2.9210 -0.9183  1.6616
14769TIP3   OH265721   2.942   3.056  11.063 -0.1444  0.0745  0.2099
14769TIP3    H165722   2.917   2.985  11.123 -0.8610  0.2463  0.1283
14769TIP3    H265723   2.915   3.024  10.977 -2.2253  1.1990  0.3894
14770TIP3   OH265724   0.910   0.933  11.306  0.2182  0.1367  0.2117
14770TIP3    H165725   0.818   0.956  11.297  0.2125 -0.5652 -1.8313
14770TIP3    H265726   0.956   0.998  11.252  0.6868 -1.1014 -0.9007
14771TIP3   OH265727   5.434   0.929   1.381  0.0469  0.2269 -0.5397
14771TIP3    H165728   5.468   0.870   1.313  2.2669  1.5951 -0.6785
14771TIP3    H265729   5.402   1.005   1.332  0.2049  0.5313 -0.1716
14772TIP3   OH265730   2.699   3.217   3.063 -0.4508 -0.4753  0.0816
14772TIP3    H165731   2.754   3.147   3.029 -0.1032 -0.0442 -0.2386
14772TIP3    H265732   2.635   3.233   2.994  0.1956  0.3345 -0.3249
14773TIP3   OH265733   6.489   6.073  11.362 -0.2158  0.4715  0.0700
14773TIP3    H165734   6.447   6.157  11.343 -2.2368 -0.5161 -0.0360
14773TIP3    H265735   6.463   6.017  11.289  1.5064 -0.1189 -0.0996
14774TIP3   OH265736   4.193   2.189   1.671 -0.5958 -0.6230 -0.3827
14774TIP3    H165737   4.148   2.106   1.690 -0.0260 -1.1216 -1.1819
14774TIP3    H265738   4.279   2.163   1.638  0.1586  0.3202  0.8117
14775TIP3   OH265739   6.630   6.429  12.459 -0.1849 -0.4618  0.3919
14775TIP3    H165740   6.707   6.422  12.515 -0.1128  2.2848  0.7130
14775TIP3    H265741   6.596   6.340  12.454  2.2883 -1.5081  1.2538
14776TIP3   OH265742   3.759   0.911   2.253  0.6576 -0.0939  0.4076
14776TIP3    H165743   3.843   0.922   2.209 -0.1603 -0.1241 -1.2132
14776TIP3    H265744   3.721   0.833   2.212 -0.8049  0.7997  0.0416
14777TIP3   OH265745   4.279   5.782   2.627  0.0681 -0.3622  0.1152
14777TIP3    H165746   4.300   5.689   2.619  0.4033 -0.1962 -0.9482
14777TIP3    H265747   4.364   5.826   2.622 -0.2121  0.0906 -0.7142
14778TIP3   OH265748   0.957   1.366  11.758 -0.2643  0.0906 -0.1917
14778TIP3    H165749   0.994   1.322  11.682 -1.8451  0.1107 -0.9902
14778TIP3    H265750   1.030   1.418  11.793  1.0653 -1.5585 -0.4175
14779TIP3   OH265751   0.610   0.753  16.801 -0.2883  0.6046  0.4524
14779TIP3    H165752   0.628   0.768  16.894  2.3131  1.0715 -0.0883
14779TIP3    H265753   0.680   0.694  16.773 -1.4763 -0.0959 -1.0563
14780TIP3   OH265754   4.575   0.258   5.237 -0.5814  0.5133 -0.2159
14780TIP3    H165755   4.590   0.290   5.148  0.1245  0.7671 -0.0067
14780TIP3    H265756   4.546   0.167   5.225  0.8435  0.1045 -0.6451
14781TIP3   OH265757   5.997   1.231   2.353 -0.2900  0.8527 -0.9716
14781TIP3    H165758   6.016   1.303   2.414 -0.0508  1.7641 -2.1110
14781TIP3    H265759   5.918   1.259   2.307 -0.6743 -0.0004 -0.8462
14782TIP3   OH265760   5.326   6.106  12.382 -0.6502  0.6517  0.0817
14782TIP3    H165761   5.363   6.032  12.431 -1.9893  0.5119  0.9104
14782TIP3    H265762   5.400   6.164  12.367  0.6912 -1.4523 -1.6936
14783TIP3   OH265763   2.591   2.493   4.766 -0.3066  0.1192  0.1178
14783TIP3    H165764   2.496   2.497   4.753 -0.5541 -0.4355  1.6307
14783TIP3    H265765   2.601   2.459   4.855  1.3185  0.0056 -0.1040
14784TIP3   OH265766   5.828   3.799  10.775  0.4758  0.2615 -0.1653
14784TIP3    H165767   5.885   3.788  10.851  0.9233  1.1344 -0.3624
14784TIP3    H265768   5.754   3.740  10.790 -0.2664  1.6598  1.7250
14785TIP3   OH265769   6.617   3.411  11.692  0.0294 -0.1548 -0.1714
14785TIP3    H165770   6.665   3.365  11.623 -0.0034  0.1320 -0.3858
14785TIP3    H265771   6.561   3.473  11.646 -0.7115 -0.6337  0.0736
14786TIP3   OH265772   4.481   0.509   3.554  0.4948 -0.7072  0.5282
14786TIP3    H165773   4.470   0.581   3.617  0.5376 -0.1966 -0.0449
14786TIP3    H265774   4.558   0.461   3.587  0.9867  0.0060  0.4479
14787TIP3   OH265775   4.527   4.696  12.311 -0.3293  0.4729  0.4599
14787TIP3    H165776   4.576   4.613  12.305 -1.0310  0.1999 -2.6176
14787TIP3    H265777   4.448   4.673  12.359 -0.1594 -0.4867  0.3035
14788TIP3   OH265778   5.072   5.686  12.916 -0.3244 -0.1081 -0.0357
14788TIP3    H165779   5.119   5.727  12.988  0.0063 -0.1035 -0.2495
14788TIP3    H265780   5.087   5.592  12.927 -1.5168 -0.2125  0.7579
14789TIP3   OH265781   0.600   0.197  12.681  0.1931  0.3514 -0.0341
14789TIP3    H165782   0.659   0.273  12.684  0.6514 -0.0246  0.5237
14789TIP3    H265783   0.621   0.147  12.760 -1.3346  0.5635  0.5252
14790TIP3   OH265784   1.012   0.853   1.438 -0.1007  0.1598  0.0810
14790TIP3    H165785   1.104   0.856   1.463 -0.3795  0.6584  1.0670
14790TIP3    H265786   1.006   0.915   1.365  0.1084  1.0753  0.8265
14791TIP3   OH265787   1.660   0.967  14.510 -0.4599 -0.2352  0.4851
14791TIP3    H165788   1.671   1.016  14.429 -1.6796  1.2875  1.2281
14791TIP3    H265789   1.739   0.912  14.515 -0.9324 -1.2790 -2.3389
14792TIP3   OH265790   4.321   6.186   0.752  0.0844  0.2253  0.4452
14792TIP3    H165791   4.399   6.239   0.769 -0.8508  1.8666 -0.3859
14792TIP3    H265792   4.294   6.155   0.839  1.1404  0.3592  0.8337
14793TIP3   OH265793   5.314   5.784   2.505  0.0368  0.0244 -0.3611
14793TIP3    H165794   5.275   5.814   2.588 -2.8456  0.6672 -1.8791
14793TIP3    H265795   5.346   5.864   2.463  0.9646 -0.2292 -0.1472
14794TIP3   OH265796   4.509   1.356   2.771  0.2126 -0.0640 -0.4116
14794TIP3    H165797   4.441   1.290   2.762  0.8720 -0.7898 -0.1570
14794TIP3    H265798   4.591   1.306   2.771  0.8207  0.8978 -1.9829
14795TIP3   OH265799   0.292   3.028  14.358 -0.8533 -0.5901  0.0910
14795TIP3    H165800   0.252   3.056  14.276 -1.0458 -0.7802  0.1157
14795TIP3    H265801   0.375   2.988  14.332  0.3401  1.7604  0.2300
14796TIP3   OH265802   0.872   0.510   4.201 -0.2433 -0.3877 -0.6343
14796TIP3    H165803   0.944   0.465   4.245  0.7339  1.3132 -0.4261
14796TIP3    H265804   0.804   0.443   4.190  0.0077 -1.1788  2.2761
14797TIP3   OH265805   5.168   3.857   2.175 -0.8393 -0.3221 -0.2066
14797TIP3    H165806   5.149   3.763   2.183 -2.6218  0.1080  0.7297
14797TIP3    H265807   5.151   3.877   2.083 -0.1059 -0.9726 -0.4970
14798TIP3   OH265808   4.165   2.627   5.137 -0.3063  0.6745  0.0845
14798TIP3    H165809   4.202   2.715   5.143 -1.4231  1.1492  0.0581
14798TIP3    H265810   4.186   2.599   5.047 -0.1477  0.9964  0.0200
14799TIP3   OH265811   4.508   0.792   3.991 -0.0317  0.4863 -0.6292
14799TIP3    H165812   4.562   0.867   3.967  1.0691 -0.2746 -0.5348
14799TIP3    H265813   4.547   0.759   4.071 -1.2039  0.4940 -0.0514
14800TIP3   OH265814   2.968   0.641  16.294  0.5928  0.5536  0.3397
14800TIP3    H165815   2.919   0.664  16.215  1.3529  1.1973  0.0475
14800TIP3    H265816   2.935   0.555  16.319 -0.4948  0.8595 -0.0053
14801TIP3   OH265817   0.179   3.527  11.948  0.1807 -0.2114 -0.3502
14801TIP3    H165818   0.085   3.521  11.962  0.3482 -1.3463  0.4173
14801TIP3    H265819   0.190   3.600  11.887 -1.2255 -0.3900 -0.8449
14802TIP3   OH265820   1.499   5.160  14.123  0.9335  0.2036 -0.2038
14802TIP3    H165821   1.537   5.082  14.082  1.7614  0.6485 -0.2872
14802TIP3    H265822   1.566   5.190  14.184  0.1740  0.2136  0.6412
14803TIP3   OH265823   1.304   4.200  14.047 -0.0261  0.1466  0.4446
14803TIP3    H165824   1.241   4.156  13.989  0.1802  0.6578 -0.1749
14803TIP3    H265825   1.387   4.157  14.028  0.2298  0.9854 -0.3670
14804TIP3   OH265826   3.748   5.091  16.147 -0.2159 -0.5712 -0.1967
14804TIP3    H165827   3.727   5.123  16.059 -0.5634 -0.3584 -0.0378
14804TIP3    H265828   3.714   5.002  16.150 -2.1500  0.1710  0.4571
14805TIP3   OH265829   1.239   0.724  12.079 -0.0836 -0.3720  0.4105
14805TIP3    H165830   1.191   0.798  12.041  2.4426 -0.4553 -3.1968
14805TIP3    H265831   1.286   0.762  12.153  1.2412  1.7002 -1.4470
14806TIP3   OH265832   2.778   4.293   4.860  0.2454  0.1502  0.4350
14806TIP3    H165833   2.731   4.261   4.783  1.2179  0.8369 -0.4458
14806TIP3    H265834   2.714   4.285   4.931 -0.0866 -2.1410 -0.0755
14807TIP3   OH265835   5.357   3.869   6.618 -0.3077  0.0850  0.5509
14807TIP3    H165836   5.284   3.816   6.586  0.7480 -0.9900 -0.1179
14807TIP3    H265837   5.321   3.957   6.627 -0.8687  0.2610 -2.8662
14808TIP3   OH265838   1.044   6.373  11.905 -0.4770 -0.0908 -0.1052
14808TIP3    H165839   1.057   6.397  11.997 -0.3547  2.1409 -0.6693
14808TIP3    H265840   1.128   6.335  11.878 -0.4025 -0.4465  0.6038
14809TIP3   OH265841   2.580   4.273  15.538  0.8766 -0.0877  0.5378
14809TIP3    H165842   2.675   4.278  15.552  1.3661 -2.9534 -1.3492
14809TIP3    H265843   2.568   4.301  15.447  0.3108 -2.6818 -0.2228
14810TIP3   OH265844   1.679   3.900  13.191 -0.3825  0.1892 -0.7828
14810TIP3    H165845   1.634   3.960  13.132 -2.4332  0.7091  1.2268
14810TIP3    H265846   1.643   3.814  13.168 -2.9034  0.6700  1.1844
14811TIP3   OH265847   0.038   6.612  16.241 -0.3605 -0.1074 -0.6516
14811TIP3    H165848   0.052   6.558  16.319 -0.1586  0.2405 -0.4454
14811TIP3    H265849   0.126   6.634  16.211 -0.4406 -0.0831 -0.8721
14812TIP3   OH265850   0.863   1.739  15.174 -0.9407  0.2099 -0.6558
14812TIP3    H165851   0.869   1.650  15.208 -1.1954 -0.2506 -1.7779
14812TIP3    H265852   0.949   1.757  15.138 -0.5482  0.8479  0.5734
14813TIP3   OH265853   6.167   3.712   3.353  0.1734  0.0114  0.4168
14813TIP3    H165854   6.134   3.713   3.263 -0.2692  0.6667  0.5782
14813TIP3    H265855   6.203   3.625   3.364 -0.3717 -0.2997 -0.1850
14814TIP3   OH265856   1.573   2.211   2.123 -0.9768  0.2009 -0.1098
14814TIP3    H165857   1.649   2.183   2.173 -0.2824  0.0199 -1.2397
14814TIP3    H265858   1.608   2.235   2.037 -2.2774 -0.5846 -0.8913
14815TIP3   OH265859   3.990   4.517   6.120  0.2611 -0.1261 -0.1245
14815TIP3    H165860   3.967   4.458   6.192  2.0356 -0.2994  0.3332
14815TIP3    H265861   3.988   4.461   6.042  1.5617 -0.7280  0.2572
14816TIP3   OH265862   5.785   1.111   6.774  0.4430  0.3489  0.4526
14816TIP3    H165863   5.699   1.137   6.806  0.4661  3.3778 -1.6327
14816TIP3    H265864   5.767   1.072   6.688  1.1036  0.5189  0.2369
14817TIP3   OH265865   5.743   0.492  14.383  0.4878  0.2525  0.3468
14817TIP3    H165866   5.670   0.461  14.437  0.2899  1.0462  0.5503
14817TIP3    H265867   5.811   0.515  14.447  0.0717  1.6696  0.3156
14818TIP3   OH265868   6.022   0.451  16.313  0.2260  0.0837  0.5080
14818TIP3    H165869   6.115   0.436  16.330  0.4886  0.1627 -0.7865
14818TIP3    H265870   6.019   0.538  16.273 -0.6433  0.9854  2.4887
14819TIP3   OH265871   4.726   6.168  11.482  0.4866 -0.1759  0.0375
14819TIP3    H165872   4.775   6.100  11.436  1.7625  0.7162  0.0490
14819TIP3    H265873   4.707   6.129  11.567  1.7935 -0.3041  0.2928
14820TIP3   OH265874   2.537   1.430   2.947  0.6667 -0.2559 -0.0147
14820TIP3    H165875   2.627   1.397   2.956  0.6787 -0.4108 -0.6680
14820TIP3    H265876   2.486   1.353   2.922  0.0518 -0.5086  1.9765
14821TIP3   OH265877   1.204   1.339  11.301 -0.5653  0.2742  0.0129
14821TIP3    H165878   1.164   1.425  11.317  1.0075  0.8646  0.9115
14821TIP3    H265879   1.292   1.360  11.267 -0.4799 -0.9919 -0.5702
14822TIP3   OH265880   1.962   4.963  12.343  0.0881  0.2437  0.0286
14822TIP3    H165881   1.963   4.973  12.438 -1.3534 -1.7360  0.2753
14822TIP3    H265882   2.048   4.995  12.315  2.0588 -2.6634  2.3922
14823TIP3   OH265883   0.316   2.786  11.308  0.3575 -0.3938  0.0868
14823TIP3    H165884   0.244   2.777  11.370  1.5056  0.0493  1.5333
14823TIP3    H265885   0.384   2.728  11.343  1.7183  1.2978  0.2940
14824TIP3   OH265886   3.423   6.229  12.623  0.0190  0.4211 -0.2273
14824TIP3    H165887   3.410   6.320  12.650  1.3807  0.3995  0.5269
14824TIP3    H265888   3.351   6.181  12.665  0.7330  0.7656  1.4093
14825TIP3   OH265889   1.601   2.063  14.310 -0.5803  0.4590 -0.3973
14825TIP3    H165890   1.540   2.135  14.300 -1.7905 -0.5140 -0.0893
14825TIP3    H265891   1.644   2.079  14.394 -1.1190  0.6272 -0.1528
14826TIP3   OH265892   2.504   4.391  12.411 -0.6520 -0.0980  0.2078
14826TIP3    H165893   2.526   4.458  12.347 -0.0108  1.4537  1.9909
14826TIP3    H265894   2.411   4.373  12.396 -1.1759  2.1736  0.5450
14827TIP3   OH265895   2.926   3.779  17.130 -0.8637 -0.2897 -0.3387
14827TIP3    H165896   2.857   3.712  17.126 -1.4361  0.3236 -0.8621
14827TIP3    H265897   2.982   3.752  17.203 -1.0504 -1.3810 -0.5915
14828TIP3   OH265898   2.185   4.338   6.161  0.7850  0.4923 -0.7509
14828TIP3    H165899   2.260   4.356   6.104  3.2635 -0.8991  1.9335
14828TIP3    H265900   2.201   4.390   6.239 -0.0626 -1.2635  0.6329
14829TIP3   OH265901   0.382   1.357   4.909 -0.3329 -0.1409 -0.4858
14829TIP3    H165902   0.463   1.365   4.858  1.3467 -0.6853  1.9652
14829TIP3    H265903   0.370   1.443   4.949  1.0638 -1.0230  1.9650
14830TIP3   OH265904   3.838   3.324  13.752  0.0968  0.1452  0.3775
14830TIP3    H165905   3.893   3.290  13.682  0.3614  1.8116 -0.2282
14830TIP3    H265906   3.896   3.325  13.829  1.2629  2.8544 -0.4838
14831TIP3   OH265907   3.186   3.590  16.001  0.6680 -0.4937  0.6226
14831TIP3    H165908   3.154   3.514  15.952 -0.3141  0.3983 -0.1537
14831TIP3    H265909   3.188   3.562  16.092 -0.6614 -1.1342  0.4647
14832TIP3   OH265910   5.719   2.065   1.583  0.0795 -0.3267 -0.2611
14832TIP3    H165911   5.781   2.014   1.635  0.3844  0.9211  0.6332
14832TIP3    H265912   5.633   2.036   1.613  0.2532  0.3847  0.9585
14833TIP3   OH265913   3.260   2.165  14.430  0.5231  0.1689  0.4829
14833TIP3    H165914   3.310   2.225  14.374 -1.0709  2.5024  1.5071
14833TIP3    H265915   3.274   2.198  14.519 -2.3989  0.5473  0.8349
14834TIP3   OH265916   1.187   2.923  15.603 -0.0283  0.3401 -0.2296
14834TIP3    H165917   1.265   2.971  15.575  1.0957 -0.0371  2.1714
14834TIP3    H265918   1.189   2.842  15.553  0.6605  0.7006 -0.7925
14835TIP3   OH265919   3.099   3.134  16.600 -0.0362  0.2487 -0.7462
14835TIP3    H165920   3.104   3.046  16.563 -2.7377  0.0937 -0.8061
14835TIP3    H265921   3.071   3.120  16.691  1.6726  0.9406 -0.0806
14836TIP3   OH265922   3.760   5.425   3.111 -0.1745  0.0200 -0.0974
14836TIP3    H165923   3.708   5.393   3.184  1.7036 -1.2315  0.7003
14836TIP3    H265924   3.767   5.519   3.126 -2.8315  0.3359 -0.6290
14837TIP3   OH265925   1.740   4.853   5.531 -0.2074  0.0127  0.6121
14837TIP3    H165926   1.786   4.789   5.476  1.6544  0.6283  1.4203
14837TIP3    H265927   1.765   4.938   5.495 -2.0144  0.3343  0.0608
14838TIP3   OH265928   2.716   5.228  13.830  0.2815 -0.1992  0.7452
14838TIP3    H165929   2.737   5.286  13.757 -0.1254 -2.2593 -1.0378
14838TIP3    H265930   2.785   5.161  13.828 -1.0640 -1.5967  0.7973
14839TIP3   OH265931   2.218   1.163  12.966  0.3181  0.3814 -0.0324
14839TIP3    H165932   2.186   1.122  13.046  1.2854 -1.3449 -0.4902
14839TIP3    H265933   2.152   1.143  12.900  0.0755  0.8302  0.0728
14840TIP3   OH265934   4.857   3.720   0.429 -0.3537 -0.8867 -0.0503
14840TIP3    H165935   4.842   3.676   0.513  0.3928 -1.4886 -0.2237
14840TIP3    H265936   4.770   3.730   0.391 -0.8832  0.9531  1.5602
14841TIP3   OH265937   3.648   0.324  15.338  0.3253  0.3935 -0.2918
14841TIP3    H165938   3.573   0.269  15.361  2.7708 -2.2339  1.8276
14841TIP3    H265939   3.634   0.405  15.387 -1.7399  0.4163 -0.8979
14842TIP3   OH265940   5.332   5.874   2.965 -0.4495  0.0116  0.1771
14842TIP3    H165941   5.419   5.880   3.006 -0.7141 -2.1087  1.0817
14842TIP3    H265942   5.285   5.950   2.999  0.6984  0.6042  0.4998
14843TIP3   OH265943   2.068   2.042  15.182  0.6341 -0.0331  0.1381
14843TIP3    H165944   2.048   1.987  15.258 -0.9272  1.0051  0.5058
14843TIP3    H265945   2.040   1.990  15.107  0.4518 -0.3169  0.3969
14844TIP3   OH265946   1.247   6.440   2.997 -0.1284  0.1503 -0.0400
14844TIP3    H165947   1.232   6.528   2.962  1.4468  0.5455  0.2365
14844TIP3    H265948   1.310   6.401   2.937  0.6842 -0.0657  0.9279
14845TIP3   OH265949   4.209   2.121   4.407 -0.8724  0.3909 -0.4167
14845TIP3    H165950   4.186   2.041   4.359 -0.9985 -0.2887  0.7589
14845TIP3    H265951   4.304   2.118   4.413 -0.8258  0.7202 -1.0546
14846TIP3   OH265952   2.316   0.936   4.074 -0.0491  0.1600  0.1386
14846TIP3    H165953   2.332   0.915   3.982 -0.5763  0.1484  0.0495
14846TIP3    H265954   2.322   0.852   4.119 -1.9608 -0.1624 -0.1891
14847TIP3   OH265955   4.436   2.466   2.609  0.2186  0.1718  0.5111
14847TIP3    H165956   4.381   2.394   2.639  1.0225 -0.3096  0.8453
14847TIP3    H265957   4.521   2.425   2.591 -0.2851  0.3906 -2.6123
14848TIP3   OH265958   5.630   5.103  14.561 -0.4874  0.2206  0.0405
14848TIP3    H165959   5.558   5.162  14.540 -1.2734 -0.1326  1.6022
14848TIP3    H265960   5.668   5.079  14.477 -1.3552  1.4650 -0.7148
14849TIP3   OH265961   4.309   1.309   2.030 -0.0863  0.1887  0.3473
14849TIP3    H165962   4.217   1.331   2.040  0.5730  1.9793  2.9793
14849TIP3    H265963   4.351   1.341   2.110  2.4762 -2.5710  0.2053
14850TIP3   OH265964   2.648   6.611  15.313 -0.7228 -0.4548 -0.0343
14850TIP3    H165965   2.603   6.538  15.272 -2.1870  0.2290  0.3212
14850TIP3    H265966   2.623   6.687  15.261  2.8977 -0.5229 -2.0314
14851TIP3   OH265967   2.244   3.358  16.200 -0.9123  0.3372 -0.0847
14851TIP3    H165968   2.159   3.374  16.159  0.3998  1.1976 -2.6007
14851TIP3    H265969   2.286   3.445  16.201  0.9219 -0.4985 -1.2729
14852TIP3   OH265970   4.112   5.156  14.213 -0.1147  0.0240 -0.0647
14852TIP3    H165971   4.129   5.136  14.121 -1.3224 -2.8520  0.2557
14852TIP3    H265972   4.049   5.228  14.211  1.3695  1.3077 -1.4393
14853TIP3   OH265973   0.897   0.677  13.028  0.4935  0.1636  0.5170
14853TIP3    H165974   0.901   0.725  12.946 -0.7461 -2.1939 -0.9877
14853TIP3    H265975   0.824   0.716  13.076  1.0894  1.3992  0.4524
14854TIP3   OH265976   3.988   4.255  13.273  0.4570 -0.4723  0.6031
14854TIP3    H165977   4.010   4.284  13.361 -2.1945  0.3918  1.0381
14854TIP3    H265978   3.962   4.164  13.284 -1.7939  0.1861  1.1080
14855TIP3   OH265979   4.336   6.386  16.660  0.5786 -0.2163  0.1948
14855TIP3    H165980   4.310   6.479  16.657  0.1486 -0.2601  1.9755
14855TIP3    H265981   4.282   6.349  16.730  0.0791 -2.0463 -1.1189
14856TIP3   OH265982   1.896   1.336  12.667  0.2024 -0.2566  0.0920
14856TIP3    H165983   1.848   1.411  12.631  1.0416  0.1446 -0.1863
14856TIP3    H265984   1.915   1.362  12.758 -0.8563 -0.7750  0.4767
14857TIP3   OH265985   5.016   5.351  12.267  0.7001 -0.2981  0.0616
14857TIP3    H165986   5.080   5.351  12.338 -1.1356 -2.2859  1.7883
14857TIP3    H265987   5.056   5.297  12.199  2.5322  1.7367 -0.5612
14858TIP3   OH265988   2.747   2.099  11.789 -0.1422  0.6985 -0.4599
14858TIP3    H165989   2.663   2.140  11.805  0.3530  1.7348 -0.5130
14858TIP3    H265990   2.730   2.005  11.797 -1.7375  0.7820 -2.5103
14859TIP3   OH265991   2.543   5.621   1.655 -0.4082 -0.7158 -0.2424
14859TIP3    H165992   2.549   5.604   1.749  0.1061  0.2420 -0.0914
14859TIP3    H265993   2.543   5.716   1.648  1.5654 -0.7544 -1.3078
14860TIP3   OH265994   6.322   2.089   0.527  0.3556  0.4565  0.5684
14860TIP3    H165995   6.242   2.048   0.562  0.1916  2.6259  2.9137
14860TIP3    H265996   6.306   2.097   0.433 -0.9666 -1.7340  0.5569
14861TIP3   OH265997   6.396   4.038  16.099  0.4429  0.1312 -0.8237
14861TIP3    H165998   6.440   4.071  16.178 -0.2412 -1.5510  0.2783
14861TIP3    H265999   6.468   4.018  16.039  0.9753  1.3490 -0.6141
14862TIP3   OH266000   5.263   2.011  10.540  0.3224 -0.1996 -0.0657
14862TIP3    H166001   5.344   2.048  10.574  1.2504 -1.2545 -1.0760
14862TIP3    H266002   5.285   1.981  10.452 -0.9764 -1.1198 -0.1013
14863TIP3   OH266003   4.586   2.236  14.491 -0.0239 -0.1137 -0.1648
14863TIP3    H166004   4.679   2.213  14.487  0.1920  0.3954  1.4950
14863TIP3    H266005   4.555   2.198  14.574 -1.0243  0.6669 -0.1694
14864TIP3   OH266006   0.488   3.061   4.604  0.1859  0.2162  0.2270
14864TIP3    H166007   0.558   3.120   4.631  0.7059 -0.5344  0.5382
14864TIP3    H266008   0.430   3.115   4.551  0.0494  1.2966  1.4504
14865TIP3   OH266009   1.434   0.123   2.761 -0.2670 -0.4983 -0.0113
14865TIP3    H166010   1.361   0.103   2.702 -1.1341  0.9539  0.5467
14865TIP3    H266011   1.497   0.053   2.746 -1.6332 -1.5896 -0.7525
14866TIP3   OH266012   0.725   3.973   3.871 -0.7899 -0.7276  0.3316
14866TIP3    H166013   0.747   4.052   3.821  1.0829 -1.2459  0.3084
14866TIP3    H266014   0.718   3.904   3.805 -0.0429 -1.0593  0.5951
14867TIP3   OH266015   2.147   0.133   4.151  0.1950  0.0010  0.0427
14867TIP3    H166016   2.136   0.225   4.174  0.9643  0.6872 -2.1729
14867TIP3    H266017   2.213   0.101   4.213  1.1022  1.3868 -0.1706
14868TIP3   OH266018   1.180   6.161   3.871  0.0318  0.1976  0.7365
14868TIP3    H166019   1.125   6.228   3.911  0.9385  2.7409 -2.0102
14868TIP3    H266020   1.268   6.179   3.906  0.1240 -0.0773  0.6442
14869TIP3   OH266021   2.854   4.031  12.972  1.1079 -0.1806  0.2224
14869TIP3    H166022   2.847   4.031  12.876 -1.8513  0.4446  0.4000
14869TIP3    H266023   2.907   3.953  12.992 -1.0543 -2.2527 -1.7823
14870TIP3   OH266024   6.385   4.261   6.019  0.0314  0.1918  0.1568
14870TIP3    H166025   6.423   4.241   6.104  0.6293  1.4350  0.1909
14870TIP3    H266026   6.413   4.190   5.962 -0.3985 -0.6653  0.9938
14871TIP3   OH266027   2.426   2.141  16.849 -0.1141  0.0439 -0.0784
14871TIP3    H166028   2.411   2.050  16.874  2.8006 -0.3887  0.3343
14871TIP3    H266029   2.432   2.188  16.932 -0.4120  0.4062 -0.2611
14872TIP3   OH266030   4.062   1.467  12.955 -0.0439 -0.8242  0.4071
14872TIP3    H166031   4.156   1.479  12.968  0.0841  0.0056 -1.2484
14872TIP3    H266032   4.044   1.381  12.994  1.8425 -2.1263 -1.4830
14873TIP3   OH266033   0.716   0.802  10.495  0.2431 -0.1614 -0.4011
14873TIP3    H166034   0.649   0.869  10.481 -0.1044 -0.8885 -2.3798
14873TIP3    H266035   0.670   0.731  10.540  0.3635  0.4684  0.7420
14874TIP3   OH266036   5.780   5.914   6.138 -0.1089  0.4103  0.1345
14874TIP3    H166037   5.797   6.008   6.131  0.0011  0.3990  0.2556
14874TIP3    H266038   5.795   5.894   6.230 -0.8903  0.4183  0.2680
14875TIP3   OH266039   6.154   3.524   0.762 -0.1463  0.0976 -0.1832
14875TIP3    H166040   6.138   3.502   0.670  2.6710  0.1039 -0.7187
14875TIP3    H266041   6.126   3.447   0.811  0.8836 -0.9786 -1.2758
14876TIP3   OH266042   5.578   4.575  11.216  0.0951  0.1662  0.9773
14876TIP3    H166043   5.569   4.662  11.175  0.8245  0.4868  1.4895
14876TIP3    H266044   5.621   4.592  11.299 -0.4606 -0.6107  1.4298
14877TIP3   OH266045   1.826   5.600  11.060  0.0741  0.1345 -0.0282
14877TIP3    H166046   1.849   5.519  11.013 -0.9494 -0.3827  0.3564
14877TIP3    H266047   1.816   5.666  10.991  0.7782 -0.0870 -0.3525
14878TIP3   OH266048   0.230   3.279   0.980 -0.3083  0.0256  0.1162
14878TIP3    H166049   0.281   3.353   1.014 -0.9310  0.7098 -0.4068
14878TIP3    H266050   0.138   3.304   0.994 -0.5336 -0.4556 -0.4533
14879TIP3   OH266051   5.514   2.782   0.819  0.1440  0.1856 -0.4917
14879TIP3    H166052   5.504   2.876   0.804 -0.0037  0.3715  0.6811
14879TIP3    H266053   5.424   2.749   0.820  0.0368  0.4450  1.4882
14880TIP3   OH266054   1.988   0.017  16.061 -0.5837 -0.0330 -0.4364
14880TIP3    H166055   1.956   0.078  15.994  1.3879  1.9546  0.3692
14880TIP3    H266056   2.074  -0.009  16.030 -0.7191 -1.1406  0.0822
14881TIP3   OH266057   4.740   0.959  16.473  0.1890  0.0513  0.2413
14881TIP3    H166058   4.828   0.997  16.464  0.2565 -0.2885 -0.5898
14881TIP3    H266059   4.700   1.007  16.546  1.2607 -0.1591  0.9848
14882TIP3   OH266060   5.339   2.344   5.686  0.6920  0.8095 -0.6911
14882TIP3    H166061   5.409   2.408   5.699  1.6453 -0.6087  1.4537
14882TIP3    H266062   5.262   2.385   5.726  0.7858  1.5212 -1.2327
14883TIP3   OH266063   3.489   4.981   3.549 -0.0994  0.1060  0.0997
14883TIP3    H166064   3.499   4.895   3.588  1.3144 -0.5029 -1.5097
14883TIP3    H266065   3.574   5.023   3.562 -0.7928  1.2647  0.9041
14884TIP3   OH266066   4.107   5.136  15.576 -0.4532  0.3135  0.3956
14884TIP3    H166067   4.086   5.079  15.502 -1.8395  0.3337  0.7540
14884TIP3    H266068   4.081   5.223  15.548 -2.2016  0.1270  1.3563
14885TIP3   OH266069   2.975   5.665   6.750  0.1369 -0.1258  0.3894
14885TIP3    H166070   3.027   5.723   6.805  1.4740 -0.6652 -0.3026
14885TIP3    H266071   3.034   5.637   6.681 -0.4038 -2.4645  0.8130
14886TIP3   OH266072   6.766   5.156   6.140 -0.3541 -0.3769  0.1096
14886TIP3    H166073   6.677   5.175   6.170 -0.0837 -0.3609  0.9164
14886TIP3    H266074   6.785   5.226   6.077  0.5958  2.0592  2.9677
14887TIP3   OH266075   1.663   1.327  15.739 -0.4070 -0.2842  0.3132
14887TIP3    H166076   1.653   1.319  15.833  1.4339 -1.6025  0.4138
14887TIP3    H266077   1.757   1.314  15.723 -0.8774 -1.3484 -1.8105
14888TIP3   OH266078   1.926   1.043   1.600  0.0359  0.0720  0.2178
14888TIP3    H166079   1.987   1.023   1.530 -1.1306  2.2856 -1.4999
14888TIP3    H266080   1.853   0.982   1.587  0.5144 -0.5650  0.4798
14889TIP3   OH266081   6.165   1.748   5.876 -0.0299  0.4117 -0.3285
14889TIP3    H166082   6.075   1.749   5.844 -0.8721  1.3811  1.9749
14889TIP3    H266083   6.217   1.782   5.803 -1.5032 -0.1841 -1.6879
14890TIP3   OH266084   1.877   2.606  17.060 -0.3449 -0.3514  0.5198
14890TIP3    H166085   1.903   2.661  17.134  3.0135 -1.2662  0.0680
14890TIP3    H266086   1.897   2.659  16.983  0.5136 -1.1927  0.1565
14891TIP3   OH266087   2.598   5.850  11.502  0.5526 -0.2798 -0.3911
14891TIP3    H166088   2.583   5.830  11.409  1.5560 -1.1423 -0.3768
14891TIP3    H266089   2.514   5.833  11.544  0.3397 -0.7743 -0.9970
14892TIP3   OH266090   4.681   6.422  14.801  0.1375  0.4110  0.7457
14892TIP3    H166091   4.774   6.405  14.786  0.4636 -0.1065  3.1841
14892TIP3    H266092   4.659   6.371  14.878 -1.9833  1.1847  0.6865
14893TIP3   OH266093   3.945   3.611   1.323 -0.1602 -0.4720 -0.5029
14893TIP3    H166094   3.880   3.590   1.390  0.9881  0.2686  0.8596
14893TIP3    H266095   4.015   3.548   1.337 -0.1376 -0.6325 -1.3291
14894TIP3   OH266096   1.595   0.298  16.740 -0.2796  0.1204  0.4357
14894TIP3    H166097   1.577   0.326  16.650 -1.4561  0.2605  0.7120
14894TIP3    H266098   1.604   0.203  16.734  0.9416  0.2455 -0.0330
14895TIP3   OH266099   4.324   0.716   4.256  0.5118 -0.2424  0.7566
14895TIP3    H166100   4.295   0.741   4.169  0.8778 -1.8410  0.1623
14895TIP3    H266101   4.247   0.677   4.297 -0.1111  1.9448  1.7498
14896TIP3   OH266102   2.463   3.019   5.336 -0.1290 -0.1588 -0.0072
14896TIP3    H166103   2.436   3.013   5.427 -0.1033  1.9660  0.1603
14896TIP3    H266104   2.549   3.060   5.338 -0.4738  0.6525 -1.0127
14897TIP3   OH266105   3.734   3.559  16.232  0.5756  0.5227  0.5327
14897TIP3    H166106   3.641   3.550  16.252  0.6598 -0.1313  0.6360
14897TIP3    H266107   3.756   3.480  16.183  0.8285  1.1835 -0.4518
14898TIP3   OH266108   4.027   1.861  17.198  0.1932 -0.4287 -0.1232
14898TIP3    H166109   4.114   1.900  17.203 -0.4197  0.9656 -0.2063
14898TIP3    H266110   3.998   1.878  17.108 -0.4544 -0.2738  0.1133
14899TIP3   OH266111   2.093   3.819  15.382  0.4576  0.0852 -0.1125
14899TIP3    H166112   2.115   3.731  15.414  0.4193  0.5608  1.2610
14899TIP3    H266113   2.176   3.866  15.382  0.3329  0.3070  0.0165
14900TIP3   OH266114   0.630   2.029   3.564 -0.3727  0.5967 -0.5531
14900TIP3    H166115   0.567   2.023   3.636 -0.0440  0.9780 -0.2271
14900TIP3    H266116   0.581   2.067   3.491 -0.5421  0.8148 -0.3264
14901TIP3   OH266117   4.910   4.685   2.155  0.2123 -0.2328  0.0650
14901TIP3    H166118   4.930   4.594   2.130  0.8636 -0.1535  0.2647
14901TIP3    H266119   4.969   4.702   2.229  1.0234  0.7793 -0.8084
14902TIP3   OH266120   3.720   6.466   1.947 -0.2422 -0.4728  0.1925
14902TIP3    H166121   3.735   6.542   1.891 -1.0740  0.4987  1.2781
14902TIP3    H266122   3.682   6.401   1.888  0.5892 -0.1037 -0.7698
14903TIP3   OH266123   1.987   3.603   4.602 -0.9541  0.5283 -0.2306
14903TIP3    H166124   2.001   3.696   4.622  1.3991  0.1838 -0.1178
14903TIP3    H266125   2.004   3.595   4.508 -0.0850  0.0246 -0.0334
14904TIP3   OH266126   4.950   5.690  14.602 -0.2735  0.0768  0.1482
14904TIP3    H166127   4.870   5.655  14.641 -0.1146 -1.6770 -1.0621
14904TIP3    H266128   4.997   5.731  14.675 -0.2221 -2.6911  1.7067
14905TIP3   OH266129   4.626   5.460  14.007  0.2569  0.1286 -0.2978
14905TIP3    H166130   4.672   5.399  13.949  1.4275 -0.0632  0.8102
14905TIP3    H266131   4.544   5.480  13.961  0.0322 -1.9674 -0.8268
14906TIP3   OH266132   1.192   3.842  12.689 -0.4928 -0.7478  0.1002
14906TIP3    H166133   1.168   3.885  12.771  1.0740  1.5555 -0.6223
14906TIP3    H266134   1.184   3.910  12.623  0.1603 -2.0868 -1.3915
14907TIP3   OH266135   6.534   5.851  13.804  0.0516  0.2578 -0.2235
14907TIP3    H166136   6.476   5.778  13.782  0.7429 -0.1694 -0.6508
14907TIP3    H266137   6.576   5.874  13.722  1.0661  0.0460  0.2229
14908TIP3   OH266138   1.491   3.003  10.732  0.1788  0.5749  0.3676
14908TIP3    H166139   1.421   2.974  10.791 -0.5112  0.7936 -0.3357
14908TIP3    H266140   1.445   3.049  10.662  1.0695  1.1140  0.1389
14909TIP3   OH266141   1.709   3.767   2.787 -0.2910 -0.5150  0.9783
14909TIP3    H166142   1.646   3.780   2.716  0.3994  2.1020  0.7864
14909TIP3    H266143   1.665   3.800   2.865 -0.5966 -2.2765  1.5653
14910TIP3   OH266144   0.686   6.647  13.205 -0.3093 -0.0617  0.5812
14910TIP3    H166145   0.639   6.573  13.170  1.2509  0.6412 -3.2136
14910TIP3    H266146   0.776   6.636  13.174  0.5496  2.0616  2.1288
14911TIP3   OH266147   6.482   6.396   2.529  0.0520  0.1215 -0.3258
14911TIP3    H166148   6.387   6.409   2.527 -0.0429 -0.0121  2.2718
14911TIP3    H266149   6.497   6.323   2.469 -1.4904  0.0454 -0.6555
14912TIP3   OH266150   2.870   3.463   2.460  0.6800  0.4462  0.0337
14912TIP3    H166151   2.853   3.477   2.553 -0.0010 -0.5540  0.0698
14912TIP3    H266152   2.923   3.538   2.433  1.4852  0.3653  1.3868
14913TIP3   OH266153   0.471   3.234   3.396 -0.5979  0.2362  0.5883
14913TIP3    H166154   0.452   3.198   3.483  0.0222  2.0655  1.5129
14913TIP3    H266155   0.430   3.321   3.397 -1.5693 -0.1636 -1.3777
14914TIP3   OH266156   1.251   6.137  12.382 -0.3218 -0.2600 -0.2549
14914TIP3    H166157   1.267   6.170  12.293 -2.7000  1.0440 -0.2248
14914TIP3    H266158   1.338   6.118  12.416  0.8553  2.3822 -1.6610
14915TIP3   OH266159   5.591   1.705   5.454  0.1982 -0.2112  0.4700
14915TIP3    H166160   5.504   1.723   5.418  0.3324  1.2840  0.8718
14915TIP3    H266161   5.577   1.632   5.514 -0.7092 -0.2595  0.2115
14916TIP3   OH266162   4.774   2.537   2.939 -0.2720  0.3051 -0.0310
14916TIP3    H166163   4.682   2.532   2.913 -0.5228  0.3010  0.8539
14916TIP3    H266164   4.816   2.586   2.868 -1.4293  2.4856  0.7513
14917TIP3   OH266165   4.154   4.644   2.594  0.7340 -0.1316  0.1877
14917TIP3    H166166   4.125   4.553   2.586  1.4901 -0.2546 -1.2962
14917TIP3    H266167   4.073   4.695   2.588  0.5071 -0.6142 -1.0971
14918TIP3   OH266168   1.952   5.070   6.581 -0.7090 -0.4677  0.4403
14918TIP3    H166169   1.909   5.149   6.612 -1.2982 -0.8414  0.5788
14918TIP3    H266170   2.026   5.102   6.529 -1.9487  0.1785 -0.9262
14919TIP3   OH266171   1.723   2.943  10.617 -0.3742 -0.5151 -0.9734
14919TIP3    H166172   1.646   2.970  10.667  0.1311  1.4485 -1.2221
14919TIP3    H266173   1.692   2.870  10.564 -1.4730 -1.2375  0.6100
14920TIP3   OH266174   1.263   0.563   4.168  0.2159  0.7308  0.2780
14920TIP3    H166175   1.193   0.622   4.137 -0.5485 -1.0502 -1.4746
14920TIP3    H266176   1.267   0.579   4.263 -1.3028  2.1833  0.1307
14921TIP3   OH266177   0.059   2.779  13.667  0.3202 -0.2613  0.1353
14921TIP3    H166178   0.117   2.716  13.623 -1.1042 -2.2957  1.1047
14921TIP3    H266179   0.023   2.731  13.741 -1.6632  1.3737  0.2791
14922TIP3   OH266180   6.463   1.908   4.832  0.2480  0.3326 -0.1920
14922TIP3    H166181   6.547   1.897   4.877  0.4387 -0.8053 -0.8015
14922TIP3    H266182   6.403   1.940   4.900  1.2964  1.6950  0.1177
14923TIP3   OH266183   4.475   5.662  10.242  0.2634 -0.3342  0.0559
14923TIP3    H166184   4.562   5.694  10.267 -0.6520  0.4393  2.3987
14923TIP3    H266185   4.453   5.714  10.164  1.9791 -0.7129 -0.7131
14924TIP3   OH266186   3.676   6.547  15.032  0.3221 -0.1670  0.1262
14924TIP3    H166187   3.630   6.616  14.984  1.1549  0.5482  0.3495
14924TIP3    H266188   3.641   6.553  15.121 -0.3198 -0.6797 -0.0894
14925TIP3   OH266189   0.223   4.924   1.034  0.8105  0.6969 -0.1488
14925TIP3    H166190   0.281   4.892   0.964 -0.1234 -2.1618  0.2967
14925TIP3    H266191   0.148   4.864   1.031 -0.9004  2.7101  1.0204
14926TIP3   OH266192   6.641   2.437  16.076 -0.6014  0.0301 -0.6194
14926TIP3    H166193   6.668   2.405  16.162 -1.5981 -0.1264 -0.3488
14926TIP3    H266194   6.700   2.509  16.057  1.1869 -1.4909 -0.8946
14927TIP3   OH266195   1.581   4.118  12.097 -0.1566 -0.2763  0.0419
14927TIP3    H166196   1.557   4.122  12.004 -1.6575  1.5380  0.4896
14927TIP3    H266197   1.528   4.047  12.132 -0.6004 -0.0739 -0.2085
14928TIP3   OH266198   4.890   4.172  12.875 -0.1724  0.2300  0.2165
14928TIP3    H166199   4.846   4.137  12.798 -1.0773  0.4168  0.6393
14928TIP3    H266200   4.820   4.211  12.928  0.2674 -0.9238  1.6885
14929TIP3   OH266201   4.538   6.112  16.672 -0.1531 -0.8282 -0.3897
14929TIP3    H166202   4.459   6.067  16.703 -0.0735 -0.7437 -0.0662
14929TIP3    H266203   4.596   6.042  16.643 -0.6329 -0.8485 -1.2910
14930TIP3   OH266204   0.728   0.182  16.231  0.0115 -0.0833 -0.2856
14930TIP3    H166205   0.644   0.203  16.191  0.7374  3.8635 -0.0338
14930TIP3    H266206   0.754   0.099  16.192 -2.2018  0.5581 -3.2902
14931TIP3   OH266207   5.287   3.242  13.600 -0.8508  0.0290 -0.0968
14931TIP3    H166208   5.381   3.238  13.615 -0.9282 -1.3928  0.0974
14931TIP3    H266209   5.259   3.324  13.641  0.4116  0.8276 -0.8127
14932TIP3   OH266210   4.671   2.530  16.692  0.9640  0.8550 -0.3922
14932TIP3    H166211   4.674   2.594  16.763 -0.7722  0.5545 -0.0386
14932TIP3    H266212   4.671   2.583  16.612 -1.4363  1.3450 -0.0874
14933TIP3   OH266213   4.294   1.981  13.799  0.0774  0.1828  0.2697
14933TIP3    H166214   4.250   1.967  13.883 -0.4497 -3.3817 -0.5110
14933TIP3    H266215   4.238   1.937  13.735  0.9377  2.0752 -1.8486
14934TIP3   OH266216   1.316   0.155   0.189  0.6002  0.1982  0.2141
14934TIP3    H166217   1.343   0.164   0.280  2.5952 -0.1917 -0.3300
14934TIP3    H266218   1.220   0.154   0.193  0.6663 -0.5653  2.3827
14935TIP3   OH266219   4.078   4.867  14.208  0.5415  0.2652  0.1182
14935TIP3    H166220   4.129   4.787  14.220  2.1523  1.1057 -0.8475
14935TIP3    H266221   4.107   4.901  14.123 -0.0964  1.8783  0.5298
14936TIP3   OH266222   4.440   1.306  11.875 -0.0868  0.1068 -0.0164
14936TIP3    H166223   4.465   1.398  11.875 -2.2173  0.7125  1.6109
14936TIP3    H266224   4.345   1.306  11.881 -0.1214 -2.2044  0.0258
14937TIP3   OH266225   0.853   6.301   4.421 -0.4089  0.4555  0.3798
14937TIP3    H166226   0.924   6.240   4.444 -0.2227  0.4666 -0.1636
14937TIP3    H266227   0.892   6.359   4.356 -1.4201 -0.6136 -1.2153
14938TIP3   OH266228   5.026   1.859  12.559 -0.5144  0.3008  0.5204
14938TIP3    H166229   4.956   1.881  12.498  0.2629  1.0103 -0.1208
14938TIP3    H266230   5.041   1.765  12.546 -1.1067  0.2171  0.4227
14939TIP3   OH266231   1.456   2.106  12.590  0.2081 -0.3526 -0.3274
14939TIP3    H166232   1.388   2.039  12.597 -0.2085  0.1287  0.2244
14939TIP3    H266233   1.419   2.172  12.532 -0.1680  0.3672  0.7268
14940TIP3   OH266234   0.789   6.034   3.318  0.1307  0.1203 -0.2188
14940TIP3    H166235   0.845   5.957   3.320  0.1801  0.1950  1.9460
14940TIP3    H266236   0.709   6.004   3.274  0.5446 -0.8698 -0.3084
14941TIP3   OH266237   0.564   3.768   2.303  0.3019  0.1887 -0.1758
14941TIP3    H166238   0.587   3.858   2.325  0.6786  0.3036 -1.0196
14941TIP3    H266239   0.491   3.776   2.241 -1.1830 -0.1434  1.4808
14942TIP3   OH266240   2.388   4.515  16.087 -0.1564 -0.0124  0.4638
14942TIP3    H166241   2.459   4.453  16.072 -0.6373 -0.9609  2.0346
14942TIP3    H266242   2.397   4.579  16.016  1.0854 -1.1857 -0.4593
14943TIP3   OH266243   4.007   2.900  16.819 -0.1871  0.4649 -0.3535
14943TIP3    H166244   4.004   2.994  16.804  1.2545  0.4116 -1.0169
14943TIP3    H266245   3.988   2.890  16.913  1.2691  1.5183  0.0594
14944TIP3   OH266246   3.027   1.118   4.425 -0.3084  0.4625 -0.3395
14944TIP3    H166247   2.964   1.189   4.432  1.0257  1.5251  1.1788
14944TIP3    H266248   3.112   1.160   4.436  0.4575 -1.4758  1.4133
14945TIP3   OH266249   0.815   3.913  15.258  0.0579  0.0444  1.0415
14945TIP3    H166250   0.867   3.984  15.220  2.3162 -2.0454  0.1032
14945TIP3    H266251   0.821   3.842  15.194  0.8906 -2.2723  3.6006
14946TIP3   OH266252   0.861   4.899   4.541  0.4977 -0.3973  0.5393
14946TIP3    H166253   0.822   4.851   4.468  0.1051 -0.4259  0.7666
14946TIP3    H266254   0.855   4.839   4.615  0.8076 -0.3307  0.6204
14947TIP3   OH266255   1.852   4.032   0.844  0.2490  0.4316  0.1770
14947TIP3    H166256   1.928   3.974   0.847  0.3532  0.5233 -0.5276
14947TIP3    H266257   1.883   4.110   0.798 -0.2535  0.4887 -0.0708
14948TIP3   OH266258   0.362   1.885  13.860  0.3351  0.0244  0.6286
14948TIP3    H166259   0.453   1.913  13.867  0.0183  1.9708 -2.0266
14948TIP3    H266260   0.365   1.803  13.810  0.6138  0.4896 -0.1384
14949TIP3   OH266261   0.762   0.769  15.801  0.3835  0.2598 -0.1297
14949TIP3    H166262   0.806   0.854  15.801 -0.4904  0.7240 -1.2920
14949TIP3    H266263   0.775   0.736  15.890  0.4143  1.7708  0.4449
14950TIP3   OH266264   2.422   5.917   1.173  0.4140 -0.1125 -0.0519
14950TIP3    H166265   2.499   5.955   1.131 -0.0752  0.6620 -0.2705
14950TIP3    H266266   2.419   5.827   1.141  0.9172  0.0183 -0.4791
14951TIP3   OH266267   1.955   5.150   3.369  0.4657 -0.0461 -0.4653
14951TIP3    H166268   1.958   5.170   3.462 -0.3579  0.8361 -0.6241
14951TIP3    H266269   2.043   5.169   3.337  1.3600 -2.3809  0.5297
14952TIP3   OH266270   0.958   0.803   2.135 -0.4814  0.3090 -0.0891
14952TIP3    H166271   1.050   0.780   2.127 -0.7524 -1.1475  0.9648
14952TIP3    H266272   0.957   0.882   2.188  0.1740  0.5117 -0.3796
14953TIP3   OH266273   3.593   1.613  14.675 -0.1263 -0.2285 -1.2363
14953TIP3    H166274   3.579   1.520  14.694 -0.7696 -0.2354 -1.7302
14953TIP3    H266275   3.521   1.636  14.616 -0.7071  0.8921 -0.1166
14954TIP3   OH266276   0.481   4.005   0.088 -0.2256 -0.1660 -0.1069
14954TIP3    H166277   0.560   3.970   0.130  0.4019  1.2200 -0.1172
14954TIP3    H266278   0.441   3.928   0.047 -0.0776 -1.2820  1.7654
14955TIP3   OH266279   1.287   6.379  10.766 -0.0395 -0.4752 -0.3332
14955TIP3    H166280   1.220   6.435  10.726 -0.2658 -1.2635 -1.0707
14955TIP3    H266281   1.347   6.440  10.809 -0.5533  0.3040 -0.7151
14956TIP3   OH266282   6.074   4.629   1.252  0.6117  0.1166 -0.7551
14956TIP3    H166283   6.073   4.547   1.300  1.1708  1.0040  0.8112
14956TIP3    H266284   6.139   4.617   1.183 -1.3964 -1.7653 -2.4154
14957TIP3   OH266285   0.947   4.621  15.446  0.5785  0.3135  0.6165
14957TIP3    H166286   0.914   4.602  15.359 -0.6495  1.5599  0.7890
14957TIP3    H266287   0.976   4.537  15.480  2.2269 -0.0131 -1.4423
14958TIP3   OH266288   4.175   3.846  11.263 -0.0284  0.1955  0.1853
14958TIP3    H166289   4.220   3.895  11.331  0.5231 -0.7612  0.5222
14958TIP3    H266290   4.245   3.804  11.213 -0.4981 -0.4632  0.0721
14959TIP3   OH266291   2.875   5.880   1.579 -0.0583  0.3922  0.4934
14959TIP3    H166292   2.941   5.949   1.580 -0.8783  1.1944 -0.3982
14959TIP3    H266293   2.914   5.810   1.526  0.1364  0.7967  0.1043
14960TIP3   OH266294   1.327   3.165  12.355  0.6176 -0.8951  0.4661
14960TIP3    H166295   1.403   3.206  12.395 -0.4367 -0.9921  2.6728
14960TIP3    H266296   1.318   3.081  12.399 -1.5770 -0.2800  1.2791
14961TIP3   OH266297   5.497   1.776   2.573  0.6348 -0.3129  0.1902
14961TIP3    H166298   5.415   1.732   2.554  0.7728 -0.2409 -0.5803
14961TIP3    H266299   5.471   1.865   2.598  0.5186 -0.1086 -0.6561
14962TIP3   OH266300   0.077   0.377   2.319  0.1035  0.5552  0.7113
14962TIP3    H166301   0.105   0.349   2.232  1.3284  0.7216  1.0486
14962TIP3    H266302   0.155   0.370   2.374 -0.8959 -0.5704  2.0525
14963TIP3   OH266303   0.121   0.313   4.635  0.7097  0.4999  0.1823
14963TIP3    H166304   0.164   0.244   4.686  1.2645  0.2055 -0.6663
14963TIP3    H266305   0.028   0.291   4.638  1.0534 -1.5086 -1.8021
14964TIP3   OH266306   6.438   4.628   0.189  0.2192 -0.7488 -0.3166
14964TIP3    H166307   6.439   4.544   0.235  0.2873 -0.6166 -0.0777
14964TIP3    H266308   6.470   4.607   0.100  1.1224 -0.8140  0.0148
14965TIP3   OH266309   4.034   4.429   1.243 -0.2459  0.2431  0.2765
14965TIP3    H166310   4.097   4.501   1.248  0.0175  0.0001  0.5165
14965TIP3    H266311   4.088   4.350   1.253 -0.6813  0.0586  1.2363
14966TIP3   OH266312   2.450   0.649  13.347  0.5130 -0.2108  0.1065
14966TIP3    H166313   2.490   0.648  13.260 -1.4796  3.5931 -0.9990
14966TIP3    H266314   2.362   0.613  13.333  0.9503 -1.6649  1.0257
14967TIP3   OH266315   2.573   1.042  11.850  0.1215  0.3237  0.3179
14967TIP3    H166316   2.598   1.134  11.851  1.1694  0.0382  0.7646
14967TIP3    H266317   2.628   1.001  11.917 -1.2655 -0.3911  1.0524
14968TIP3   OH266318   1.157   4.646  12.587 -0.3329  0.5047 -0.7269
14968TIP3    H166319   1.246   4.658  12.620 -0.2592  2.0475 -1.4812
14968TIP3    H266320   1.163   4.569  12.531  0.3295  0.0708 -0.0819
14969TIP3   OH266321   1.923   1.806   3.193 -0.0439 -0.0927 -0.1265
14969TIP3    H166322   1.850   1.755   3.228 -0.1687  0.2831  0.1655
14969TIP3    H266323   1.984   1.813   3.265 -0.2785  0.6438  0.0086
14970TIP3   OH266324   1.067   4.258  12.319  0.3043 -0.0624 -0.4049
14970TIP3    H166325   0.978   4.288  12.301 -0.1594  0.3862  2.3307
14970TIP3    H266326   1.063   4.163  12.309 -0.9138 -0.2019  1.2437
14971TIP3   OH266327   6.686   2.984  13.779  0.0680 -0.4105  0.2427
14971TIP3    H166328   6.721   3.027  13.856  1.0927 -3.4511  1.5515
14971TIP3    H266329   6.755   2.924  13.750 -0.0990  0.9732 -3.3407
14972TIP3   OH266330   4.997   4.764  12.848  0.0248  0.4301  0.1988
14972TIP3    H166331   5.074   4.764  12.792 -0.0428  0.0797  0.1062
14972TIP3    H266332   4.947   4.687  12.820 -0.3841  0.6869  0.2171
14973TIP3   OH266333   1.335   1.787  11.072  0.0184  0.3590 -0.4339
14973TIP3    H166334   1.352   1.693  11.063 -1.6961 -0.0067 -0.0789
14973TIP3    H266335   1.324   1.818  10.982  0.9796  0.2978 -0.5724
14974TIP3   OH266336   5.211   4.813  11.645  0.1362 -0.3079 -0.1898
14974TIP3    H166337   5.253   4.827  11.560 -1.9374  0.3959 -1.1329
14974TIP3    H266338   5.214   4.898  11.688  3.0565 -1.1469  1.3471
14975TIP3   OH266339   3.173   4.512  14.273  0.8362 -0.0799  0.0850
14975TIP3    H166340   3.153   4.594  14.318 -0.4753  0.1032 -0.8027
14975TIP3    H266341   3.245   4.534  14.215 -0.8248  0.9710 -1.6242
14976TIP3   OH266342   6.268   2.134  12.822 -0.1440 -0.0064 -0.0258
14976TIP3    H166343   6.195   2.152  12.882 -0.8964 -0.7977 -0.7066
14976TIP3    H266344   6.345   2.139  12.878 -0.8589 -0.9289  1.0663
14977TIP3   OH266345   4.378   5.018   3.277 -0.2228  0.3394  0.0803
14977TIP3    H166346   4.376   5.077   3.202 -0.6210  0.4486  0.1776
14977TIP3    H266347   4.324   4.944   3.251 -0.3567  0.3750  0.2571
14978TIP3   OH266348   6.670   5.135  12.669 -0.3443 -0.8126 -0.0325
14978TIP3    H166349   6.589   5.115  12.716 -0.0416  0.9340  1.2758
14978TIP3    H266350   6.706   5.211  12.714  0.9056 -0.2136 -1.9728
14979TIP3   OH266351   2.539   2.518  14.117 -0.3685 -0.1732 -0.5916
14979TIP3    H166352   2.624   2.548  14.084  0.3645 -0.8330  0.6479
14979TIP3    H266353   2.479   2.589  14.097  0.7756  0.9130 -0.1964
14980TIP3   OH266354   0.059   6.062   1.433  0.2132 -0.0732 -0.3095
14980TIP3    H166355   0.102   6.064   1.519  0.4787  0.9888 -0.4528
14980TIP3    H266356  -0.024   6.019   1.449 -0.5364  1.7201  0.8669
14981TIP3   OH266357   6.094   2.224   4.677  0.1380 -0.0802 -0.3576
14981TIP3    H166358   6.054   2.248   4.593  0.2739 -0.8662 -0.6494
14981TIP3    H266359   6.162   2.289   4.691 -0.5093  0.6136 -0.3978
14982TIP3   OH266360   4.729   0.895   0.586  0.0481  0.1846 -0.5141
14982TIP3    H166361   4.690   0.821   0.539 -0.8794 -0.6125  1.4330
14982TIP3    H266362   4.799   0.855   0.638  0.2731  0.8484 -0.3078
14983TIP3   OH266363   2.810   2.117   1.956 -0.2245 -0.1841  0.2582
14983TIP3    H166364   2.811   2.177   2.030  3.1921  0.4939 -0.2576
14983TIP3    H266365   2.796   2.031   1.995 -0.2462  0.3711  1.5063
14984TIP3   OH266366   4.615   0.000   4.148  0.2766  0.0004 -0.0858
14984TIP3    H166367   4.542   0.013   4.088  1.2938 -0.4078 -1.4528
14984TIP3    H266368   4.584   0.032   4.232 -1.4394 -0.1066 -0.6680
14985TIP3   OH266369   5.393   6.360  16.338 -0.1252 -0.5144  0.5917
14985TIP3    H166370   5.353   6.277  16.314 -1.9565  0.8294 -1.1941
14985TIP3    H266371   5.453   6.381  16.267  0.8250 -0.6283  1.3527
14986TIP3   OH266372   2.205   3.958  11.555 -0.1076 -0.2918  0.1531
14986TIP3    H166373   2.193   3.864  11.539 -0.6254 -0.3002  0.6049
14986TIP3    H266374   2.277   3.983  11.496  1.9995 -1.5766  2.0885
14987TIP3   OH266375   3.985   3.698  16.721  0.5583 -0.0572  0.1875
14987TIP3    H166376   4.078   3.675  16.726  1.1025  2.0415  0.1821
14987TIP3    H266377   3.967   3.705  16.627  0.6569  0.4945  0.2062
14988TIP3   OH266378   1.784   2.101   6.396  0.0116 -0.3048  0.1730
14988TIP3    H166379   1.829   2.145   6.468  1.2798 -0.4766 -0.4821
14988TIP3    H266380   1.753   2.172   6.340 -2.6326 -0.1094  1.8171
14989TIP3   OH266381   0.938   6.426  13.336  0.2462 -0.1839 -0.5388
14989TIP3    H166382   0.991   6.392  13.408 -0.5928 -1.2928 -0.4306
14989TIP3    H266383   0.878   6.355  13.315 -0.6859  0.7756 -1.1675
14990TIP3   OH266384   5.927   2.923  12.762 -0.8912  0.0153  0.8141
14990TIP3    H166385   5.886   2.913  12.676  0.5872  0.5523  0.0247
14990TIP3    H266386   5.876   2.991  12.806 -1.2561  0.1889  0.1214
14991TIP3   OH266387   3.211   1.300  13.717  0.2020  0.5935 -0.5741
14991TIP3    H166388   3.266   1.305  13.795  0.7447 -1.0670 -0.8290
14991TIP3    H266389   3.214   1.388  13.680  0.2983  1.2842  1.0172
14992TIP3   OH266390   2.167   0.979  13.164  0.0771  0.2915  0.1002
14992TIP3    H166391   2.234   0.999  13.229  0.6559  1.6484 -0.8879
14992TIP3    H266392   2.200   0.902  13.118  1.5386  1.6288 -1.1476
14993TIP3   OH266393   3.622   5.568  15.989 -0.0285 -0.2344 -0.1690
14993TIP3    H166394   3.541   5.598  16.030  0.5817  0.5874  0.4637
14993TIP3    H266395   3.602   5.481  15.955 -0.8058 -0.5751  1.1378
14994TIP3   OH266396   6.448   0.609   5.148 -0.1811  0.3659  0.2541
14994TIP3    H166397   6.470   0.517   5.134  0.2942  0.3619  1.0072
14994TIP3    H266398   6.517   0.642   5.206 -1.2283  0.7768  1.3011
14995TIP3   OH266399   1.554   4.882  14.351 -0.2131 -0.3396 -0.0798
14995TIP3    H166400   1.624   4.897  14.287 -0.5619 -0.0966 -0.4081
14995TIP3    H266401   1.479   4.855  14.298 -0.4332 -0.3697  0.2493
14996TIP3   OH266402   3.236   5.006   5.470 -0.0214  0.3698  0.2678
14996TIP3    H166403   3.153   4.969   5.500  0.4247 -0.4024  0.5831
14996TIP3    H266404   3.229   5.009   5.375  0.8918 -2.9416  0.0334
14997TIP3   OH266405   2.151   4.423  13.260 -0.6383 -0.4604  0.1140
14997TIP3    H166406   2.227   4.453  13.210 -1.7716 -0.8865 -1.9121
14997TIP3    H266407   2.157   4.327  13.258 -1.2612 -0.4961 -0.1086
14998TIP3   OH266408   4.509   4.022   2.358 -0.0010 -0.5739  0.8314
14998TIP3    H166409   4.569   3.948   2.360  1.1970  0.3200 -0.7744
14998TIP3    H266410   4.510   4.056   2.447  1.8881 -0.5630  0.8198
14999TIP3   OH266411   4.383   1.639   5.993 -0.0891  0.1933  0.7604
14999TIP3    H166412   4.433   1.720   6.005  0.3099 -0.2437  2.1836
14999TIP3    H266413   4.327   1.635   6.071  0.3310 -1.2039  0.9931
15000TIP3   OH266414   6.145   4.746  16.553  0.4914 -0.7752 -0.1113
15000TIP3    H166415   6.229   4.734  16.510  0.7286  2.1492 -0.5861
15000TIP3    H266416   6.081   4.708  16.492  1.4126 -2.6586  0.0828
15001TIP3   OH266417   1.736   0.874  11.664 -0.0296  0.5723 -0.1681
15001TIP3    H166418   1.645   0.885  11.694 -0.4449  0.7667 -1.4359
15001TIP3    H266419   1.734   0.904  11.573  0.8173 -1.5537 -0.9168
15002TIP3   OH266420   5.911   4.567  11.690  0.9792 -0.3598 -0.0158
15002TIP3    H166421   5.930   4.501  11.756 -1.0328 -1.3762 -0.4078
15002TIP3    H266422   5.893   4.646  11.740  4.3885  0.1874  0.4183
15003TIP3   OH266423   3.030   3.570  15.702  0.9272 -0.7000  0.2293
15003TIP3    H166424   2.993   3.600  15.784 -1.3598 -1.9144 -0.3104
15003TIP3    H266425   3.024   3.475  15.706 -0.4292 -0.7324 -1.8751
15004TIP3   OH266426   3.208   4.285  11.172  0.3968 -0.1037  0.4899
15004TIP3    H166427   3.138   4.240  11.220  1.3114 -2.4671 -0.3359
15004TIP3    H266428   3.202   4.249  11.083  1.2442  1.3300 -0.1575
15005TIP3   OH266429   6.304   2.632  12.285  0.6655 -0.0992  0.7568
15005TIP3    H166430   6.216   2.611  12.318  0.8192 -1.1471  0.5151
15005TIP3    H266431   6.293   2.715  12.240 -0.1036  0.0318  1.1699
15006TIP3   OH266432   3.072   0.374  15.169 -0.4733  0.0600  0.6789
15006TIP3    H166433   3.082   0.469  15.163  0.5529 -0.0298  0.8703
15006TIP3    H266434   3.159   0.339  15.150 -0.9217 -0.8600  0.2844
15007TIP3   OH266435   6.003   5.221   1.100 -0.2121 -0.5742 -0.6990
15007TIP3    H166436   5.932   5.162   1.076 -0.7832  0.1308 -0.7773
15007TIP3    H266437   6.077   5.164   1.119 -0.5318 -1.2710 -1.5213
15008TIP3   OH266438   4.664   3.939   3.594  1.0940  0.2266 -0.5050
15008TIP3    H166439   4.596   3.910   3.654  0.8624 -1.2286 -1.4697
15008TIP3    H266440   4.666   4.035   3.605 -0.7098  0.2260 -0.0727
15009TIP3   OH266441   2.387   2.757  15.001  0.2437  0.2477  0.5076
15009TIP3    H166442   2.444   2.732  14.928 -0.6003 -0.2346  0.0041
15009TIP3    H266443   2.410   2.698  15.072 -0.3678 -0.6809 -0.0448
15010TIP3   OH266444   1.332   5.642  15.332 -0.8121  0.1807 -0.8253
15010TIP3    H166445   1.258   5.674  15.383  2.0342  1.0043  3.0483
15010TIP3    H266446   1.376   5.580  15.390  0.8690 -1.1786 -3.4611
15011TIP3   OH266447   1.338   2.522   1.449 -0.3530 -0.4844 -0.8404
15011TIP3    H166448   1.265   2.512   1.387 -0.5268  1.3862 -0.9515
15011TIP3    H266449   1.410   2.554   1.395 -0.2766  0.4026 -0.2161
15012TIP3   OH266450   0.127   1.779   5.207  0.0781 -0.2738  0.3319
15012TIP3    H166451   0.121   1.845   5.276  1.8780 -0.0635  0.2949
15012TIP3    H266452   0.198   1.721   5.234  0.4281 -0.5161 -1.0594
15013TIP3   OH266453   4.277   5.671  13.255 -0.4131 -0.2594 -0.3229
15013TIP3    H166454   4.232   5.693  13.173  1.1223 -0.6903 -1.3136
15013TIP3    H266455   4.325   5.590  13.235 -1.8134 -1.6404  1.6903
15014TIP3   OH266456   5.565   4.731  14.347 -0.2338  0.5683 -0.6663
15014TIP3    H166457   5.558   4.752  14.440 -0.0143 -0.8667 -0.3035
15014TIP3    H266458   5.654   4.755  14.324 -0.6914  2.1485 -0.8412
15015TIP3   OH266459   2.505   1.440   2.104  0.0049  0.2020 -0.6289
15015TIP3    H166460   2.573   1.401   2.159  0.8075  2.1255 -0.2275
15015TIP3    H266461   2.444   1.479   2.166  0.1469  1.1125 -1.0580
15016TIP3   OH266462   5.775   5.032   2.424 -0.2634 -0.1501  0.4636
15016TIP3    H166463   5.821   5.018   2.341 -2.3168  0.9025 -0.8935
15016TIP3    H266464   5.684   5.047   2.399 -0.8187  0.7273  2.8695
15017TIP3   OH266465   4.777   2.097   6.064  0.4487  0.4294  0.3680
15017TIP3    H166466   4.777   2.066   5.974  0.4562  0.2151  0.4423
15017TIP3    H266467   4.806   2.188   6.058  1.9831 -0.0625  0.3173
15018TIP3   OH266468   3.705   5.519  11.733 -0.0131  0.3980  0.2471
15018TIP3    H166469   3.648   5.559  11.667  0.3051  1.0599  0.3722
15018TIP3    H266470   3.765   5.464  11.683  1.9759  2.9749 -0.2834
15019TIP3   OH266471   6.561   5.372  13.613  0.1438 -0.0348  0.2246
15019TIP3    H166472   6.588   5.302  13.672  1.6605  0.3300  0.0100
15019TIP3    H266473   6.493   5.333  13.559  1.2572 -1.5040 -0.1698
15020TIP3   OH266474   4.811   2.900  12.753  0.3761  0.0975  0.2831
15020TIP3    H166475   4.896   2.899  12.798  0.7029  1.6840 -0.2619
15020TIP3    H266476   4.803   2.814  12.713  2.5403  0.5516 -1.1586
15021TIP3   OH266477   5.863   0.915  11.789  0.0677  0.0349  0.0953
15021TIP3    H166478   5.894   0.876  11.707  0.0732 -0.8307  0.5053
15021TIP3    H266479   5.818   0.843  11.834  0.9312  0.2401  1.3063
15022TIP3   OH266480   5.747   4.479  16.277  0.0408  0.3641 -0.2618
15022TIP3    H166481   5.824   4.466  16.333 -1.3878 -1.3648  1.3388
15022TIP3    H266482   5.771   4.437  16.194  1.3359  1.0415 -0.2443
15023TIP3   OH266483   3.690   2.444   2.181  0.4792 -0.0109  0.0176
15023TIP3    H166484   3.731   2.394   2.110 -0.0892  0.7709 -0.8802
15023TIP3    H266485   3.598   2.453   2.154  0.7084  2.0976 -0.1851
15024TIP3   OH266486   6.114   2.871  12.980  0.0385 -0.1955 -0.2692
15024TIP3    H166487   6.093   2.926  12.904  0.4156 -0.5069 -0.6075
15024TIP3    H266488   6.205   2.845  12.966 -0.3065 -1.3746 -0.4163
15025TIP3   OH266489   2.889   4.897   5.698 -0.3023  0.0696  0.8954
15025TIP3    H166490   2.970   4.882   5.747  1.0359 -0.7811 -1.4914
15025TIP3    H266491   2.918   4.921   5.610 -2.6514  2.2608  0.6628
15026TIP3   OH266492   4.429   6.754  16.029  0.3270 -0.3178  0.9769
15026TIP3    H166493   4.486   6.761  15.952  0.2089 -0.4826  0.8733
15026TIP3    H266494   4.373   6.831  16.025  0.3186 -0.3282  0.8974
15027TIP3   OH266495   0.290   6.772  12.359  0.2511  0.6001 -0.3510
15027TIP3    H166496   0.257   6.847  12.308 -2.7175  0.7606  1.7014
15027TIP3    H266497   0.217   6.710  12.360  1.6038 -0.9888  0.5639
15028TIP3   OH266498   5.469   4.830   5.516 -0.0843 -0.6587  0.2630
15028TIP3    H166499   5.469   4.880   5.598 -0.1137  0.2065 -0.2576
15028TIP3    H266500   5.463   4.897   5.447 -0.2118 -1.3857 -0.4395
15029TIP3   OH266501   3.711   5.926   4.350  0.2987  0.0642 -0.4503
15029TIP3    H166502   3.784   5.899   4.294 -1.5613 -1.4839 -2.1996
15029TIP3    H266503   3.726   5.879   4.432  0.4387 -1.5082 -1.3500
15030TIP3   OH266504   2.056   6.547   0.677  0.1509 -0.5965  0.5220
15030TIP3    H166505   2.144   6.567   0.649 -0.0536  0.8166  0.8726
15030TIP3    H266506   2.062   6.459   0.715  1.6101 -0.0941  1.4729
15031TIP3   OH266507   4.353   4.249  13.462 -0.2679 -0.3843  0.0067
15031TIP3    H166508   4.369   4.271  13.370 -0.4574  0.6931  0.2187
15031TIP3    H266509   4.301   4.322  13.495  0.4440 -0.3881  1.1692
15032TIP3   OH266510   0.253   0.253  16.578 -0.1976  0.2551 -0.0770
15032TIP3    H166511   0.299   0.229  16.658  0.2664 -1.7852 -0.9136
15032TIP3    H266512   0.321   0.285  16.520 -0.2723  0.0760 -0.2643
15033TIP3   OH266513   4.513   1.023   1.907  0.0168  0.1737 -0.0446
15033TIP3    H166514   4.520   0.931   1.885  0.3073  0.0171  0.6855
15033TIP3    H266515   4.510   1.068   1.823 -2.4814 -0.6592 -0.4523
15034TIP3   OH266516   4.954   3.963   2.982 -0.6282  0.1311 -0.1196
15034TIP3    H166517   4.921   4.053   2.982 -0.6300  0.1578  1.3954
15034TIP3    H266518   4.960   3.941   3.075  0.6153 -0.9773 -0.4540
15035TIP3   OH266519   1.773   4.482   5.409  0.1294 -0.3207  0.1725
15035TIP3    H166520   1.818   4.500   5.492 -0.9908  0.0616  0.7099
15035TIP3    H266521   1.757   4.387   5.411 -2.5321  0.1129  1.7845
15036TIP3   OH266522   4.562   2.375  16.224  0.0252 -0.1944  0.0430
15036TIP3    H166523   4.555   2.325  16.143 -1.0911  1.5247 -0.9732
15036TIP3    H266524   4.614   2.321  16.282  2.4542 -0.6632 -2.4611
15037TIP3   OH266525   0.401   1.874   0.864  0.4079  0.0469  0.0343
15037TIP3    H166526   0.379   1.783   0.885 -1.2683  1.1641  3.4064
15037TIP3    H266527   0.495   1.880   0.881  0.8866 -1.4195 -1.8360
15038TIP3   OH266528   5.932   0.837  14.184  0.2274 -0.2729  0.3979
15038TIP3    H166529   5.877   0.759  14.175  1.1587 -0.7843 -1.0123
15038TIP3    H266530   5.900   0.879  14.264  0.5276 -2.7786  1.9195
15039TIP3   OH266531   4.018   3.964   4.471  0.2932 -0.2783  0.7330
15039TIP3    H166532   4.093   3.964   4.531  0.6732 -0.0762  0.2661
15039TIP3    H266533   3.970   4.044   4.492 -0.3533 -0.9208  1.7180
15040TIP3   OH266534   0.327   6.279   6.332 -0.5579  0.3009  0.2644
15040TIP3    H166535   0.358   6.276   6.423 -2.3778  0.4932  0.9224
15040TIP3    H266536   0.343   6.369   6.304 -0.0191  0.2523  0.4191
15041TIP3   OH266537   4.499   6.654  13.334  0.1722  0.3461  0.2787
15041TIP3    H166538   4.571   6.596  13.358 -0.0042 -0.0499 -0.1460
15041TIP3    H266539   4.537   6.714  13.270 -0.4040 -1.2218 -1.5895
15042TIP3   OH266540   1.693   2.440   1.105 -0.3669  0.1864  0.4252
15042TIP3    H166541   1.765   2.495   1.134 -0.4482  0.1389  0.7169
15042TIP3    H266542   1.735   2.361   1.072 -0.2974  0.0234  0.8923
15043TIP3   OH266543   3.523   5.587   5.353  0.2001  0.4615  0.2534
15043TIP3    H166544   3.522   5.621   5.442  0.0938  0.3737  0.2856
15043TIP3    H266545   3.493   5.496   5.361 -2.8918  1.3889 -0.2591
15044TIP3   OH266546   4.533   1.288  10.743 -0.0939 -0.3478 -0.4085
15044TIP3    H166547   4.539   1.375  10.784  2.5493 -0.4869 -0.3639
15044TIP3    H266548   4.476   1.238  10.801 -0.8512  1.0653  0.0957
15045TIP3   OH266549   0.064   2.611   4.688 -0.1906 -0.2811  0.2695
15045TIP3    H166550   0.104   2.663   4.618 -1.4328  0.2569 -0.0594
15045TIP3    H266551   0.039   2.529   4.646  0.1283 -0.4193  0.3544
15046TIP3   OH266552   3.580   6.139  16.929  0.4828 -0.1339 -0.1656
15046TIP3    H166553   3.649   6.111  16.989  1.1995 -0.4243 -1.1074
15046TIP3    H266554   3.627   6.191  16.862 -0.0664 -1.1153 -1.3270
15047TIP3   OH266555   1.738   5.059   3.247 -0.3056 -0.1289 -0.5945
15047TIP3    H166556   1.825   5.082   3.280  0.1036  0.7772 -2.2191
15047TIP3    H266557   1.678   5.078   3.319  0.8491 -0.8791  0.5794
15048TIP3   OH266558   5.195   4.939   4.317  0.2224  0.3634  0.8172
15048TIP3    H166559   5.157   5.014   4.271  1.6829  1.7638  1.8236
15048TIP3    H266560   5.205   4.872   4.249  0.2809  1.6069 -0.4304
15049TIP3   OH266561   2.126   2.466  11.113 -0.2019 -0.1919  0.1116
15049TIP3    H166562   2.149   2.409  11.040 -2.0098 -0.4052 -0.2969
15049TIP3    H266563   2.041   2.434  11.143 -1.6227  2.7831 -0.6440
15050TIP3   OH266564   3.482   2.613   0.791  0.0932 -0.3486  0.4694
15050TIP3    H166565   3.558   2.572   0.831 -0.6502 -2.2339 -0.0298
15050TIP3    H266566   3.432   2.541   0.753  0.4010  1.2861 -3.2643
15051TIP3   OH266567   2.086   2.965   5.711  0.2703 -0.1581 -0.1964
15051TIP3    H166568   2.057   3.013   5.788  1.4151  0.4517 -0.1201
15051TIP3    H266569   2.151   2.903   5.744  1.0836  0.4053 -0.7085
15052TIP3   OH266570   5.467   1.366  15.809 -0.3385 -0.1458 -0.2733
15052TIP3    H166571   5.438   1.444  15.760 -1.8650 -0.3604  0.2467
15052TIP3    H266572   5.465   1.296  15.744 -0.6844 -0.0966 -0.3170
15053TIP3   OH266573   1.269   1.812   6.074  0.4249  0.3656 -0.2074
15053TIP3    H166574   1.229   1.894   6.102  1.5424  0.8254  0.0756
15053TIP3    H266575   1.363   1.832   6.068  0.4843 -0.3756 -1.9627
15054TIP3   OH266576   0.959   5.200   5.181 -0.0407  0.1828 -1.1845
15054TIP3    H166577   0.918   5.116   5.162  0.7725 -0.6987  0.8783
15054TIP3    H266578   1.030   5.208   5.117 -1.1218  0.0547 -2.4149
15055TIP3   OH266579   2.971   0.899   0.880  0.1545 -0.5966 -0.4270
15055TIP3    H166580   2.939   0.899   0.790  0.2411  0.8632 -0.4740
15055TIP3    H266581   3.051   0.952   0.877  1.1592 -2.0327  0.1767
15056TIP3   OH266582   0.802   2.386  17.180  0.6967 -0.3708 -0.0160
15056TIP3    H166583   0.801   2.368  17.274 -0.1332 -0.5228 -0.0477
15056TIP3    H266584   0.719   2.432  17.164  1.3468  0.6487 -0.4814
15057TIP3   OH266585   1.362   6.059   3.195  0.0189 -0.1642 -0.1838
15057TIP3    H166586   1.348   6.149   3.226  0.4036  0.0764 -0.7016
15057TIP3    H266587   1.382   6.009   3.274  1.0125  0.4512 -0.0422
15058TIP3   OH266588   0.610   5.623   0.643 -0.0256 -0.1407  0.1571
15058TIP3    H166589   0.553   5.580   0.706  0.9834  0.6287  1.6211
15058TIP3    H266590   0.556   5.692   0.605 -0.6555 -0.6529  0.1032
15059TIP3   OH266591   1.282   6.015  15.389 -0.2468  0.6322  0.0256
15059TIP3    H166592   1.214   5.958  15.424  0.6009 -2.1265 -2.5501
15059TIP3    H266593   1.234   6.088  15.349 -1.4654  0.7252  1.6455
15060TIP3   OH266594   4.994   5.362   3.212 -0.2124 -0.3585 -0.1369
15060TIP3    H166595   5.047   5.369   3.291  0.3535 -1.6256 -0.4000
15060TIP3    H266596   4.968   5.270   3.207 -2.6258  0.2696  0.0916
15061TIP3   OH266597   3.716   5.039   0.266 -0.1182 -0.0871  0.0680
15061TIP3    H166598   3.793   5.095   0.266  0.1717 -0.4768 -0.6631
15061TIP3    H266599   3.748   4.953   0.293 -0.3472 -0.1786  0.0528
15062TIP3   OH266600   1.579   1.501   5.680  0.0625  0.1900 -0.6347
15062TIP3    H166601   1.606   1.487   5.771 -1.4591 -0.2007 -0.2427
15062TIP3    H266602   1.584   1.596   5.669 -0.4664  0.3102  0.0856
15063TIP3   OH266603   5.148   4.302   2.333  0.3538 -0.5648 -0.2011
15063TIP3    H166604   5.143   4.393   2.362  0.8580 -0.2437 -1.0934
15063TIP3    H266605   5.214   4.262   2.388 -1.5232 -1.0091  1.7831
15064TIP3   OH266606   0.818   0.016   5.370 -0.2348  0.1186 -0.1735
15064TIP3    H166607   0.908  -0.012   5.356  0.2264  1.1941  0.5715
15064TIP3    H266608   0.802   0.002   5.464  0.0749  2.4399  0.2700
15065TIP3   OH266609   6.066   4.714  12.184 -0.2684  0.5626  0.2374
15065TIP3    H166610   6.046   4.635  12.135  0.2091  0.9801 -0.6374
15065TIP3    H266611   6.111   4.683  12.263 -2.2033 -0.2033  1.0793
15066TIP3   OH266612   6.653   2.607  16.371  0.0503 -0.4783 -0.2507
15066TIP3    H166613   6.578   2.573  16.420  0.0647  0.6343  0.5821
15066TIP3    H266614   6.614   2.667  16.308  0.2804  0.7023  0.7093
15067TIP3   OH266615   6.622   6.743   5.089  0.3690  0.8453 -0.9015
15067TIP3    H166616   6.712   6.766   5.067 -0.0813  1.4452 -2.1287
15067TIP3    H266617   6.597   6.677   5.024  0.3313 -0.2341  0.1916
15068TIP3   OH266618   1.768   5.360   1.861  0.2964  0.3312  0.2088
15068TIP3    H166619   1.854   5.337   1.825 -0.0829  0.5743 -0.8708
15068TIP3    H266620   1.745   5.285   1.916  1.2353  0.3049  0.5844
15069TIP3   OH266621   0.399   1.079  11.651  0.0562 -0.1808  0.1950
15069TIP3    H166622   0.384   1.019  11.579 -1.0844 -0.3128  0.5228
15069TIP3    H266623   0.312   1.115  11.670  0.7672  1.8269 -0.2252
15070TIP3   OH266624   3.699   6.107  11.806  0.7853 -0.1845 -0.6692
15070TIP3    H166625   3.613   6.077  11.779  1.2621 -1.7192 -0.5404
15070TIP3    H266626   3.682   6.174  11.872 -0.3104 -0.0430 -1.0831
15071TIP3   OH266627   4.222   3.530   0.598 -0.1839  0.0631  0.1321
15071TIP3    H166628   4.225   3.547   0.692  0.9093 -0.0292  0.1179
15071TIP3    H266629   4.161   3.595   0.563 -0.3835  0.2688  0.8667
15072TIP3   OH266630   4.429   4.339  17.231 -0.8381 -0.3665 -0.1028
15072TIP3    H166631   4.417   4.312  17.322 -1.8341 -0.5978 -0.2903
15072TIP3    H266632   4.461   4.261  17.186  1.3434  0.2239  0.3816
15073TIP3   OH266633   1.850   4.474  12.754  0.3086  0.4217  0.0002
15073TIP3    H166634   1.844   4.562  12.792  0.3163  0.7249 -0.6830
15073TIP3    H266635   1.848   4.415  12.829  0.0548  0.9988  0.4553
15074TIP3   OH266636   4.703   5.400   3.208  0.4042 -0.4926  0.2893
15074TIP3    H166637   4.695   5.491   3.237  0.7518  0.6824 -3.1467
15074TIP3    H266638   4.797   5.388   3.194  0.3006 -1.2375  0.2288
15075TIP3   OH266639   5.280   5.391   1.414  0.1022 -0.0319  0.7384
15075TIP3    H166640   5.234   5.452   1.471 -0.2898  0.0741  0.3126
15075TIP3    H266641   5.256   5.417   1.326 -0.8221 -1.3781  0.5725
15076TIP3   OH266642   6.600   6.378  10.915  0.1012 -0.1036 -0.5947
15076TIP3    H166643   6.645   6.343  10.992  0.8027  1.7420 -0.1271
15076TIP3    H266644   6.513   6.401  10.947 -0.2014 -0.9572 -0.7885
15077TIP3   OH266645   4.079   1.940   1.655 -0.0619  0.2040 -0.2374
15077TIP3    H166646   4.062   1.868   1.716  0.9159 -2.1556 -2.6740
15077TIP3    H266647   4.125   1.900   1.582 -2.8404  2.5698 -3.4500
15078TIP3   OH266648   3.184   3.923  13.541 -0.1704 -0.0206 -0.5197
15078TIP3    H166649   3.102   3.878  13.561  0.3762 -0.0376  1.9282
15078TIP3    H266650   3.178   3.946  13.449 -2.2449 -1.4235 -0.7546
15079TIP3   OH266651   2.096   6.495   0.347  0.6731 -0.2148 -0.1605
15079TIP3    H166652   2.129   6.494   0.436  2.3186  0.8731 -0.7414
15079TIP3    H266653   2.174   6.502   0.292 -0.3055 -0.9286 -1.6904
15080TIP3   OH266654   3.809   4.566   2.819  0.3864 -0.4670 -0.0353
15080TIP3    H166655   3.796   4.597   2.909  0.1042  0.5574 -0.4215
15080TIP3    H266656   3.818   4.471   2.827 -0.2935 -0.4478  1.0051
15081TIP3   OH266657   4.561   0.341  14.714  0.6128  0.4445 -0.4444
15081TIP3    H166658   4.532   0.259  14.673 -1.4706  2.1248 -2.4419
15081TIP3    H266659   4.641   0.364  14.668  0.0690  0.6003 -1.3201
15082TIP3   OH266660   0.543   2.504   1.441 -0.6187  0.6211  0.0241
15082TIP3    H166661   0.530   2.596   1.419 -4.3395  0.6678  1.9893
15082TIP3    H266662   0.608   2.505   1.512  1.9985  1.3999 -2.3203
15083TIP3   OH266663   5.901   2.991  16.996 -0.3014 -0.0902  0.1307
15083TIP3    H166664   5.988   3.027  17.013  0.0315 -0.8067 -0.0133
15083TIP3    H266665   5.847   3.025  17.067 -0.0655  0.9115 -0.1581
15084TIP3   OH266666   6.651   2.487   2.062 -0.5672  0.5338 -0.1904
15084TIP3    H166667   6.669   2.574   2.099 -0.3747  0.4554 -0.1007
15084TIP3    H266668   6.720   2.431   2.097 -0.1632  0.5382 -0.9680
15085TIP3   OH266669   3.013   4.057  11.998  0.3134  0.0806  0.1659
15085TIP3    H166670   2.935   4.016  12.034 -0.7790  0.7848 -1.3822
15085TIP3    H266671   3.076   3.985  11.988 -1.1248 -1.0069 -1.2797
15086TIP3   OH266672   6.263   6.210   4.013  0.2552  0.3267 -0.2412
15086TIP3    H166673   6.268   6.184   4.105 -0.7679 -0.4034 -0.3773
15086TIP3    H266674   6.353   6.228   3.988  0.4345  1.4440  1.1576
15087TIP3   OH266675   5.643   4.812   4.876  0.2346  0.4265  0.3037
15087TIP3    H166676   5.582   4.880   4.905  2.0011  1.6906  1.1476
15087TIP3    H266677   5.718   4.860   4.841  1.2016 -1.0801  0.2405
15088TIP3   OH266678   4.229   2.250  15.399  0.0863 -0.2116  0.1805
15088TIP3    H166679   4.226   2.340  15.365 -0.1050 -0.1860  0.2657
15088TIP3    H266680   4.192   2.256  15.486  2.9942  0.1990  1.4634
15089TIP3   OH266681   5.653   5.448  14.376 -0.3278  0.3787  0.4958
15089TIP3    H166682   5.681   5.528  14.422  1.0523  1.1764 -1.6798
15089TIP3    H266683   5.716   5.381  14.403 -1.8226 -0.1753  2.7753
15090TIP3   OH266684   6.783   0.806  14.453 -0.2029  0.4478  1.0997
15090TIP3    H166685   6.817   0.862  14.383 -0.0526  0.1876  0.9632
15090TIP3    H266686   6.758   0.725  14.409  1.8622 -0.5246  1.6560
15091TIP3   OH266687   0.470   2.408   2.756 -0.1501  0.2979 -0.4261
15091TIP3    H166688   0.494   2.382   2.667  0.1560 -1.4516  0.1492
15091TIP3    H266689   0.404   2.344   2.782  0.8944 -0.1723  1.1578
15092TIP3   OH266690   4.571   3.654   5.130  0.0197  0.5056 -0.6320
15092TIP3    H166691   4.528   3.733   5.161 -2.3776 -1.8896  2.5314
15092TIP3    H266692   4.499   3.593   5.113  1.8634 -1.5023 -1.4793
15093TIP3   OH266693   2.488   4.207   4.151 -0.2323  0.0722 -0.8382
15093TIP3    H166694   2.472   4.121   4.189  0.4568  0.8104  1.1467
15093TIP3    H266695   2.549   4.191   4.079  1.2873 -0.8825  0.6415
15094TIP3   OH266696   5.122   1.022  11.716 -0.0714  0.4378  0.0278
15094TIP3    H166697   5.203   1.071  11.703  0.6645 -0.9364 -0.6935
15094TIP3    H266698   5.110   0.974  11.635 -1.0175 -0.2386  0.5598
15095TIP3   OH266699   2.386   5.302   0.832 -0.1151 -0.1033  0.3283
15095TIP3    H166700   2.300   5.290   0.872  0.3056 -0.0868  1.2630
15095TIP3    H266701   2.411   5.214   0.803 -0.3940 -0.1295  0.1647
15096TIP3   OH266702   4.079   0.919   0.091  0.5822 -0.0136  0.0076
15096TIP3    H166703   4.098   0.916   0.185 -0.1793  0.1719  0.1704
15096TIP3    H266704   4.136   0.853   0.052  1.5159  0.5037  0.4965
15097TIP3   OH266705   4.753   3.506  12.070  0.1569  0.8046  0.3175
15097TIP3    H166706   4.695   3.576  12.038 -0.0951  0.6709  0.4769
15097TIP3    H266707   4.838   3.526  12.032  0.7228  2.7047  2.4652
15098TIP3   OH266708   6.721   4.635  15.218 -0.0369 -0.0601  0.2960
15098TIP3    H166709   6.787   4.600  15.277 -1.0695 -2.6755 -0.0436
15098TIP3    H266710   6.653   4.670  15.276 -0.0023 -0.5976  0.6638
15099TIP3   OH266711   0.759   0.969  12.864  0.3016  0.5280  0.2139
15099TIP3    H166712   0.694   0.900  12.873  1.5386 -1.0284 -2.3808
15099TIP3    H266713   0.707   1.050  12.859 -1.2291 -0.3508  1.4647
15100TIP3   OH266714   2.098   5.624  15.357 -0.2481  0.5908  0.4594
15100TIP3    H166715   2.118   5.530  15.359  1.2470  0.9098  1.6106
15100TIP3    H266716   2.184   5.666  15.358 -0.9047  1.9649 -0.8893
15101TIP3   OH266717   0.548   3.980   5.083  0.5347 -0.1512 -1.0593
15101TIP3    H166718   0.545   4.074   5.064  1.0370 -0.2093 -1.4490
15101TIP3    H266719   0.584   3.973   5.171  0.3852  0.0276 -0.9855
15102TIP3   OH266720   2.882   2.472  12.494 -0.1600  0.7317  0.8413
15102TIP3    H166721   2.860   2.507  12.580 -1.1524  0.2546  0.7960
15102TIP3    H266722   2.797   2.449  12.456  0.3851 -0.5579  0.3835
15103TIP3   OH266723   6.618   2.651  11.016  0.0626 -0.3499 -0.9276
15103TIP3    H166724   6.591   2.743  11.023  1.9283  0.1166  0.6371
15103TIP3    H266725   6.538   2.601  11.030 -0.7156  1.0367 -0.3397
15104TIP3   OH266726   0.775   4.989  11.120 -0.4558 -0.0642  0.5320
15104TIP3    H166727   0.728   5.026  11.194 -0.3561  0.5936  0.2694
15104TIP3    H266728   0.823   5.063  11.083  2.3079 -1.0561  1.9426
15105TIP3   OH266729   4.815   1.667  12.507 -0.2190 -0.7916 -0.9031
15105TIP3    H166730   4.829   1.578  12.475 -2.5235 -1.9250  1.0477
15105TIP3    H266731   4.749   1.704  12.449  0.0677 -0.7002 -1.1661
15106TIP3   OH266732   3.254   4.112   0.347  0.1473 -0.8541 -0.4698
15106TIP3    H166733   3.234   4.022   0.321  1.2776 -0.7044 -1.9473
15106TIP3    H266734   3.201   4.166   0.289  0.6083 -0.5587 -0.6206
15107TIP3   OH266735   1.610   1.379   5.937 -0.5786  0.7478 -0.0387
15107TIP3    H166736   1.553   1.364   6.012 -0.3167  1.1031  0.2345
15107TIP3    H266737   1.678   1.438   5.970  0.3178 -0.1923 -0.1714
15108TIP3   OH266738   5.482   3.622   6.067  0.2792 -1.0713 -0.3678
15108TIP3    H166739   5.419   3.634   5.996 -1.4892 -1.8327  1.0428
15108TIP3    H266740   5.524   3.538   6.047  0.1762 -1.0270 -0.7881
15109TIP3   OH266741   0.751   1.080  10.804  0.3470 -0.2188  0.1624
15109TIP3    H166742   0.729   1.006  10.861 -1.2430  0.1419  0.0629
15109TIP3    H266743   0.794   1.040  10.728  0.7459 -0.9040  0.7479
15110TIP3   OH266744   4.550   5.291   2.462  1.0971  0.3360  0.1638
15110TIP3    H166745   4.614   5.245   2.408  0.3300 -0.6304  0.0667
15110TIP3    H266746   4.602   5.329   2.533  1.6052 -1.6623  0.8924
15111TIP3   OH266747   5.980   3.923  12.967 -0.1332 -0.1365  0.3902
15111TIP3    H166748   6.018   4.007  12.992  0.9718 -0.7626  0.8184
15111TIP3    H266749   6.030   3.895  12.891  0.0633 -0.8089  0.7641
15112TIP3   OH266750   6.419   4.607  16.342  1.0044  0.2534 -0.3189
15112TIP3    H166751   6.489   4.601  16.277  2.1302  1.3746  0.7502
15112TIP3    H266752   6.419   4.699  16.369 -1.7694  0.5735 -1.2383
15113TIP3   OH266753   4.132   6.060  12.200 -0.5949 -0.1000 -0.4049
15113TIP3    H166754   4.121   6.134  12.139 -1.6928  0.4976  0.4918
15113TIP3    H266755   4.108   5.983  12.148 -2.0104  0.4504 -0.6134
15114TIP3   OH266756   1.096   6.570   3.479 -0.9574 -0.0295  0.3958
15114TIP3    H166757   1.163   6.573   3.411 -0.8539 -1.4404  0.4350
15114TIP3    H266758   1.018   6.606   3.437 -0.5431  0.3582 -0.0497
15115TIP3   OH266759   3.093   1.079   3.672  0.0761 -0.1458  0.0720
15115TIP3    H166760   3.080   0.984   3.671 -0.2016 -0.1272 -3.9560
15115TIP3    H266761   3.014   1.115   3.631  1.7228  1.5641 -1.7108
15116TIP3   OH266762   3.233   1.703   3.808  0.7954 -0.1296 -0.0024
15116TIP3    H166763   3.229   1.733   3.899  2.0806  0.4637 -0.1295
15116TIP3    H266764   3.213   1.610   3.813  2.6099 -0.4795  1.1174
15117TIP3   OH266765   2.858   0.938   5.593 -1.2134  0.0367 -0.3726
15117TIP3    H166766   2.859   1.028   5.559 -1.8293  0.5119  0.8314
15117TIP3    H266767   2.852   0.949   5.688 -1.2231 -1.2840 -0.2186
15118TIP3   OH266768   4.497   5.720  12.530  0.0713  0.0855  0.3087
15118TIP3    H166769   4.520   5.648  12.471  1.6414 -0.4839  1.5696
15118TIP3    H266770   4.568   5.784  12.518  0.3779 -0.0204  1.5439
15119TIP3   OH266771   2.906   1.845   4.530  0.3090 -0.0571 -0.0203
15119TIP3    H166772   2.928   1.879   4.443 -0.2964  0.2156 -0.0721
15119TIP3    H266773   2.928   1.917   4.589 -1.3126  0.5773 -0.1643
15120TIP3   OH266774   2.057   4.643  12.592 -0.1676  0.1786  0.3802
15120TIP3    H166775   2.126   4.666  12.531  0.3115 -0.2832  0.7494
15120TIP3    H266776   1.981   4.625  12.536 -0.6951  3.0198  0.0787
15121TIP3   OH266777   1.925   2.243   6.598 -0.3043 -0.5530  0.1054
15121TIP3    H166778   1.860   2.262   6.666 -1.1441 -1.5933 -0.3957
15121TIP3    H266779   1.928   2.322   6.545  2.1945  1.2612  2.7850
15122TIP3   OH266780   2.316   5.325  12.363  0.1525 -0.3757  0.1265
15122TIP3    H166781   2.364   5.279  12.432  0.0082  0.8673  1.0558
15122TIP3    H266782   2.294   5.410  12.400  0.2680  0.4072 -1.5376
15123TIP3   OH266783   2.640   0.714  16.164 -0.0542  0.2756  0.2627
15123TIP3    H166784   2.576   0.732  16.095  0.0037  0.6553  0.3069
15123TIP3    H266785   2.644   0.618  16.170  0.6164  0.2211 -0.8898
15124TIP3   OH266786   1.624   5.821  14.990  0.2933 -0.0440 -0.1863
15124TIP3    H166787   1.634   5.753  14.924 -1.3899 -0.5130  0.0038
15124TIP3    H266788   1.555   5.788  15.048  2.6026 -0.2427  2.5831
15125TIP3   OH266789   2.952   0.911   2.975 -0.3119  0.1587 -0.7763
15125TIP3    H166790   2.881   0.852   2.951  1.0514 -1.8014 -0.0913
15125TIP3    H266791   3.031   0.865   2.949  1.0437 -0.3834  3.9004
15126TIP3   OH266792   1.094   1.881  10.534  0.1613 -0.9141 -0.1506
15126TIP3    H166793   1.128   1.940  10.602  1.2426 -2.1415  0.3767
15126TIP3    H266794   1.024   1.932  10.492  2.8580  1.8744 -1.5621
15127TIP3   OH266795   3.647   3.116  16.722 -0.1563 -0.3915  0.1945
15127TIP3    H166796   3.612   3.068  16.647 -0.4740  1.4679 -0.8798
15127TIP3    H266797   3.604   3.077  16.798 -1.1603 -1.1307 -0.7377
15128TIP3   OH266798   4.228   3.375  13.883  0.4003  0.7759  0.3142
15128TIP3    H166799   4.320   3.357  13.868  0.5120  0.9841  0.7525
15128TIP3    H266800   4.189   3.289  13.900  0.7216  0.8118  1.2618
15129TIP3   OH266801   4.465   4.618  17.148 -0.1775  0.3943  1.2293
15129TIP3    H166802   4.479   4.528  17.177  0.5870  0.6807  1.7409
15129TIP3    H266803   4.430   4.663  17.225 -2.0301  0.1750  0.5471
15130TIP3   OH266804   3.124   1.818  17.085  0.3867  0.3871  0.0690
15130TIP3    H166805   3.079   1.736  17.107  0.9279  0.2875  0.8354
15130TIP3    H266806   3.196   1.791  17.027  0.7037  0.2876  0.5061
15131TIP3   OH266807   5.402   1.213  14.448 -0.0021 -0.4937 -0.6651
15131TIP3    H166808   5.348   1.252  14.379  0.6619  2.5395  0.4242
15131TIP3    H266809   5.353   1.230  14.528  2.3771  2.1668  0.3215
15132TIP3   OH266810   6.082   5.580  13.813  0.2728 -0.0525 -0.5343
15132TIP3    H166811   6.138   5.641  13.861 -0.0455  0.9202 -1.3603
15132TIP3    H266812   6.134   5.500  13.805  0.9688  0.3448 -0.0257
15133TIP3   OH266813   1.400   4.775  16.346 -0.7171 -0.0416  0.3468
15133TIP3    H166814   1.311   4.744  16.364 -0.4521 -0.6314  0.6491
15133TIP3    H266815   1.438   4.706  16.292 -0.6977  0.5738 -0.4361
15134TIP3   OH266816   1.840   2.558  13.750  0.0287 -0.3061  0.6973
15134TIP3    H166817   1.802   2.473  13.730 -0.1534 -0.0466 -0.0550
15134TIP3    H266818   1.767   2.619  13.747  0.2893 -0.0035  0.4836
15135TIP3   OH266819   5.087   5.028  12.378  0.2003 -0.7447  0.2184
15135TIP3    H166820   5.142   5.046  12.302  1.2517 -2.9857  0.4093
15135TIP3    H266821   5.000   5.012  12.343  0.4303 -0.6129 -0.4058
15136TIP3   OH266822   1.489   3.234   0.755 -0.9663  0.3866  0.3812
15136TIP3    H166823   1.399   3.259   0.771 -0.9424 -0.0718  1.2388
15136TIP3    H266824   1.500   3.150   0.800  0.0273  0.6788  0.7026
15137TIP3   OH266825   0.279   1.895  12.334  0.0501  0.0758  0.0794
15137TIP3    H166826   0.285   1.808  12.296 -1.5327 -0.3308  0.7267
15137TIP3    H266827   0.328   1.951  12.274 -1.6999 -0.6870 -2.0907
15138TIP3   OH266828   4.183   0.723  11.741  0.6366  0.2663 -0.2018
15138TIP3    H166829   4.253   0.761  11.688 -0.6944  0.1983 -2.0463
15138TIP3    H266830   4.199   0.629  11.739  0.9621  0.3116  0.0909
15139TIP3   OH266831   6.329   1.191   2.640 -0.4507  0.8456  1.1423
15139TIP3    H166832   6.274   1.113   2.642  0.5113  0.1881  1.8506
15139TIP3    H266833   6.409   1.166   2.686  0.1145  2.0533  0.8322
15140TIP3   OH266834   0.408   5.440   3.035  0.0250  0.1982 -0.7165
15140TIP3    H166835   0.437   5.518   2.988 -0.5384 -0.2151 -1.7802
15140TIP3    H266836   0.338   5.471   3.093  1.5916  0.9390  0.8168
15141TIP3   OH266837   1.719   2.466   3.165 -0.4607  0.2417 -0.4318
15141TIP3    H166838   1.703   2.413   3.244  0.1299 -0.9712 -1.1017
15141TIP3    H266839   1.711   2.556   3.194  0.9072 -0.1720  1.2834
15142TIP3   OH266840   1.865   1.573  16.947  0.1848 -0.0569  0.4583
15142TIP3    H166841   1.787   1.517  16.943  1.8092 -2.5478  2.2537
15142TIP3    H266842   1.937   1.513  16.967  1.7783  2.8126  3.9874
15143TIP3   OH266843   2.543   0.347   2.338 -0.6238 -0.0091 -0.7797
15143TIP3    H166844   2.627   0.390   2.327  0.7822 -2.3412  0.4013
15143TIP3    H266845   2.516   0.324   2.249  0.0258  0.6787 -1.1599
15144TIP3   OH266846   0.984   5.576   5.679 -0.7880  0.2319  0.0168
15144TIP3    H166847   0.982   5.532   5.763  1.2130  0.2020  0.0588
15144TIP3    H266848   1.017   5.511   5.618 -1.4893  0.4937 -0.6659
15145TIP3   OH266849   4.340   6.766  16.453 -0.4880  0.2807 -0.1050
15145TIP3    H166850   4.384   6.705  16.394  0.3340  0.3359  0.4411
15145TIP3    H266851   4.388   6.848  16.443  1.6659 -0.5278  2.9193
15146TIP3   OH266852   3.942   4.036  14.441 -0.0991  0.2031 -0.1547
15146TIP3    H166853   3.977   3.991  14.364  1.5625 -0.5054  0.9992
15146TIP3    H266854   3.971   3.984  14.515 -2.3655  0.4335  0.9429
15147TIP3   OH266855   1.940   6.668  11.332 -0.0672  0.1380  0.5891
15147TIP3    H166856   1.999   6.710  11.270  0.0587  1.3090  1.4686
15147TIP3    H266857   1.881   6.739  11.360 -1.3890 -0.8194  0.3127
15148TIP3   OH266858   5.871   0.891  15.535  0.3883 -0.7456  0.4069
15148TIP3    H166859   5.927   0.960  15.570  0.1421  0.7299 -2.0262
15148TIP3    H266860   5.927   0.813  15.534  1.1536 -0.2287  1.6897
15149TIP3   OH266861   5.927   5.933   4.621  0.4880  0.0283 -0.0925
15149TIP3    H166862   5.941   6.020   4.582  0.5937  0.1008  0.1051
15149TIP3    H266863   5.976   5.936   4.703 -0.4304  0.1613  0.4487
15150TIP3   OH266864   6.189   0.517   2.358  0.2586  0.7975 -0.3683
15150TIP3    H166865   6.276   0.554   2.340  0.1294  0.9835 -0.6138
15150TIP3    H266866   6.141   0.529   2.276  0.8258 -1.6545 -1.1166
15151TIP3   OH266867   5.053   4.334  14.919 -0.0458 -0.2184 -0.6497
15151TIP3    H166868   4.963   4.362  14.899 -0.7179 -1.3968  0.6437
15151TIP3    H266869   5.063   4.251  14.873 -0.2201 -0.9381  0.5920
15152TIP3   OH266870   6.590   4.336   5.712  0.2208  0.5264  0.4034
15152TIP3    H166871   6.510   4.358   5.665 -0.6646  0.0425  1.6714
15152TIP3    H266872   6.608   4.245   5.688 -0.1934  0.3011  0.9581
15153TIP3   OH266873   5.927   5.836  12.640  0.2983 -0.2810 -0.8128
15153TIP3    H166874   5.855   5.878  12.687 -0.9793 -2.1774 -1.0146
15153TIP3    H266875   5.908   5.852  12.547  0.5241 -0.1784 -0.8422
15154TIP3   OH266876   1.894   3.522   0.066 -0.6144 -0.6848  0.0438
15154TIP3    H166877   1.847   3.454   0.018 -0.0510  0.8658 -2.8314
15154TIP3    H266878   1.868   3.604   0.024  1.8942  0.5029  0.6913
15155TIP3   OH266879   3.962   5.237   0.524  0.2301 -0.1137  0.3899
15155TIP3    H166880   3.988   5.149   0.551 -0.5338 -0.1320  1.0708
15155TIP3    H266881   3.892   5.262   0.584  2.0378  1.9224  1.7127
15156TIP3   OH266882   0.526   3.660   0.505 -0.4670  0.4211 -0.0325
15156TIP3    H166883   0.523   3.613   0.422  1.4392  0.2170 -0.0141
15156TIP3    H266884   0.515   3.592   0.571  0.8915  0.1705 -0.0487
15157TIP3   OH266885   0.696   0.053  15.864  0.7538  0.2888 -0.5123
15157TIP3    H166886   0.781   0.015  15.843  0.8571  0.5890 -0.6517
15157TIP3    H266887   0.693   0.134  15.812 -0.0905 -0.2973 -1.3928
15158TIP3   OH266888   6.520   6.562  11.543  0.1054 -0.0330  0.3076
15158TIP3    H166889   6.578   6.540  11.616 -0.2930  3.4829  1.8127
15158TIP3    H266890   6.572   6.620  11.488 -0.3731 -0.8217 -0.9903
15159TIP3   OH266891   6.025   2.352   2.505 -0.0078  0.2046 -0.5001
15159TIP3    H166892   5.930   2.339   2.502 -0.1046  1.1978 -1.7714
15159TIP3    H266893   6.061   2.265   2.488 -0.6705 -0.4107  1.0921
15160TIP3   OH266894   2.374   6.402   3.432  0.5268  0.2109 -0.0600
15160TIP3    H166895   2.442   6.429   3.493  1.3036 -0.2136 -0.7322
15160TIP3    H266896   2.315   6.347   3.484  0.0717  1.4815  0.7968
15161TIP3   OH266897   0.747   6.160   0.386 -0.4064  0.2081  0.3006
15161TIP3    H166898   0.741   6.071   0.421  0.6457  0.0657  0.1300
15161TIP3    H266899   0.669   6.169   0.332 -0.3026 -0.7759 -0.0285
15162TIP3   OH266900   3.413   3.051  12.336  0.4537 -0.2286 -0.4922
15162TIP3    H166901   3.423   2.963  12.300  1.3147  0.2517 -1.4667
15162TIP3    H266902   3.410   3.108  12.259 -0.7248  0.5364  0.1103
15163TIP3   OH266903   2.053   4.339  17.044 -0.0559  0.2896  0.5933
15163TIP3    H166904   2.114   4.340  17.118 -0.7209  0.7167  1.1355
15163TIP3    H266905   1.988   4.405  17.066 -0.9270 -0.4383  0.1962
15164TIP3   OH266906   2.392   1.281   3.824 -0.3020  0.0867 -0.2312
15164TIP3    H166907   2.319   1.224   3.849 -0.5425  0.9618  1.1229
15164TIP3    H266908   2.418   1.324   3.905  1.4056  0.1671 -0.8028
15165TIP3   OH266909   0.366   3.955  13.247 -0.2959  0.1367 -0.0118
15165TIP3    H166910   0.320   3.915  13.321  2.1868 -1.0204  0.9474
15165TIP3    H266911   0.432   4.011  13.288 -0.1847  0.9980 -1.3653
15166TIP3   OH266912   4.880   2.576   1.970  0.5985 -0.4023  0.0296
15166TIP3    H166913   4.804   2.616   2.012 -1.1066 -1.3281 -2.0722
15166TIP3    H266914   4.910   2.511   2.034 -1.5517 -1.3496  0.1313
15167TIP3   OH266915   0.459   3.120   1.888  0.4262 -0.0246 -0.2447
15167TIP3    H166916   0.434   3.060   1.818 -0.7507  2.0630 -1.6952
15167TIP3    H266917   0.505   3.066   1.951 -0.4987 -2.4102 -1.5440
15168TIP3   OH266918   5.771   4.606  15.203 -0.5722  0.8063 -0.0356
15168TIP3    H166919   5.761   4.698  15.226 -1.5661  0.9360 -0.9368
15168TIP3    H266920   5.717   4.595  15.125  0.6188 -0.2271 -0.7407
15169TIP3   OH266921   3.272   2.301  14.671  0.0249  0.3300  0.3394
15169TIP3    H166922   3.210   2.290  14.743 -0.9336  0.1421 -0.5024
15169TIP3    H266923   3.358   2.290  14.711 -0.5588 -1.5768  1.1228
15170TIP3   OH266924   5.211   5.011   2.728  0.4710  0.2257  0.5587
15170TIP3    H166925   5.284   5.073   2.731  0.2092  0.6047 -0.4133
15170TIP3    H266926   5.141   5.054   2.777  1.1473 -0.4982  2.1985
15171TIP3   OH266927   1.211   4.807   3.216 -0.2273  0.0978 -0.0163
15171TIP3    H166928   1.121   4.835   3.198 -0.4927 -0.9930 -0.4201
15171TIP3    H266929   1.231   4.743   3.148  1.0646  0.7395 -0.2676
15172TIP3   OH266930   3.288   0.728   0.732 -0.2558 -0.1692  0.4802
15172TIP3    H166931   3.306   0.767   0.817 -1.3924  0.8835  0.2551
15172TIP3    H266932   3.242   0.646   0.753 -1.9018  0.8244  0.8708
15173TIP3   OH266933   6.535   1.536   3.429 -0.2239  0.1303 -0.2279
15173TIP3    H166934   6.590   1.596   3.480 -1.3311  0.8679  0.1095
15173TIP3    H266935   6.500   1.474   3.493  0.7556 -0.7744 -0.5462
15174TIP3   OH266936   6.466   5.617   4.417  0.1465 -0.3153  0.1752
15174TIP3    H166937   6.387   5.651   4.375 -0.9145 -1.4494  1.2108
15174TIP3    H266938   6.509   5.566   4.349  0.8144  1.5969 -0.8578
15175TIP3   OH266939   5.629   6.179  15.680  0.4359  0.0950 -0.0600
15175TIP3    H166940   5.685   6.182  15.758 -0.5454 -1.2459  0.7127
15175TIP3    H266941   5.690   6.175  15.607  1.3855 -2.2024  0.8068
15176TIP3   OH266942   4.693   5.495  17.217  0.4673  0.0421  0.3077
15176TIP3    H166943   4.771   5.549  17.203  0.1637 -0.3564 -3.2914
15176TIP3    H266944   4.723   5.423  17.272  2.5647  0.0709 -0.7716
15177TIP3   OH266945   0.846   5.362   0.868 -0.2493  0.4300 -0.0920
15177TIP3    H166946   0.931   5.319   0.858 -0.2252  0.3285  0.5396
15177TIP3    H266947   0.783   5.297   0.838 -0.3620 -0.7908  2.6970
15178TIP3   OH266948   4.202   0.233   1.199  0.0797 -0.6321 -0.1279
15178TIP3    H166949   4.172   0.293   1.131  0.4668  2.1196  2.0588
15178TIP3    H266950   4.289   0.204   1.170  1.0912  2.0583  0.0954
15179TIP3   OH266951   4.515   6.605   6.116 -0.0989  0.5165 -0.2664
15179TIP3    H166952   4.545   6.571   6.032 -0.4034  0.9750 -0.5631
15179TIP3    H266953   4.467   6.533   6.155 -0.4335  0.4857 -0.7347
15180TIP3   OH266954   2.539   0.529  15.283  0.3385  0.0164  0.3626
15180TIP3    H166955   2.530   0.517  15.188 -1.6259 -0.3330  0.5677
15180TIP3    H266956   2.586   0.452  15.313  3.5174  1.4786 -0.6892
15181TIP3   OH266957   3.475   6.460   1.544  0.0097  0.0192  0.1030
15181TIP3    H166958   3.556   6.409   1.543  0.5346  0.7835 -3.8690
15181TIP3    H266959   3.503   6.549   1.568  0.3130  0.1805 -0.8187
15182TIP3   OH266960   0.976   5.930   5.636 -0.2746  0.2982  0.4285
15182TIP3    H166961   1.062   5.937   5.596  0.0388 -1.8080  0.6914
15182TIP3    H266962   0.986   5.866   5.705 -1.7074  1.1613  1.4752
15183TIP3   OH266963   2.149   2.667  10.533  0.9044 -0.0558  0.4678
15183TIP3    H166964   2.120   2.593  10.586 -1.0955  0.2613 -0.1470
15183TIP3    H266965   2.074   2.688  10.477  3.0645 -0.5812 -2.7299
15184TIP3   OH266966   1.112   6.002   3.151 -1.0385 -0.0096  0.2112
15184TIP3    H166967   1.125   5.937   3.220  1.0375 -0.7084 -0.7912
15184TIP3    H266968   1.195   6.049   3.146 -1.3491  0.4115 -1.4030
15185TIP3   OH266969   1.031   5.711  14.379 -0.4108 -0.0638  0.4936
15185TIP3    H166970   1.026   5.631  14.327 -0.4437  1.0264 -1.2145
15185TIP3    H266971   1.040   5.680  14.470 -1.9676 -1.9887  0.0284
15186TIP3   OH266972   6.505   6.078  13.972  0.5544 -0.7824 -0.7766
15186TIP3    H166973   6.524   6.148  13.909  0.4853 -1.4336 -1.5212
15186TIP3    H266974   6.525   5.997  13.925 -1.0637 -1.3457 -0.5184
15187TIP3   OH266975   4.380   0.809   2.287 -0.0124 -0.2165  0.1316
15187TIP3    H166976   4.375   0.754   2.209  0.5758 -1.0096  0.6436
15187TIP3    H266977   4.399   0.896   2.254  0.3625 -0.5769 -0.6036
15188TIP3   OH266978   2.979   1.042  12.550 -0.1869  0.5626 -0.6107
15188TIP3    H166979   3.033   1.008  12.621  0.2760  0.2660 -1.0923
15188TIP3    H266980   3.034   1.031  12.472 -0.7623  0.6998 -1.0352
15189TIP3   OH266981   0.219   4.956  13.410 -0.5180  0.2910 -0.0066
15189TIP3    H166982   0.247   4.871  13.443  1.9804  0.9650 -0.2642
15189TIP3    H266983   0.134   4.971  13.451 -0.4068 -1.7566  1.0416
15190TIP3   OH266984   5.171   5.764   0.455  0.3513 -0.7350  0.1614
15190TIP3    H166985   5.120   5.786   0.532  2.1392 -0.2208  1.2120
15190TIP3    H266986   5.114   5.704   0.405 -0.9714 -0.7347  1.6372
15191TIP3   OH266987   0.152   3.137   3.720  0.5505 -0.2450 -0.1277
15191TIP3    H166988   0.126   3.127   3.628 -0.0539 -1.0452  0.1304
15191TIP3    H266989   0.086   3.088   3.769  0.5619  0.6283  0.7792
15192TIP3   OH266990   5.604   6.234  13.214  0.6186 -0.7487 -0.2719
15192TIP3    H166991   5.634   6.286  13.139 -2.2940  1.7218  0.1524
15192TIP3    H266992   5.672   6.246  13.280  2.7289 -2.1200 -2.1370
15193TIP3   OH266993   1.111   5.234   1.321  0.1273  0.5181 -0.3896
15193TIP3    H166994   1.022   5.267   1.337  0.3260  1.3509 -0.9653
15193TIP3    H266995   1.157   5.249   1.403 -0.0180  0.9211 -0.3789
15194TIP3   OH266996   2.763   5.646   6.224  0.3569  0.4219  0.0069
15194TIP3    H166997   2.814   5.695   6.288 -0.4920  0.2496  0.8216
15194TIP3    H266998   2.741   5.564   6.268 -1.3133  0.8369 -0.0362
15195TIP3   OH266999   3.067   5.880  14.295 -0.0614 -0.2663  0.1014
15195TIP3    H167000   3.112   5.837  14.222 -0.8720 -0.5919 -0.2213
15195TIP3    H267001   3.136   5.922  14.345  0.8085 -2.2215  0.5997
15196TIP3   OH267002   0.723   2.763   5.487  0.3427 -0.3506  0.1969
15196TIP3    H167003   0.786   2.814   5.438  0.1783 -0.4185 -0.0843
15196TIP3    H267004   0.639   2.781   5.445 -0.3883  2.5469  2.7439
15197TIP3   OH267005   0.955   0.610   3.191  0.0784 -0.0235 -0.1577
15197TIP3    H167006   1.021   0.582   3.127 -0.6058 -0.8061 -0.5316
15197TIP3    H267007   0.895   0.665   3.140  0.3402  0.5316  0.1381
15198TIP3   OH267008   4.664   4.192   2.187  0.3410 -0.5779  0.0781
15198TIP3    H167009   4.649   4.200   2.282  0.3300  0.1504  0.0227
15198TIP3    H267010   4.746   4.144   2.179  0.1272 -1.0071  0.4523
15199TIP3   OH267011   3.571   3.545  12.766  0.4710 -0.6243  0.0661
15199TIP3    H167012   3.587   3.613  12.701  0.3271 -1.7472 -1.1753
15199TIP3    H267013   3.584   3.589  12.850  0.3591  0.9299 -0.7020
15200TIP3   OH267014   4.292   0.194   0.677 -0.0890  0.1053 -0.5733
15200TIP3    H167015   4.209   0.199   0.723 -0.3862  1.3947 -1.2274
15200TIP3    H267016   4.268   0.187   0.584  0.5250  0.5805 -0.7711
15201TIP3   OH267017   4.058   2.371   1.407 -0.0366 -0.0520  0.3252
15201TIP3    H167018   4.040   2.307   1.338  0.2794  0.3768 -0.1558
15201TIP3    H267019   4.110   2.323   1.471 -0.5447 -0.5248  0.3932
15202TIP3   OH267020   5.717   4.470  13.025  0.1280 -0.1365  0.1221
15202TIP3    H167021   5.754   4.391  12.984  1.5001 -1.0484  2.9997
15202TIP3    H267022   5.778   4.540  13.002 -0.0821 -0.2741 -0.8758
15203TIP3   OH267023   0.858   0.492   3.425 -0.2955  0.3902 -0.1873
15203TIP3    H167024   0.904   0.501   3.341 -1.6989 -2.2582 -1.3040
15203TIP3    H267025   0.925   0.512   3.491  1.8574 -1.0762 -1.8306
15204TIP3   OH267026   3.060   1.475   6.697  0.1922 -0.1144  0.2565
15204TIP3    H167027   3.017   1.393   6.720 -1.3780  1.0127  1.4769
15204TIP3    H267028   3.102   1.458   6.613  1.5172 -2.7379  1.3983
15205TIP3   OH267029   1.880   5.360  15.361 -0.6767 -0.6950 -0.3043
15205TIP3    H167030   1.950   5.303  15.330 -1.5972 -1.2414 -1.4361
15205TIP3    H267031   1.870   5.425  15.291  0.1578  0.6835  0.8366
15206TIP3   OH267032   6.597   6.749  16.187  0.3556  0.5373 -0.6067
15206TIP3    H167033   6.672   6.693  16.208 -1.6346 -2.3146 -0.8305
15206TIP3    H267034   6.558   6.770  16.272  0.8016  1.1678 -0.5564
15207TIP3   OH267035   0.600   4.662   4.230  0.0662 -0.0675 -0.0888
15207TIP3    H167036   0.526   4.720   4.248  0.7306  0.9009 -0.4389
15207TIP3    H267037   0.591   4.591   4.294 -0.6392  0.5327  0.4875
15208TIP3   OH267038   2.231   3.074   3.461 -0.4250 -0.4097 -0.5836
15208TIP3    H167039   2.190   3.139   3.404 -0.9144  0.3688  0.6335
15208TIP3    H267040   2.172   3.066   3.535  1.8095  1.0275  1.4132
15209TIP3   OH267041   4.809   6.761  14.096  0.3696 -0.3061  0.1553
15209TIP3    H167042   4.879   6.701  14.070  0.0192 -0.7486  0.2381
15209TIP3    H267043   4.760   6.714  14.163 -0.1091 -0.0642 -0.0204
15210TIP3   OH267044   1.289   0.901   1.380 -0.6028 -0.3022 -0.1972
15210TIP3    H167045   1.284   0.971   1.316 -0.0953 -0.1870 -0.1139
15210TIP3    H267046   1.381   0.899   1.407 -0.8526 -0.1942  0.6898
15211TIP3   OH267047   2.194   4.955   4.868 -0.1818 -0.0177 -0.7951
15211TIP3    H167048   2.241   4.931   4.788  0.8821 -1.0443  0.1057
15211TIP3    H267049   2.263   4.988   4.926 -0.5119 -1.8099  0.6523
15212TIP3   OH267050   3.372   5.215   6.172  0.3834 -0.9713 -0.3538
15212TIP3    H167051   3.333   5.200   6.259 -1.2553 -0.2217 -0.9361
15212TIP3    H267052   3.397   5.308   6.173  2.0560 -1.4069 -0.0429
15213TIP3   OH267053   2.803   1.677   5.358  0.0023 -0.2681 -0.1769
15213TIP3    H167054   2.866   1.649   5.292  0.2083 -1.7467  0.6365
15213TIP3    H267055   2.728   1.618   5.347 -0.9501  0.9905 -0.6340
15214TIP3   OH267056   0.077   5.671  12.470 -0.9139  0.6034 -0.2936
15214TIP3    H167057   0.155   5.668  12.526 -0.8292  0.6118 -0.4132
15214TIP3    H267058   0.010   5.627  12.522 -0.7206  0.2184 -0.3694
15215TIP3   OH267059   1.340   5.760  13.970 -0.2552 -0.4492 -0.1273
15215TIP3    H167060   1.284   5.829  14.005  0.6546 -0.1173  0.7234
15215TIP3    H267061   1.347   5.779  13.877 -1.3187 -0.3304 -0.1812
15216TIP3   OH267062   4.314   2.475   3.678  0.1022  0.2387 -0.4489
15216TIP3    H167063   4.276   2.433   3.756 -2.0181  0.6581 -1.2473
15216TIP3    H267064   4.403   2.499   3.706 -0.4378 -0.0898  1.6698
15217TIP3   OH267065   1.670   6.073  17.159  0.2333  0.0122  0.2051
15217TIP3    H167066   1.707   6.133  17.094 -0.6271 -0.3673 -0.6396
15217TIP3    H267067   1.726   5.995  17.154  1.3803  0.7456  1.3344
15218TIP3   OH267068   3.478   1.384  14.802  0.2729  0.7805  0.6175
15218TIP3    H167069   3.410   1.329  14.840 -0.0301 -0.3100 -1.4695
15218TIP3    H267070   3.459   1.472  14.837 -1.3846  0.2451  1.1286
15219TIP3   OH267071   2.548   3.945  11.907  0.0852 -0.2172 -0.5866
15219TIP3    H167072   2.474   3.980  11.957  0.3854 -0.3522 -0.0397
15219TIP3    H267073   2.525   3.961  11.815 -0.9386 -0.8739 -0.4523
15220TIP3   OH267074   4.560   1.676  17.162  0.1961 -0.5494 -0.6027
15220TIP3    H167075   4.577   1.687  17.068  1.4897  1.4906 -0.1625
15220TIP3    H267076   4.577   1.583  17.178  0.3981 -0.8372 -2.3024
15221TIP3   OH267077   1.743   2.582   1.889  0.6158 -0.6863  0.0753
15221TIP3    H167078   1.726   2.613   1.800  1.9548 -2.8744 -0.9766
15221TIP3    H267079   1.833   2.610   1.907  0.1810  0.1809  0.9455
15222TIP3   OH267080   4.636   4.668  16.681 -0.1565 -0.3850  0.1667
15222TIP3    H167081   4.689   4.664  16.602 -0.0351 -1.2762  0.2896
15222TIP3    H267082   4.687   4.621  16.747 -1.4070 -1.8768  0.0944
15223TIP3   OH267083   0.903   1.222  17.063 -0.2794  0.1410 -0.6905
15223TIP3    H167084   0.917   1.144  17.010  0.2841 -0.7334  0.7091
15223TIP3    H267085   0.849   1.192  17.136 -1.3037  1.3869 -0.9184
15224TIP3   OH267086   0.456   2.528   0.986 -0.0113 -0.0159  0.1027
15224TIP3    H167087   0.459   2.480   0.904  1.8028 -1.2258  0.8304
15224TIP3    H267088   0.411   2.470   1.047 -0.5985  0.5187  0.1795
15225TIP3   OH267089   2.105   0.419   4.160 -0.3253  0.1360 -0.1121
15225TIP3    H167090   2.040   0.451   4.098 -1.6485 -0.1372  1.0998
15225TIP3    H267091   2.183   0.471   4.143 -1.1242  1.0402 -1.0289
15226TIP3   OH267092   6.743   0.694   6.123  0.3357 -0.1847  0.2479
15226TIP3    H167093   6.660   0.646   6.113  0.0078  0.1847  1.1856
15226TIP3    H267094   6.746   0.752   6.047 -0.9967  0.8991  1.0149
15227TIP3   OH267095   0.991   3.814   6.089 -0.2530 -0.0920  0.3148
15227TIP3    H167096   0.914   3.829   6.143 -0.9150 -2.8162  0.1683
15227TIP3    H267097   1.056   3.776   6.148  0.4865  0.8249  0.1113
15228TIP3   OH267098   6.259   3.979   0.200  0.4414 -0.8456 -0.5793
15228TIP3    H167099   6.207   3.999   0.122  2.6897  2.1087 -1.3932
15228TIP3    H267100   6.349   3.980   0.170  1.1323 -4.6353  1.0981
15229TIP3   OH267101   0.556   3.765  11.399 -0.1811 -0.0188 -0.6293
15229TIP3    H167102   0.609   3.710  11.340  1.0895 -2.0280  2.2964
15229TIP3    H267103   0.619   3.807  11.457 -1.5991 -0.5680  1.3776
15230TIP3   OH267104   6.421   5.835  11.223 -0.6983 -0.1107  0.1614
15230TIP3    H167105   6.398   5.746  11.194 -0.5443 -0.5445  1.3441
15230TIP3    H267106   6.395   5.891  11.150  0.6369 -1.2850 -1.2335
15231TIP3   OH267107   6.707   2.206   0.518 -0.6321  0.7958  0.1990
15231TIP3    H167108   6.802   2.192   0.522 -0.8279 -0.0806  2.6038
15231TIP3    H267109   6.673   2.165   0.598 -2.7495  3.3114  0.6588
15232TIP3   OH267110   2.447   6.444   3.769 -0.3537  0.5471 -0.4831
15232TIP3    H167111   2.358   6.422   3.799 -0.3565 -0.0251 -0.8989
15232TIP3    H267112   2.504   6.387   3.821 -0.1278  1.8327  0.7148
15233TIP3   OH267113   5.942   3.253  12.954 -0.2323 -0.5111 -1.1985
15233TIP3    H167114   5.990   3.239  12.872  2.5141  1.4972 -0.0032
15233TIP3    H267115   5.886   3.329  12.937  1.2153  0.6445 -0.8763
15234TIP3   OH267116   4.145   1.321   0.777 -0.3256 -0.2444  0.8653
15234TIP3    H167117   4.198   1.340   0.854  0.3777  1.3443  0.0163
15234TIP3    H267118   4.055   1.330   0.805 -0.1706 -2.3265  2.1663
15235TIP3   OH267119   5.570   3.459  11.109  0.3160  0.6321 -0.1733
15235TIP3    H167120   5.659   3.453  11.073  0.1557  1.4154 -0.7062
15235TIP3    H267121   5.579   3.519  11.183  0.1156  1.1437 -0.5695
15236TIP3   OH267122   0.902   5.508   0.096  0.0777 -0.2711  0.1379
15236TIP3    H167123   0.891   5.481   0.187 -0.2019  1.0328  0.5135
15236TIP3    H267124   0.813   5.525   0.065  0.1388 -1.1220 -0.5164
15237TIP3   OH267125   0.011   6.193  16.104  0.3930  0.1422  0.4318
15237TIP3    H167126   0.019   6.286  16.083 -2.0401  0.4078  0.5259
15237TIP3    H267127   0.021   6.149  16.019 -0.2995  0.6261  0.0906
15238TIP3   OH267128   1.234   2.947   5.661  0.2176 -0.0675 -0.4438
15238TIP3    H167129   1.265   3.022   5.712  0.2834 -1.2407  1.2715
15238TIP3    H267130   1.141   2.965   5.647 -0.0684 -0.2692  1.0832
15239TIP3   OH267131   2.961   2.420   0.861 -0.6357 -0.0624 -0.4041
15239TIP3    H167132   2.993   2.335   0.833 -2.1954 -0.8878  0.2707
15239TIP3    H267133   2.880   2.433   0.812 -1.3342  0.2283  0.7996
15240TIP3   OH267134   0.774   3.887  13.854 -0.9041  0.1589  0.1316
15240TIP3    H167135   0.700   3.939  13.822 -0.2101  0.0279 -1.7564
15240TIP3    H267136   0.733   3.808  13.892 -1.7498  0.2678 -0.5349
15241TIP3   OH267137   5.990   4.312   5.007 -0.3525 -0.7843 -0.1959
15241TIP3    H167138   5.910   4.318   4.956 -1.1456 -0.3203  1.0839
15241TIP3    H267139   5.962   4.317   5.098  1.2131  0.5694  0.2562
15242TIP3   OH267140   3.760   0.969   1.529  0.1251  0.2172 -0.5093
15242TIP3    H167141   3.759   1.059   1.562  1.7504 -0.1327  0.5901
15242TIP3    H267142   3.824   0.925   1.585  0.6046 -1.1956 -2.1419
15243TIP3   OH267143   0.134   2.120  14.540  0.4381  0.1412 -0.1569
15243TIP3    H167144   0.089   2.164  14.612 -0.1193  0.5188 -0.7334
15243TIP3    H267145   0.144   2.188  14.473 -1.3363 -0.8720 -1.4624
15244TIP3   OH267146   3.646   3.267  12.415 -0.2776 -0.6932 -0.0390
15244TIP3    H167147   3.611   3.179  12.425  1.3958 -1.7203 -2.5877
15244TIP3    H267148   3.720   3.270  12.476 -0.6120 -0.9000  0.3787
15245TIP3   OH267149   5.796   3.800   2.448 -0.3496  0.1649 -0.8518
15245TIP3    H167150   5.847   3.721   2.465 -0.2075  0.4831  0.1958
15245TIP3    H267151   5.705   3.769   2.444 -0.1164 -0.3813 -2.5995
15246TIP3   OH267152   1.443   4.206  14.390  0.2527  0.5300 -0.7532
15246TIP3    H167153   1.349   4.186  14.386  0.1361  0.5794  1.3612
15246TIP3    H267154   1.454   4.259  14.469  2.1404  0.0546 -0.6601
15247TIP3   OH267155   1.205   4.768   2.144 -0.4342  0.2247  0.7565
15247TIP3    H167156   1.127   4.818   2.121 -0.7066 -0.3931  0.3181
15247TIP3    H267157   1.277   4.831   2.140 -0.7245  0.5067 -0.1318
15248TIP3   OH267158   1.901   2.723  13.502 -0.4878  0.7660  0.3473
15248TIP3    H167159   1.832   2.688  13.446  0.2292 -0.8464  0.4372
15248TIP3    H267160   1.861   2.729  13.589 -0.7838  0.6765  0.2170
15249TIP3   OH267161   5.855   0.831  12.433  0.6525 -1.0146 -0.2399
15249TIP3    H167162   5.830   0.750  12.389 -0.3130 -2.5922  3.0562
15249TIP3    H267163   5.909   0.803  12.507  0.2739  1.3317  0.9935
15250TIP3   OH267164   4.649   4.391  11.476  0.5440 -0.4125  0.5262
15250TIP3    H167165   4.728   4.342  11.498  0.5419 -1.3964 -1.5290
15250TIP3    H267166   4.679   4.482  11.468  1.0995 -0.4988  1.5309
15251TIP3   OH267167   5.310   1.295   1.448 -0.1789 -0.1408  0.0801
15251TIP3    H167168   5.292   1.220   1.391  1.6544 -0.7983  0.3346
15251TIP3    H267169   5.330   1.367   1.388  0.9310 -0.6181 -0.1267
15252TIP3   OH267170   6.570   2.527  15.017  0.4452 -0.6305  0.3293
15252TIP3    H167171   6.499   2.557  15.074 -0.4230 -0.6325 -0.7394
15252TIP3    H267172   6.549   2.436  14.998  0.4402 -0.4776 -0.4174
15253TIP3   OH267173   3.198   3.913   4.214 -0.2407  0.5121 -0.0018
15253TIP3    H167174   3.160   3.858   4.282 -2.1262 -0.3440 -1.6799
15253TIP3    H267175   3.160   4.000   4.229 -1.3794  0.1087 -0.5053
15254TIP3   OH267176   0.329   4.467  13.043 -0.4150 -0.3576 -0.7391
15254TIP3    H167177   0.322   4.400  12.975  1.8830 -1.3325 -0.0651
15254TIP3    H267178   0.376   4.539  13.001 -2.2725  0.5874 -1.2563
15255TIP3   OH267179   2.624   3.612  11.576 -0.3154  0.0713 -0.4126
15255TIP3    H167180   2.597   3.544  11.514 -1.2720 -1.0287  1.1459
15255TIP3    H267181   2.719   3.602  11.583 -0.4274 -1.0103 -0.3267
15256TIP3   OH267182   0.999   5.999   1.952 -0.0481 -0.4334  0.1441
15256TIP3    H167183   1.053   5.974   1.877 -1.1937 -2.5496  0.0088
15256TIP3    H267184   1.051   5.974   2.028 -0.8620 -2.5952  0.0135
15257TIP3   OH267185   5.424   5.903   3.276  0.2235  0.2204  0.0571
15257TIP3    H167186   5.456   5.841   3.209  0.5449  1.2754 -0.7789
15257TIP3    H267187   5.490   5.900   3.345  1.8363  1.8750 -1.3525
15258TIP3   OH267188   2.808   2.682   2.854 -0.4003  0.0758 -0.2778
15258TIP3    H167189   2.787   2.648   2.767 -2.3484 -0.2602  0.2944
15258TIP3    H267190   2.744   2.753   2.868  1.0382  1.3167  0.1696
15259TIP3   OH267191   3.410   1.118  11.471  0.5553 -0.1617  0.0993
15259TIP3    H167192   3.478   1.174  11.434 -1.7194  1.1285 -2.2663
15259TIP3    H267193   3.363   1.175  11.532  0.0567 -0.3031 -0.1457
15260TIP3   OH267194   2.089   3.521  11.163 -0.4659 -0.0834  0.7400
15260TIP3    H167195   2.079   3.613  11.188 -1.1603 -0.2313  1.0220
15260TIP3    H267196   2.161   3.521  11.101 -1.8408  0.9703 -0.9147
15261TIP3   OH267197   5.034   5.427  13.534 -0.3609  0.1371  0.2761
15261TIP3    H167198   5.038   5.376  13.615  0.4806 -0.4024 -0.1002
15261TIP3    H267199   5.121   5.466  13.526 -0.3187 -0.1264 -0.5754
15262TIP3   OH267200   2.917   5.114  13.233 -0.0017 -0.3776 -0.4088
15262TIP3    H167201   2.995   5.123  13.287  0.8899 -1.7640 -1.4170
15262TIP3    H267202   2.944   5.145  13.146 -0.4036 -1.3630 -0.8961
15263TIP3   OH267203   1.936   1.481   1.324  0.7546  0.0038  0.3360
15263TIP3    H167204   2.024   1.460   1.356  1.6267  2.5207 -0.3263
15263TIP3    H267205   1.906   1.400   1.283  2.7899 -0.8811  0.5336
15264TIP3   OH267206   0.568   3.106   5.564 -0.2579  0.0550 -0.3290
15264TIP3    H167207   0.601   3.130   5.477  1.7587 -0.2764  0.3093
15264TIP3    H267208   0.566   3.189   5.612  0.7532 -0.0731 -0.0381
15265TIP3   OH267209   0.913   4.630  12.478 -0.3615 -0.1859  0.4565
15265TIP3    H167210   0.874   4.701  12.428  2.7907 -0.8081 -3.2161
15265TIP3    H267211   0.989   4.669  12.522  0.6252 -0.9293 -0.5330
15266TIP3   OH267212   5.972   6.230  13.707  0.2419 -0.1232  0.6171
15266TIP3    H167213   5.904   6.290  13.676  0.1581 -1.2290 -1.4261
15266TIP3    H267214   5.956   6.149  13.659  1.7157 -1.0786  1.7000
15267TIP3   OH267215   0.398   6.107  15.519  0.4103 -0.0541  0.4386
15267TIP3    H167216   0.392   6.138  15.428  2.3165 -1.8855 -0.3713
15267TIP3    H267217   0.309   6.079  15.541 -0.5822  2.6327 -0.0076
15268TIP3   OH267218   1.163   0.470   1.044 -0.1311 -0.4120 -0.3176
15268TIP3    H167219   1.144   0.413   0.969  1.4934 -2.5922  0.8658
15268TIP3    H267220   1.250   0.505   1.026 -0.0415 -0.3608  0.2144
15269TIP3   OH267221   3.437   5.442   1.102  0.0141  0.2399 -0.5778
15269TIP3    H167222   3.463   5.351   1.119  1.1985  0.5882 -0.4262
15269TIP3    H267223   3.415   5.477   1.189  3.1395  1.1382 -0.0468
15270TIP3   OH267224   4.015   4.893   4.002 -0.5238 -0.4688 -0.2486
15270TIP3    H167225   3.971   4.833   4.062  0.2827 -2.4672 -1.6183
15270TIP3    H267226   4.106   4.892   4.029 -0.5234  0.2615 -0.1979
15271TIP3   OH267227   5.704   5.912  16.751  0.5317 -0.4584 -0.5361
15271TIP3    H167228   5.680   5.828  16.712  2.4838 -1.2899  0.0443
15271TIP3    H267229   5.650   5.918  16.829  0.2176 -1.0614 -0.7007
15272TIP3   OH267230   6.306   3.565   0.079 -0.7855 -0.3281  0.1036
15272TIP3    H167231   6.213   3.546   0.070 -0.9535 -0.0902  1.2173
15272TIP3    H267232   6.332   3.599  -0.007 -0.9668 -3.3606 -1.2166
15273TIP3   OH267233   0.235   3.377   0.574  0.0610 -0.0791  1.0779
15273TIP3    H167234   0.201   3.415   0.493  0.2897 -1.5175  0.2914
15273TIP3    H267235   0.188   3.294   0.583  0.9627 -0.5227  1.7437
15274TIP3   OH267236   3.803   1.720  15.183  0.2492  0.2302 -0.2235
15274TIP3    H167237   3.797   1.707  15.088 -0.0706  1.2275 -0.3453
15274TIP3    H267238   3.713   1.715  15.214 -0.1045  3.7121 -0.5010
15275TIP3   OH267239   1.515   3.165  16.028 -0.4224  0.0296  0.6511
15275TIP3    H167240   1.607   3.153  16.052 -1.4706  0.3534  5.2213
15275TIP3    H267241   1.513   3.247  15.980  1.9768 -1.2257 -1.7417
15276TIP3   OH267242   5.038   5.791  10.743 -0.5060 -0.0063 -0.2634
15276TIP3    H167243   4.976   5.721  10.766  1.0197 -0.3206  3.1746
15276TIP3    H267244   5.018   5.862  10.804  1.6132  0.3842  0.0269
15277TIP3   OH267245   2.850   5.646   1.133 -0.0250  0.2533 -0.4437
15277TIP3    H167246   2.757   5.645   1.158 -0.3566  0.0974 -1.6597
15277TIP3    H267247   2.863   5.562   1.088  1.3013 -0.8190  1.8470
15278TIP3   OH267248   0.784   4.290   3.483  0.4118  0.0199 -0.0790
15278TIP3    H167249   0.746   4.211   3.447 -0.6905  0.3089  0.4180
15278TIP3    H267250   0.793   4.349   3.408 -0.5018  0.0937 -0.1352
15279TIP3   OH267251   5.288   4.997   5.256  0.1509 -0.6742  0.3636
15279TIP3    H167252   5.273   5.086   5.288 -0.9996 -0.3110 -1.1095
15279TIP3    H267253   5.297   5.007   5.161  1.8638 -1.9108  0.3762
15280TIP3   OH267254   4.739   5.632   1.050 -0.2927 -0.2143  0.1711
15280TIP3    H167255   4.786   5.706   1.012  0.3010 -0.9141 -0.4720
15280TIP3    H267256   4.659   5.670   1.087  0.5709  0.9140  0.8933
15281TIP3   OH267257   0.740   5.262  10.783  0.3057 -0.1476  0.5749
15281TIP3    H167258   0.704   5.351  10.776  2.4692  0.7960  1.0503
15281TIP3    H267259   0.795   5.253  10.706  1.3617 -0.4706  1.3555
15282TIP3   OH267260   3.639   1.868  13.538 -0.1501 -0.1366 -0.1459
15282TIP3    H167261   3.731   1.887  13.523 -0.3623  0.0585 -1.2721
15282TIP3    H267262   3.612   1.817  13.462 -0.7447 -0.9993  0.6308
15283TIP3   OH267263   1.015   0.794  11.586  0.5503 -0.3761 -0.4488
15283TIP3    H167264   0.982   0.849  11.516 -0.3346  0.4604  0.6018
15283TIP3    H267265   1.063   0.724  11.542  0.4862  0.4547 -1.8451
15284TIP3   OH267266   6.272   6.046  14.115 -0.3717  0.4357 -0.7683
15284TIP3    H167267   6.220   6.073  14.039 -0.2068 -1.8007 -1.7301
15284TIP3    H267268   6.363   6.055  14.085 -0.2798 -3.9882 -2.2908
15285TIP3   OH267269   2.049   5.624   0.758  0.3796  0.3508  0.1965
15285TIP3    H167270   2.113   5.683   0.797 -0.6129 -0.3165  2.9162
15285TIP3    H267271   2.010   5.675   0.687  0.3990  2.5610  1.7190
15286TIP3   OH267272   3.095   4.777  16.704 -0.3810 -0.5517 -0.1782
15286TIP3    H167273   3.131   4.833  16.635  0.2115 -1.5279 -0.6792
15286TIP3    H267274   3.118   4.821  16.786  0.0505 -0.0456 -0.5667
15287TIP3   OH267275   6.687   1.590   2.965  0.2876  0.3764  0.2852
15287TIP3    H167276   6.646   1.539   3.035 -1.4065  0.9899 -0.2236
15287TIP3    H267277   6.741   1.655   3.010 -0.4174  0.4646  1.0142
15288TIP3   OH267278   4.607   0.848   3.431 -0.6553  0.0293 -0.0780
15288TIP3    H167279   4.663   0.773   3.451 -0.7348  0.4562  1.7686
15288TIP3    H267280   4.568   0.826   3.346  1.6896 -0.6215 -1.0200
15289TIP3   OH267281   0.342   6.177   5.997  0.2229 -0.3617  0.4256
15289TIP3    H167282   0.287   6.246   6.034  0.6825 -0.6259  1.6026
15289TIP3    H267283   0.336   6.104   6.059  1.9022 -0.3915  0.5728
15290TIP3   OH267284   2.487   5.030  15.087 -0.2016 -0.0067 -0.9567
15290TIP3    H167285   2.396   5.059  15.077 -0.7002 -0.7980  1.0032
15290TIP3    H267286   2.529   5.100  15.137  0.5451  0.8318 -2.7275
15291TIP3   OH267287   0.786   4.079   5.866 -0.4357 -0.1527 -0.2526
15291TIP3    H167288   0.803   4.058   5.958  1.5125  1.2768 -0.2519
15291TIP3    H267289   0.846   4.023   5.817 -0.7283 -0.1595 -0.6051
15292TIP3   OH267290   1.588   2.656  16.130  0.0535 -0.4666 -0.1069
15292TIP3    H167291   1.654   2.660  16.061  0.9083  0.8730  0.7403
15292TIP3    H267292   1.537   2.736  16.118 -0.8041 -1.0223 -0.1624
15293TIP3   OH267293   0.327   4.006   2.133  0.2166  0.4572  0.2313
15293TIP3    H167294   0.240   4.014   2.092  1.8151  3.5424 -2.7916
15293TIP3    H267295   0.369   3.933   2.087  0.2617  0.8004 -0.2709
15294TIP3   OH267296   5.949   6.349   5.613  0.5615  0.1283  0.3698
15294TIP3    H167297   5.979   6.277   5.668  1.9327 -0.0013 -0.5251
15294TIP3    H267298   6.027   6.401   5.596  0.1191  0.2857 -1.2675
15295TIP3   OH267299   6.422   2.417   4.781  0.2684 -0.1692  0.6414
15295TIP3    H167300   6.439   2.384   4.693  1.5911  0.6334  0.5778
15295TIP3    H267301   6.330   2.444   4.780 -0.0687 -1.3292 -0.1047
15296TIP3   OH267302   4.027   1.327   3.195 -0.6144  0.1770 -0.3540
15296TIP3    H167303   4.056   1.261   3.257  0.2026  0.1550 -0.7524
15296TIP3    H267304   3.975   1.388   3.247  0.1365  0.2095  0.3688
15297TIP3   OH267305   0.028   3.551  14.781  0.2346  0.0277  0.1421
15297TIP3    H167306   0.017   3.626  14.839 -1.2473 -0.5559  0.6340
15297TIP3    H267307   0.010   3.475  14.836 -1.0059 -0.5395 -1.0309
15298TIP3   OH267308   4.377   5.532  10.461 -0.5553 -0.7880  0.2119
15298TIP3    H167309   4.405   5.570  10.377  0.5087 -0.3389  0.7521
15298TIP3    H267310   4.342   5.446  10.439  1.8314 -1.6250 -0.4488
15299TIP3   OH267311   1.487   4.057  13.073  0.2805 -0.2749 -0.4644
15299TIP3    H167312   1.509   4.137  13.025 -0.2419 -0.4454 -0.9927
15299TIP3    H267313   1.431   4.086  13.144  0.3172 -0.1353 -0.4929
15300TIP3   OH267314   6.460   5.028   3.319  0.3083  0.0817  0.0397
15300TIP3    H167315   6.476   4.934   3.334 -0.7260  0.0777  1.1827
15300TIP3    H267316   6.489   5.071   3.399  0.4524  0.7126 -0.3466
15301TIP3   OH267317   2.943   3.357  16.520 -0.3482  0.4610  0.1524
15301TIP3    H167318   3.013   3.302  16.555 -0.0642 -0.2195 -1.4479
15301TIP3    H267319   2.863   3.319  16.556  0.0031  0.4721  0.9705
15302TIP3   OH267320   0.161   3.473   1.970 -0.1435  0.2327 -0.5953
15302TIP3    H167321   0.241   3.429   1.941  0.1784  2.4737 -3.2927
15302TIP3    H267322   0.090   3.419   1.934  0.0309 -2.2115  2.4735
15303TIP3   OH267323   4.058   5.574  12.009  0.0598 -0.1969  0.3857
15303TIP3    H167324   4.132   5.564  12.068  0.7867 -0.5641 -0.5847
15303TIP3    H267325   4.070   5.660  11.969 -0.3074 -0.0467  0.5924
15304TIP3   OH267326   5.932   5.282   5.771  0.3708  0.5337  0.0197
15304TIP3    H167327   5.853   5.244   5.810 -0.4219  0.8918 -1.1882
15304TIP3    H267328   6.004   5.245   5.821 -0.5141 -0.5652  0.5102
15305TIP3   OH267329   6.465   4.813   3.816  0.7802 -0.3142 -0.3151
15305TIP3    H167330   6.398   4.786   3.754 -1.6442  3.3322  0.5795
15305TIP3    H267331   6.546   4.816   3.764 -0.9013  1.1367 -2.9448
15306TIP3   OH267332   0.563   3.544   1.434 -0.0962 -0.5287 -0.5849
15306TIP3    H167333   0.605   3.506   1.511  1.9315 -0.5716 -1.6712
15306TIP3    H267334   0.506   3.613   1.469  1.7162  0.2569  0.8681
15307TIP3   OH267335   6.638   0.249  12.732  0.4940 -0.2263  0.0820
15307TIP3    H167336   6.668   0.308  12.663  1.1149  1.3897  1.7092
15307TIP3    H267337   6.545   0.270  12.743  0.3675 -0.5606 -0.3172
15308TIP3   OH267338   4.318   1.672  14.981 -0.0831 -0.3026  0.3130
15308TIP3    H167339   4.306   1.683  14.887 -0.3474 -1.7678  0.1732
15308TIP3    H267340   4.395   1.726  15.001  0.0451 -0.0767 -0.7539
15309TIP3   OH267341   3.626   4.515  13.689 -0.7963 -0.0434 -0.7733
15309TIP3    H167342   3.639   4.514  13.784 -1.0530 -0.4618 -0.7392
15309TIP3    H267343   3.534   4.490  13.677 -0.5487 -0.7754 -1.1676
15310TIP3   OH267344   0.220   3.214  11.133 -0.0045  0.1701 -0.3261
15310TIP3    H167345   0.185   3.264  11.059  0.6325  1.1825  0.0408
15310TIP3    H267346   0.304   3.181  11.102 -0.4666 -0.7540 -0.5977
15311TIP3   OH267347   1.386   6.095  11.844  0.2836 -0.5545 -0.1871
15311TIP3    H167348   1.374   6.002  11.866  0.8728 -0.3909  0.8322
15311TIP3    H267349   1.444   6.094  11.768  0.6585 -0.9988  0.1051
15312TIP3   OH267350   4.792   4.211  17.201  0.5093  0.2558  0.5788
15312TIP3    H167351   4.842   4.292  17.187  0.6914  0.1843  0.8123
15312TIP3    H267352   4.712   4.224  17.150 -0.1243  1.2051  1.7809
15313TIP3   OH267353   6.030   6.482   0.830  0.3293 -0.5046 -0.2353
15313TIP3    H167354   6.064   6.432   0.904  2.4741  0.9067 -0.2463
15313TIP3    H267355   6.102   6.539   0.803 -0.9849  0.2494 -2.3162
15314TIP3   OH267356   0.139   3.050  12.180 -0.1005  0.1183  0.1081
15314TIP3    H167357   0.083   3.006  12.117 -1.0827 -1.4490  2.0355
15314TIP3    H267358   0.078   3.090  12.242  0.7509  4.0615 -1.4262
15315TIP3   OH267359   2.615   4.966  16.259 -0.3718 -0.6451 -0.0443
15315TIP3    H167360   2.547   4.919  16.210  0.3648 -1.5121 -0.2524
15315TIP3    H267361   2.675   4.998  16.191  0.2454 -1.1952  0.2424
15316TIP3   OH267362   6.366   4.426  16.646  0.0628 -0.0579  0.5132
15316TIP3    H167363   6.445   4.375  16.633 -0.9949 -1.4341 -0.6122
15316TIP3    H267364   6.320   4.422  16.562 -3.0833 -2.5835  2.2485
15317TIP3   OH267365   1.799   6.729  12.395 -0.0005 -0.1588 -1.1405
15317TIP3    H167366   1.833   6.684  12.472  0.0858 -0.2097 -1.2089
15317TIP3    H267367   1.765   6.658  12.340 -1.4288 -0.0169 -0.4765
15318TIP3   OH267368   5.326   5.481   3.746 -0.1932  0.4172  0.0350
15318TIP3    H167369   5.291   5.504   3.832  0.6647  0.4765  0.3633
15318TIP3    H267370   5.302   5.555   3.690 -0.7591  0.3733  0.2150
15319TIP3   OH267371   1.047   1.949   1.948  0.3782  0.3757  0.3911
15319TIP3    H167372   1.112   2.010   1.983  0.6132  0.7319 -0.6501
15319TIP3    H267373   1.091   1.905   1.875  0.8795 -2.4634  2.2941
15320TIP3   OH267374   6.783   1.729  16.034 -0.6639  0.5435 -0.2162
15320TIP3    H167375   6.760   1.772  15.951  0.4402  1.0834 -0.2480
15320TIP3    H267376   6.780   1.636  16.013 -1.8162  0.6244 -0.4788
15321TIP3   OH267377   0.042   3.067  17.188  0.5352 -0.0369  0.5267
15321TIP3    H167378   0.131   3.100  17.175 -0.2404  1.9345  0.0250
15321TIP3    H267379  -0.012   3.121  17.132 -0.8283 -2.1860 -0.2954
15322TIP3   OH267380   5.045   5.824  12.070 -0.3127 -0.5622  0.4168
15322TIP3    H167381   5.019   5.751  12.014  0.2071  0.0466 -0.6163
15322TIP3    H267382   5.118   5.790  12.121  0.8754 -0.3303 -1.0953
15323TIP3   OH267383   5.005   2.852   1.900 -0.2895  0.0647 -0.2103
15323TIP3    H167384   4.923   2.897   1.877  0.4175  0.4771 -2.0132
15323TIP3    H267385   4.990   2.761   1.875  0.5898  0.5716 -2.6950
15324TIP3   OH267386   2.745   1.214   2.911  0.5153  0.6085  0.2854
15324TIP3    H167387   2.730   1.167   2.829  0.5478  0.6387  0.2616
15324TIP3    H267388   2.840   1.214   2.921  0.6043  1.7110 -0.3426
15325TIP3   OH267389   5.212   2.041  13.050 -0.5215  0.0264 -0.0075
15325TIP3    H167390   5.286   1.988  13.021 -1.6265 -1.8813  0.5445
15325TIP3    H267391   5.156   2.049  12.973 -0.7207 -0.2513  0.1091
15326TIP3   OH267392   1.482   1.299   2.211 -0.2290 -0.1819  0.0541
15326TIP3    H167393   1.469   1.219   2.161 -0.3074  0.1797 -0.5127
15326TIP3    H267394   1.440   1.367   2.158  1.0257  0.4559 -0.1390
15327TIP3   OH267395   1.278   6.745   5.657  0.7686  0.4564  0.2959
15327TIP3    H167396   1.312   6.820   5.608  0.1561  0.2408 -0.4656
15327TIP3    H267397   1.207   6.710   5.603 -0.6992  0.9025  1.8894
15328TIP3   OH267398   4.928   5.976  14.497 -0.3120  0.1167 -0.0973
15328TIP3    H167399   4.960   6.065  14.482 -2.5302  0.8092 -0.9900
15328TIP3    H267400   5.004   5.927  14.527  1.0031  2.2502  0.1174
15329TIP3   OH267401   6.645   2.691  17.210 -0.2949 -0.2575 -0.8231
15329TIP3    H167402   6.671   2.599  17.216 -0.1179 -0.1485  0.3459
15329TIP3    H267403   6.589   2.704  17.287 -1.2538  0.3176 -1.6095
15330TIP3   OH267404   3.984   6.303  15.288  0.1920  0.5400  0.4149
15330TIP3    H167405   4.031   6.364  15.231 -0.0886 -0.5195 -0.9664
15330TIP3    H267406   4.032   6.221  15.280 -0.7883 -0.0420  0.4592
15331TIP3   OH267407   4.019   0.666   1.251  0.2077  0.3471 -0.3711
15331TIP3    H167408   4.007   0.761   1.253  0.4088  0.3481  1.7140
15331TIP3    H267409   4.093   0.652   1.192 -0.6424  1.3787 -1.7080
15332TIP3   OH267410   3.217   2.658  14.026  0.0596 -0.5418 -0.2416
15332TIP3    H167411   3.216   2.745  13.985 -1.8273  0.6767  2.2617
15332TIP3    H267412   3.147   2.610  13.982  0.9095 -0.7204 -1.4221
15333TIP3   OH267413   2.400   0.262   2.042 -0.1484 -0.4592 -0.1119
15333TIP3    H167414   2.367   0.193   1.986 -4.1051  2.1841 -1.3020
15333TIP3    H267415   2.418   0.335   1.983 -0.6580  1.0867  1.5674
15334TIP3   OH267416   3.014   1.165   2.837  0.3087  0.1232  0.1325
15334TIP3    H167417   3.103   1.191   2.862  0.5064  0.3377 -0.7587
15334TIP3    H267418   2.999   1.083   2.883 -0.1694  1.5919  2.6641
15335TIP3   OH267419   5.765   1.505  12.015  0.6592  0.0703 -0.3135
15335TIP3    H167420   5.807   1.543  11.938 -0.5090  1.2222 -0.3927
15335TIP3    H267421   5.825   1.522  12.087 -0.4842  3.3673 -0.0799
15336TIP3   OH267422   4.778   5.294  12.099  0.1942 -0.4094  0.1706
15336TIP3    H167423   4.852   5.326  12.151 -0.7700 -0.6212  1.6759
15336TIP3    H267424   4.776   5.200  12.115 -0.2714 -0.4374 -0.0563
15337TIP3   OH267425   3.523   5.689  15.320 -0.0357  0.0728  0.0178
15337TIP3    H167426   3.567   5.688  15.235  1.7619  0.8306  0.9088
15337TIP3    H267427   3.550   5.772  15.359 -2.3626  0.5996  0.5556
15338TIP3   OH267428   6.560   6.759  16.458  0.6456 -0.0609  0.0211
15338TIP3    H167429   6.632   6.805  16.502 -0.4294 -0.4476  2.2559
15338TIP3    H267430   6.556   6.673  16.500 -1.7463  0.3132  0.6692
15339TIP3   OH267431   2.201   6.387  14.107 -0.3504  0.7036  0.1908
15339TIP3    H167432   2.187   6.367  14.199 -0.5002 -1.7545 -0.3310
15339TIP3    H267433   2.296   6.381  14.095 -0.5552 -2.4825 -0.4953
15340TIP3   OH267434   0.412   1.773  13.143 -0.7041  0.1589 -0.2643
15340TIP3    H167435   0.467   1.724  13.205  0.9194  1.3535 -0.7273
15340TIP3    H267436   0.412   1.719  13.064  0.1987  0.3696 -0.4157
15341TIP3   OH267437   3.850   4.509  14.391 -0.1542 -0.1744 -0.1831
15341TIP3    H167438   3.824   4.467  14.309  0.2236 -0.7087 -0.0327
15341TIP3    H267439   3.837   4.442  14.458 -1.2565  0.5329  0.3178
15342TIP3   OH267440   1.207   4.637  16.865 -0.1132  0.3539  0.3589
15342TIP3    H167441   1.200   4.569  16.932 -0.5151  0.1171  0.0734
15342TIP3    H267442   1.148   4.609  16.795 -1.0865  1.5149  0.6940
15343TIP3   OH267443   3.840   1.174   2.991  0.0253 -0.0727 -0.3200
15343TIP3    H167444   3.828   1.184   3.085  1.9872 -0.0474 -0.0666
15343TIP3    H267445   3.855   1.263   2.959  0.5194 -0.2120 -0.4837
15344TIP3   OH267446   3.949   0.631   2.342 -0.2753  0.2479  0.1959
15344TIP3    H167447   3.920   0.609   2.253  1.8521  1.2633 -0.8083
15344TIP3    H267448   3.872   0.618   2.397 -1.4276 -1.1534 -1.6790
15345TIP3   OH267449   3.363   4.981  12.545 -0.0039  0.4790  0.2434
15345TIP3    H167450   3.297   4.965  12.477  1.1145  1.0050 -0.9992
15345TIP3    H267451   3.349   4.911  12.609  1.6038 -2.6776 -2.6452
15346TIP3   OH267452   0.938   3.183  15.267  0.6696 -0.1034 -0.3630
15346TIP3    H167453   1.024   3.207  15.231  0.0622 -2.5030 -3.5957
15346TIP3    H267454   0.903   3.118  15.206 -2.2070 -1.3804  2.4764
15347TIP3   OH267455   1.360   2.341  12.817  0.0015  0.1608 -0.2914
15347TIP3    H167456   1.345   2.372  12.728  0.8922  2.7950  0.4171
15347TIP3    H267457   1.294   2.386  12.869  0.9903  0.4703  0.7086
15348TIP3   OH267458   5.990   6.707   4.272 -0.6964  0.0122  0.2323
15348TIP3    H167459   5.992   6.685   4.179  0.9437  1.9388 -0.2283
15348TIP3    H267460   5.925   6.777   4.278  0.6975  1.3270  0.1807
15349TIP3   OH267461   3.261   6.786  14.277 -0.8807 -0.5911 -0.2741
15349TIP3    H167462   3.325   6.815  14.211  1.2352 -2.0493  1.0760
15349TIP3    H267463   3.258   6.691  14.268 -0.9064 -0.7685  1.4102
15350TIP3   OH267464   5.759   3.713   1.822 -0.3469 -0.7753  0.4024
15350TIP3    H167465   5.699   3.777   1.784  0.3013  0.0198  0.7194
15350TIP3    H267466   5.827   3.701   1.756  0.4869  0.1975  1.0809
15351TIP3   OH267467   2.891   0.002  14.217 -0.4924  0.1816  0.2330
15351TIP3    H167468   2.818  -0.055  14.194 -0.0093 -0.3749  0.0433
15351TIP3    H267469   2.964  -0.031  14.165  0.2300 -0.1049  1.4083
15352TIP3   OH267470   3.132   0.470  13.602 -0.2076  0.4013  0.1490
15352TIP3    H167471   3.136   0.431  13.514 -1.6551  0.2214  0.1540
15352TIP3    H267472   3.047   0.444  13.636 -0.8805  2.8457  0.4864
15353TIP3   OH267473   6.169   2.991  15.154 -0.1026 -0.6027  0.3356
15353TIP3    H167474   6.228   2.992  15.230 -1.3837  0.8830  1.3350
15353TIP3    H267475   6.088   2.953  15.187 -0.1556 -1.4413 -0.7211
15354TIP3   OH267476   4.341   2.239  13.382  0.2000  0.1198 -0.4507
15354TIP3    H167477   4.409   2.293  13.421  0.9628 -0.9315 -0.2967
15354TIP3    H267478   4.259   2.279  13.409  0.7318 -0.1233  1.5800
15355TIP3   OH267479   0.227   4.950   4.788  0.0215 -0.3517  0.0474
15355TIP3    H167480   0.267   4.903   4.861 -0.4991 -1.8375 -0.6140
15355TIP3    H267481   0.284   4.933   4.713 -3.3430 -5.0681 -1.6667
15356TIP3   OH267482   5.725   4.875  15.211  0.5422  0.1667 -0.2763
15356TIP3    H167483   5.731   4.931  15.288  1.6963 -0.0099 -0.2306
15356TIP3    H267484   5.725   4.935  15.136  0.0142  0.3109 -0.1581
15357TIP3   OH267485   1.691   1.696   5.398 -0.0319 -0.1899  0.0423
15357TIP3    H167486   1.721   1.785   5.380  0.1320 -0.3186 -0.3247
15357TIP3    H267487   1.606   1.708   5.441  1.1050  0.2082  2.2565
15358TIP3   OH267488   6.051   3.617  16.181 -0.0460  0.1748 -0.3410
15358TIP3    H167489   6.126   3.563  16.208 -1.5122 -0.1697  3.2870
15358TIP3    H267490   6.091   3.700  16.152  1.9584 -1.4196 -2.3044
15359TIP3   OH267491   1.246   2.732   5.847  0.0788  0.1129 -0.8434
15359TIP3    H167492   1.238   2.812   5.795  1.5686 -1.1225 -3.0604
15359TIP3    H267493   1.334   2.734   5.882  0.6854 -1.2751 -2.2062
15360TIP3   OH267494   0.604   1.395   5.206  0.3907  0.0639 -0.0304
15360TIP3    H167495   0.627   1.330   5.139 -0.7603  0.7224 -1.0912
15360TIP3    H267496   0.516   1.371   5.233  0.3768  0.5443  0.3494
15361TIP3   OH267497   2.007   3.249  10.816  0.4904 -0.2815  0.4712
15361TIP3    H167498   1.994   3.343  10.801  1.0025 -0.2935 -0.0924
15361TIP3    H267499   1.972   3.207  10.737  1.8200 -0.4464 -0.0448
15362TIP3   OH267500   4.093   5.243  15.996  0.5692 -0.4593  0.4359
15362TIP3    H167501   4.054   5.173  15.944  1.2155  0.0389 -0.7542
15362TIP3    H267502   4.030   5.315  15.991  1.1480 -0.0011 -0.6683
15363TIP3   OH267503   5.414   3.254   6.105 -0.0851 -0.1733 -0.1196
15363TIP3    H167504   5.492   3.294   6.066 -0.8249 -0.8820 -2.3988
15363TIP3    H267505   5.440   3.164   6.124 -0.0909 -0.1582 -0.0380
15364TIP3   OH267506   1.698   1.564   4.940  0.0768 -0.5809  0.2511
15364TIP3    H167507   1.705   1.509   5.017 -2.7328 -2.7229 -0.9184
15364TIP3    H267508   1.606   1.593   4.940  0.6274  1.2544 -1.0491
15365TIP3   OH267509   4.590   2.917   3.390  1.3532 -0.2408 -0.0994
15365TIP3    H167510   4.654   2.970   3.437  0.5852 -0.6492  1.4394
15365TIP3    H267511   4.517   2.908   3.451  0.2327 -0.5812 -1.4794
15366TIP3   OH267512   4.298   5.985  16.063 -0.2082 -0.4711 -0.0555
15366TIP3    H167513   4.308   5.890  16.054 -0.9186 -0.3393 -2.4517
15366TIP3    H267514   4.356   6.022  15.996 -1.2900  0.7292 -0.3519
15367TIP3   OH267515   6.531   0.712   3.467  0.0324 -0.1827 -0.5897
15367TIP3    H167516   6.615   0.709   3.512 -0.8145 -0.8676  0.9771
15367TIP3    H267517   6.554   0.721   3.374  1.8961 -2.8882 -0.4412
15368TIP3   OH267518   0.892   0.151  14.227  0.4907 -0.0940  0.7146
15368TIP3    H167519   0.824   0.085  14.213  0.4501 -0.1458  1.1243
15368TIP3    H267520   0.847   0.220  14.276  0.5671  0.1729  0.4036
15369TIP3   OH267521   4.470   4.288  12.214  0.2082  0.3303 -0.6640
15369TIP3    H167522   4.454   4.302  12.307 -1.0134 -1.2160 -0.6391
15369TIP3    H267523   4.565   4.301  12.204  0.4487 -0.1658  0.9018
15370TIP3   OH267524   6.781   1.623  14.348 -0.5207  0.1177 -0.0821
15370TIP3    H167525   6.795   1.711  14.383 -3.2236  0.4963  0.2008
15370TIP3    H267526   6.750   1.638  14.258 -0.2377 -0.5845 -0.2976
15371TIP3   OH267527   0.846   3.360  15.464 -0.5015 -0.9461  0.7037
15371TIP3    H167528   0.893   3.339  15.545  2.7174  0.6851 -0.6814
15371TIP3    H267529   0.863   3.285  15.407 -3.3250 -2.4178  1.6376
15372TIP3   OH267530   6.097   0.812   1.052 -0.1237  0.3356 -0.7266
15372TIP3    H167531   6.035   0.747   1.085  0.4875 -0.0124 -0.2233
15372TIP3    H267532   6.180   0.787   1.094  0.6637 -0.0697 -2.4920
15373TIP3   OH267533   4.478   2.981  12.535  0.3030 -0.7209  0.0322
15373TIP3    H167534   4.545   3.049  12.539  0.7971 -1.2573  0.9209
15373TIP3    H267535   4.469   2.961  12.441  0.5258  0.1900 -0.1881
15374TIP3   OH267536   6.092   2.602   3.484 -0.2381 -0.2785  0.6821
15374TIP3    H167537   6.185   2.604   3.460 -0.0224 -2.5731  1.2098
15374TIP3    H267538   6.046   2.630   3.404  0.8926  0.6144  0.3404
15375TIP3   OH267539   1.226   5.712   5.309 -0.2952  0.0741 -0.4021
15375TIP3    H167540   1.139   5.696   5.271 -0.5647 -1.2989  0.7661
15375TIP3    H267541   1.224   5.666   5.392  1.1238  1.1153  0.2113
15376TIP3   OH267542   2.178   5.603   1.134  0.0960 -0.1765 -0.1069
15376TIP3    H167543   2.084   5.620   1.130  0.0681  0.0576  1.2170
15376TIP3    H267544   2.215   5.653   1.061 -0.3535  3.0767  1.7689
15377TIP3   OH267545   2.135   1.254  16.032 -0.3290 -0.4367  0.4562
15377TIP3    H167546   2.166   1.298  16.111  1.9843  0.9363 -1.1568
15377TIP3    H267547   2.051   1.296  16.012 -0.2730  0.1442  1.4260
15378TIP3   OH267548   2.759   3.410  15.131 -0.1525  0.2025  0.5881
15378TIP3    H167549   2.674   3.434  15.169 -1.1527  1.6208 -2.3549
15378TIP3    H267550   2.815   3.487  15.148 -0.8019  1.1260 -1.3033
15379TIP3   OH267551   5.301   2.506   4.935 -0.5681  0.3185 -0.1840
15379TIP3    H167552   5.384   2.502   4.887  0.4304 -0.0886  1.5477
15379TIP3    H267553   5.271   2.415   4.939 -1.4656  0.5410 -1.3894
15380TIP3   OH267554   1.718   6.306  15.974  0.0292 -0.4353 -0.3162
15380TIP3    H167555   1.751   6.244  16.040 -0.7921 -2.5158 -1.8027
15380TIP3    H267556   1.686   6.250  15.903  0.2569  1.7576 -2.1900
15381TIP3   OH267557   1.795   5.711  13.668 -0.4151 -0.6392 -0.6895
15381TIP3    H167558   1.872   5.724  13.724 -0.8762  1.1165 -0.4234
15381TIP3    H267559   1.816   5.756  13.587 -1.0271 -0.4378 -0.7419
15382TIP3   OH267560   2.106   2.125  11.329  0.4679  0.0878  0.1999
15382TIP3    H167561   2.200   2.137  11.345  0.1741 -0.0597  2.1208
15382TIP3    H267562   2.063   2.185  11.390 -0.6760  0.9458 -1.4280
15383TIP3   OH267563   0.322   3.296  10.806  0.0531 -0.2526 -0.4092
15383TIP3    H167564   0.252   3.344  10.850  1.1838 -0.4131  1.6529
15383TIP3    H267565   0.390   3.361  10.790 -0.4281 -0.1547 -2.1592
15384TIP3   OH267566   6.432   0.167  12.445  0.1631 -0.8603  0.4954
15384TIP3    H167567   6.399   0.085  12.410 -0.5004 -0.0184 -0.9053
15384TIP3    H267568   6.447   0.150  12.538  1.3399 -2.9486 -0.0419
15385TIP3   OH267569   0.942   0.696   2.480  0.0025 -0.0199  0.1761
15385TIP3    H167570   0.883   0.630   2.445  2.4538 -0.8027 -2.6612
15385TIP3    H267571   0.998   0.649   2.541  1.0307 -0.3348 -1.0104
15386TIP3   OH267572   0.113   2.047  10.964  0.2154  0.3228 -0.1858
15386TIP3    H167573   0.021   2.021  10.967 -0.0715  1.2737 -0.3947
15386TIP3    H267574   0.136   2.044  10.871  0.7856 -1.2249  0.0059
15387TIP3   OH267575   4.354   5.320   4.180 -0.5514 -0.7507  0.2850
15387TIP3    H167576   4.306   5.281   4.107 -1.1412  0.8049 -0.1646
15387TIP3    H267577   4.434   5.267   4.187 -1.0056 -1.5919 -0.7696
15388TIP3   OH267578   2.867   1.157  11.241  0.4587  0.3887  0.1746
15388TIP3    H167579   2.889   1.160  11.334  0.9407  1.5025  0.0378
15388TIP3    H267580   2.878   1.248  11.211 -1.1318  0.3240 -0.6331
15389TIP3   OH267581   3.894   4.542  17.026  0.1144 -0.3599  0.0856
15389TIP3    H167582   3.938   4.476  17.079  1.4866  1.1236  0.8370
15389TIP3    H267583   3.862   4.606  17.090  0.0732  0.4427 -0.7331
15390TIP3   OH267584   6.499   0.033  12.068 -0.1223  0.3150  0.2285
15390TIP3    H167585   6.544  -0.051  12.075  1.5533  1.2925  1.7464
15390TIP3    H267586   6.447   0.026  11.988  1.5015 -1.4408 -0.7077
15391TIP3   OH267587   0.863   3.894   1.115 -0.5394 -0.4362  0.9522
15391TIP3    H167588   0.781   3.931   1.084 -0.5480 -0.9147  0.3981
15391TIP3    H267589   0.874   3.930   1.204 -0.8810  0.3488  0.6810
15392TIP3   OH267590   0.485   4.832   4.640 -0.0008 -0.1090 -0.2974
15392TIP3    H167591   0.549   4.876   4.696 -1.0324  1.5915 -0.4377
15392TIP3    H267592   0.461   4.753   4.689 -0.4449  1.0498  1.3832
15393TIP3   OH267593   0.009   0.107   2.472  0.1728 -0.2945  0.2505
15393TIP3    H167594   0.051   0.193   2.465 -1.7426  0.6351  0.0478
15393TIP3    H267595  -0.036   0.095   2.388 -0.9154 -0.7714  0.8912
15394TIP3   OH267596   4.479   2.411  14.309  0.2260 -0.0239 -0.4134
15394TIP3    H167597   4.524   2.485  14.268 -0.7229  1.2676  0.8459
15394TIP3    H267598   4.533   2.388  14.384  0.2614 -0.3102 -0.5245
15395TIP3   OH267599   5.079   2.142  13.277 -0.5280 -0.3053  0.0751
15395TIP3    H167600   5.121   2.134  13.192  1.2075 -0.3896  0.9033
15395TIP3    H267601   5.008   2.078  13.276 -0.5231 -0.2872 -1.3024
15396TIP3   OH267602   1.218   3.829  15.892 -0.4559  0.2132 -0.2281
15396TIP3    H167603   1.150   3.768  15.865  1.2788 -1.8163 -0.1027
15396TIP3    H267604   1.237   3.880  15.813 -2.5721  1.3060 -0.0889
15397TIP3   OH267605   4.060   1.048   5.810  0.8976 -0.4057 -0.4795
15397TIP3    H167606   4.007   0.968   5.812  1.5562 -0.8747 -1.6472
15397TIP3    H267607   4.019   1.105   5.876 -0.6814 -1.0035 -0.9249
15398TIP3   OH267608   4.694   1.844   4.244 -0.3242 -1.2754  0.0491
15398TIP3    H167609   4.630   1.773   4.249 -1.0029 -0.7664 -1.3371
15398TIP3    H267610   4.652   1.912   4.191  0.0955  0.4177  1.8168
15399TIP3   OH267611   0.747   6.423  11.619  0.6002  0.1433 -0.1591
15399TIP3    H167612   0.700   6.434  11.536  2.7855  0.1546 -1.4269
15399TIP3    H267613   0.809   6.496  11.621  2.2223 -1.2143  0.3215
15400TIP3   OH267614   1.005   3.663  12.435 -0.6352  0.3155  0.2240
15400TIP3    H167615   0.954   3.587  12.408  1.1172 -0.9329  0.3509
15400TIP3    H267616   0.941   3.734  12.441 -2.0161 -0.7433 -1.5249
15401TIP3   OH267617   2.714   5.178   3.992  0.0194  0.3599  0.3756
15401TIP3    H167618   2.773   5.209   4.060 -0.9106 -1.7708  2.1954
15401TIP3    H267619   2.648   5.247   3.985  1.4579  1.7266 -0.1302
15402TIP3   OH267620   6.344   5.676  16.940 -0.1458 -0.1009  0.4333
15402TIP3    H167621   6.352   5.690  17.034 -2.0487 -0.8901  0.7265
15402TIP3    H267622   6.434   5.657  16.912  0.4778  0.3583  2.0489
15403TIP3   OH267623   4.060   5.162  13.177  0.1689 -0.4285  0.4276
15403TIP3    H167624   4.038   5.234  13.236  1.7536  0.3791  0.0745
15403TIP3    H267625   4.030   5.191  13.091 -1.6960 -1.3969  0.7208
15404TIP3   OH267626   4.522   3.237  15.435  0.2937 -0.4494  0.3577
15404TIP3    H167627   4.512   3.179  15.509 -2.7978 -2.7942 -1.7758
15404TIP3    H267628   4.462   3.309  15.452 -0.3489 -0.9417  0.1748
15405TIP3   OH267629   1.655   4.710   1.153  0.0342 -0.0435  0.3745
15405TIP3    H167630   1.565   4.740   1.139  0.3558  0.9609  0.4289
15405TIP3    H267631   1.697   4.717   1.068 -0.6147 -2.8967 -0.2235
15406TIP3   OH267632   0.193   3.510   5.788  0.0148 -0.2840  0.4946
15406TIP3    H167633   0.275   3.560   5.780 -0.2243 -0.1061 -1.0678
15406TIP3    H267634   0.221   3.419   5.791  0.3079 -0.1927  0.5641
15407TIP3   OH267635   1.035   6.078   4.423 -0.7524  0.3293 -0.7249
15407TIP3    H167636   0.970   6.019   4.462  0.5928 -0.0093  1.0930
15407TIP3    H267637   1.039   6.053   4.331 -2.6793 -0.1100 -0.7059
15408TIP3   OH267638   5.405   0.861  13.604 -0.1708 -0.6647  0.3742
15408TIP3    H167639   5.362   0.801  13.664  1.6874 -1.9680  0.4359
15408TIP3    H267640   5.494   0.869  13.637  0.4826 -0.3011 -1.4089
15409TIP3   OH267641   4.380   4.981   6.631 -0.1670 -0.4634  0.4463
15409TIP3    H167642   4.397   4.887   6.631 -0.9007 -0.5985 -0.0777
15409TIP3    H267643   4.464   5.021   6.652 -0.2754 -1.3204  2.7136
15410TIP3   OH267644   5.394   2.984  14.828 -0.1925  0.1149 -0.0966
15410TIP3    H167645   5.300   2.969  14.842 -0.0471 -0.3856  0.3474
15410TIP3    H267646   5.437   2.921  14.885  0.4209  0.9707  0.4096
15411TIP3   OH267647   2.871   3.509  11.521 -0.2687  0.5065  0.3924
15411TIP3    H167648   2.942   3.554  11.474 -1.3737  3.1370  1.1678
15411TIP3    H267649   2.825   3.460  11.453  2.1534 -1.1464 -0.1514
15412TIP3   OH267650   0.105   1.898  16.630  0.6776  0.2470 -0.2825
15412TIP3    H167651   0.029   1.841  16.641  1.3792 -0.5323  0.6620
15412TIP3    H267652   0.076   1.984  16.660  0.1606 -0.0326  0.0157
15413TIP3   OH267653   3.598   0.228  12.005  0.0199  0.5392  0.4464
15413TIP3    H167654   3.570   0.232  11.914  0.6758  2.0908  0.3079
15413TIP3    H267655   3.520   0.197  12.053  0.0000 -1.3442 -0.7634
15414TIP3   OH267656   4.073   1.293  14.483  0.2151 -0.1095 -0.1382
15414TIP3    H167657   4.087   1.281  14.389  0.1289 -2.8443  0.1574
15414TIP3    H267658   3.996   1.239  14.503  1.3145 -1.0339  1.8029
15415TIP3   OH267659   0.467   0.477   3.330 -0.2064  0.1458 -0.3419
15415TIP3    H167660   0.444   0.384   3.324  0.7534 -0.0702 -0.7195
15415TIP3    H267661   0.455   0.510   3.241 -1.5984  0.6467  0.0112
15416TIP3   OH267662   0.145   0.094   6.168 -0.7702 -0.2067 -0.0728
15416TIP3    H167663   0.217   0.157   6.171 -1.2469  0.3744 -0.7372
15416TIP3    H267664   0.183   0.013   6.201  0.5683 -0.2418 -1.6397
15417TIP3   OH267665   6.542   1.680   2.716  0.2163  0.0284  0.3524
15417TIP3    H167666   6.550   1.598   2.667  0.3777  0.0137  0.4016
15417TIP3    H267667   6.531   1.652   2.807  0.4343  0.0628  0.3903
15418TIP3   OH267668   2.441   3.734   2.155 -0.0301 -0.1115  0.6042
15418TIP3    H167669   2.409   3.655   2.111  1.7329  0.2809 -1.4827
15418TIP3    H267670   2.404   3.729   2.243  0.1929 -3.3869  0.5759
15419TIP3   OH267671   0.345   0.231   2.690 -0.2839 -0.9351 -0.3809
15419TIP3    H167672   0.407   0.160   2.703  0.8239 -0.2636 -1.8644
15419TIP3    H267673   0.260   0.194   2.715  0.7860 -1.6078  2.4633
15420TIP3   OH267674   2.644   1.780   3.138  0.6456 -0.5112  0.6198
15420TIP3    H167675   2.630   1.768   3.232 -1.2351 -1.8297  0.2096
15420TIP3    H267676   2.556   1.789   3.102  1.3749  0.4015 -0.9655
15421TIP3   OH267677   5.426   0.285   3.662 -0.1264  0.9040 -0.0918
15421TIP3    H167678   5.486   0.246   3.599 -1.2687  0.4918 -0.9604
15421TIP3    H267679   5.384   0.356   3.614  0.1889  1.6471  0.7301
15422TIP3   OH267680   1.226   1.615   3.891  0.6697  0.3006 -0.4836
15422TIP3    H167681   1.132   1.601   3.886  0.8320 -1.6274  1.5325
15422TIP3    H267682   1.237   1.681   3.959  0.7179  1.6548 -1.7625
15423TIP3   OH267683   2.510   2.082   2.072 -0.2136  0.3277 -0.3532
15423TIP3    H167684   2.554   2.007   2.111  0.0889  1.3259  1.2871
15423TIP3    H267685   2.470   2.128   2.146 -0.6093  1.6418 -1.3490
15424TIP3   OH267686   1.236   5.351   0.592 -0.0588  0.1279  0.1421
15424TIP3    H167687   1.287   5.359   0.512  0.1748  0.4037  0.3185
15424TIP3    H267688   1.216   5.442   0.617 -0.6609  0.0262  0.0559
15425TIP3   OH267689   3.209   6.584   3.948 -0.6161  0.5263  0.5212
15425TIP3    H167690   3.240   6.652   3.888  0.4211  0.9086  1.4817
15425TIP3    H267691   3.278   6.518   3.948 -0.7676  0.3640  1.0417
15426TIP3   OH267692   3.934   4.746   3.734  0.3182 -0.0343 -0.4776
15426TIP3    H167693   3.841   4.765   3.739  0.1234 -1.1136  0.1167
15426TIP3    H267694   3.975   4.806   3.796 -0.0785 -0.1919 -0.0660
15427TIP3   OH267695   4.227   1.462   4.004  0.0719  0.4469 -0.3675
15427TIP3    H167696   4.230   1.483   4.097 -0.7856  0.5196 -0.3561
15427TIP3    H267697   4.140   1.425   3.989  0.4109 -0.1087 -1.0286
15428TIP3   OH267698   0.227   2.515   2.231 -0.7244 -0.3268 -0.8093
15428TIP3    H167699   0.159   2.577   2.204 -1.0932 -0.2116  0.3816
15428TIP3    H267700   0.185   2.430   2.226 -0.8535 -0.2865 -0.3941
15429TIP3   OH267701   6.560   5.616  17.237  0.0474  0.2284  0.4137
15429TIP3    H167702   6.642   5.567  17.247  0.8230  1.6768  1.3400
15429TIP3    H267703   6.494   5.549  17.218  1.6134 -0.8697 -1.4029
15430TIP3   OH267704   1.016   1.893  14.100 -0.4748  0.2869 -0.0771
15430TIP3    H167705   1.023   1.959  14.031 -0.1246  0.2459 -0.0772
15430TIP3    H267706   1.106   1.865  14.117 -0.3168  1.8757  1.9116
15431TIP3   OH267707   3.544   0.990   3.068 -0.3338  0.0716 -0.1543
15431TIP3    H167708   3.571   1.058   3.129  2.3767 -1.7576  0.7678
15431TIP3    H267709   3.483   0.936   3.118 -1.3181  0.9418 -0.4053
15432TIP3   OH267710   2.615   6.443   3.552  0.8306  0.4608  0.4420
15432TIP3    H167711   2.687   6.381   3.567 -0.9339 -1.5278  0.8787
15432TIP3    H267712   2.569   6.447   3.636 -0.8739  0.0002 -0.4591
15433TIP3   OH267713   2.089   3.468   1.695 -1.0897  0.3978 -0.2794
15433TIP3    H167714   2.087   3.422   1.612 -1.0945  1.1049 -0.6708
15433TIP3    H267715   1.997   3.483   1.716 -1.0865  0.2713 -0.1656
15434TIP3   OH267716   4.755   4.374  14.158  0.0055 -0.0649 -0.2256
15434TIP3    H167717   4.728   4.282  14.156  0.2286 -0.1588  0.6086
15434TIP3    H267718   4.827   4.379  14.095 -0.6363 -0.2472 -0.9853
15435TIP3   OH267719   5.414   2.579  17.232 -0.4330 -0.8313  0.0841
15435TIP3    H167720   5.400   2.673  17.219 -0.1244 -0.5751  1.5280
15435TIP3    H267721   5.509   2.571  17.245 -0.5036 -1.3045  0.3029
15436TIP3   OH267722   5.639   3.871  17.031  0.0208 -0.1327  0.0078
15436TIP3    H167723   5.577   3.878  16.959 -2.9285  2.3509  2.6831
15436TIP3    H267724   5.634   3.779  17.059  1.2060 -1.1230 -2.8477
15437TIP3   OH267725   6.678   1.874  12.898  0.1470  0.3767 -0.4952
15437TIP3    H167726   6.598   1.835  12.864  0.3977  1.2331 -2.1436
15437TIP3    H267727   6.674   1.965  12.869  2.5276  0.0156 -2.1399
15438TIP3   OH267728   4.765   6.725   3.200 -0.0587 -0.0726  0.2519
15438TIP3    H167729   4.812   6.770   3.269  0.2799 -0.4073  0.2393
15438TIP3    H267730   4.743   6.794   3.136  2.3146 -0.2612 -0.8096
15439TIP3   OH267731   5.304   0.064   5.054 -0.0936 -0.2191 -1.2465
15439TIP3    H167732   5.294   0.110   5.137  0.2321 -1.2472 -0.6311
15439TIP3    H267733   5.309   0.133   4.988 -0.9914  0.5824 -0.4766
15440TIP3   OH267734   0.255   6.100  12.846  0.2846 -0.2961 -0.1874
15440TIP3    H167735   0.247   6.068  12.756  0.3181  0.5582 -0.4973
15440TIP3    H267736   0.221   6.029  12.900  0.7757 -1.0375 -0.8424
15441TIP3   OH267737   2.335   4.481   6.653  0.0867 -0.1744  0.4617
15441TIP3    H167738   2.292   4.566   6.640  1.1827  0.1796 -1.0018
15441TIP3    H267739   2.400   4.497   6.721  3.2045  1.2644 -2.7567
15442TIP3   OH267740   6.265   4.640  16.997 -0.1990  0.2692 -0.0133
15442TIP3    H167741   6.224   4.610  17.078 -1.0491  0.3843 -0.3906
15442TIP3    H267742   6.320   4.567  16.969 -1.0507 -0.3516 -0.1054
15443TIP3   OH267743   0.162   3.199  16.348  0.3330 -0.0835  0.2815
15443TIP3    H167744   0.204   3.213  16.432  1.6986 -0.0139 -0.3972
15443TIP3    H267745   0.144   3.105  16.344  0.8289 -0.1813  0.3915
15444TIP3   OH267746   4.537   4.585   6.502 -0.7444  0.1878 -0.1766
15444TIP3    H167747   4.480   4.514   6.532 -1.7490  0.5489 -1.2180
15444TIP3    H267748   4.626   4.553   6.520 -1.2615 -0.3585  1.4931
15445TIP3   OH267749   1.815   1.365  15.090  0.4163  0.0077  0.5188
15445TIP3    H167750   1.786   1.303  15.157 -0.5387  1.8737  1.8934
15445TIP3    H267751   1.786   1.450  15.123 -1.4015  0.8513 -2.9926
15446TIP3   OH267752   6.109   6.095   3.551 -0.4389  0.2149  0.3045
15446TIP3    H167753   6.042   6.031   3.527  0.0539 -0.5054  0.8133
15446TIP3    H267754   6.085   6.175   3.504 -1.5212 -0.1073  0.3024
15447TIP3   OH267755   5.444   4.501  14.696  0.0246 -0.2708 -0.4239
15447TIP3    H167756   5.390   4.580  14.696  1.3146  0.6294  1.1627
15447TIP3    H267757   5.413   4.452  14.619 -3.3234 -0.0203  0.6731
15448TIP3   OH267758   4.496   4.447  13.702  0.5395 -0.2402  0.2075
15448TIP3    H167759   4.522   4.499  13.778  1.4217 -0.8630  0.3465
15448TIP3    H267760   4.400   4.451  13.701  0.5904  1.0933  0.4057
15449TIP3   OH267761   1.716   0.265   3.043  0.0787  0.3200  1.1218
15449TIP3    H167762   1.628   0.285   3.075 -0.3632 -1.3632  0.9946
15449TIP3    H267763   1.740   0.184   3.088  0.1710 -1.1238 -1.4008
15450TIP3   OH267764   6.588   2.703  12.733 -0.1504  0.6380  0.2540
15450TIP3    H167765   6.648   2.712  12.807 -0.5316  0.5921  0.5682
15450TIP3    H267766   6.640   2.659  12.666  0.2372  0.7990  0.4461
15451TIP3   OH267767   0.439   6.611  14.093 -0.6922 -0.1265 -0.3777
15451TIP3    H167768   0.435   6.519  14.119  0.9135  0.4089  1.9430
15451TIP3    H267769   0.376   6.655  14.150  1.2038  0.7374  1.0894
15452TIP3   OH267770   5.078   3.475  16.135 -0.1196  1.0431  0.0864
15452TIP3    H167771   5.141   3.536  16.096 -0.6720  2.0752  0.7732
15452TIP3    H267772   5.130   3.422  16.196  0.6516 -0.2442 -1.6553
15453TIP3   OH267773   3.498   6.411   2.670 -0.8057 -0.2015 -0.3831
15453TIP3    H167774   3.476   6.433   2.761  1.8382 -2.0030  0.7248
15453TIP3    H267775   3.593   6.416   2.666 -0.9062  0.3440 -3.2131
15454TIP3   OH267776   6.123   5.946   3.122  0.2280  0.6803  0.6809
15454TIP3    H167777   6.137   5.924   3.029 -0.1135 -1.1697  1.0497
15454TIP3    H267778   6.049   6.006   3.121 -0.9944 -0.8118 -0.1120
15455TIP3   OH267779   2.314   6.462   2.585 -0.3372 -0.2879  0.4450
15455TIP3    H167780   2.337   6.373   2.558 -3.0795 -0.5374 -1.3799
15455TIP3    H267781   2.290   6.454   2.677  0.0405 -1.3158  0.4586
15456TIP3   OH267782   4.909   1.116  17.185 -0.5646 -0.2526 -0.0945
15456TIP3    H167783   4.901   1.191  17.243 -0.9157  0.2193 -0.7394
15456TIP3    H267784   4.993   1.077  17.207 -0.0040  0.8065 -0.3060
15457TIP3   OH267785   2.271   1.504  15.438  0.1292  0.0903  0.0687
15457TIP3    H167786   2.332   1.472  15.372  0.6414  0.7798  0.2017
15457TIP3    H267787   2.185   1.499  15.396 -0.1584 -3.8763  0.9491
15458TIP3   OH267788   0.893   4.838   2.055  0.2115  0.1760 -0.0936
15458TIP3    H167789   0.857   4.761   2.100  2.0847 -1.0320 -0.6211
15458TIP3    H267790   0.887   4.816   1.962 -0.5294  1.2727 -0.3174
15459TIP3   OH267791   0.754   0.969  16.121  0.7516 -0.3113 -0.0752
15459TIP3    H167792   0.838   0.985  16.166  0.4046  1.2422  0.0614
15459TIP3    H267793   0.738   0.876  16.132  1.9856 -0.4358  0.7663
15460TIP3   OH267794   2.072   0.108  14.415  0.2159 -0.2890 -0.5819
15460TIP3    H167795   2.027   0.151  14.343  0.6856 -0.1111 -0.7710
15460TIP3    H267796   2.051   0.015  14.404  0.0843 -0.2335 -0.8046
15461TIP3   OH267797   4.791   5.476  15.571  0.0519  0.5569  0.3553
15461TIP3    H167798   4.758   5.480  15.481  1.8823  1.9921 -0.2861
15461TIP3    H267799   4.730   5.418  15.616 -1.3801  0.4734 -1.6051
15462TIP3   OH267800   3.230   4.230  13.300  0.8357  0.0796  0.8727
15462TIP3    H167801   3.147   4.217  13.345  0.3432  1.6841  0.4740
15462TIP3    H267802   3.214   4.303  13.240  2.2577 -0.2312  0.0850
15463TIP3   OH267803   3.258   3.439  13.266 -0.3185 -0.4849  0.2276
15463TIP3    H167804   3.229   3.447  13.175 -0.2009  0.7288  0.2968
15463TIP3    H267805   3.220   3.515  13.310  0.7402 -0.3413  0.9051
15464TIP3   OH267806   0.173   5.639   0.207 -0.2579 -0.4805  0.3330
15464TIP3    H167807   0.216   5.718   0.239 -0.7917 -0.3276  0.6846
15464TIP3    H267808   0.158   5.656   0.113  0.3513 -0.4940  0.2365
15465TIP3   OH267809   3.652   1.505  10.743 -0.3457  0.0935  0.1233
15465TIP3    H167810   3.707   1.438  10.783  1.2833 -0.6536 -3.1970
15465TIP3    H267811   3.687   1.588  10.776 -0.7836 -0.5642  2.3072
15466TIP3   OH267812   1.520   4.429   5.825 -0.3661  0.5934  0.0433
15466TIP3    H167813   1.485   4.511   5.789  0.1718  0.8425  0.0820
15466TIP3    H267814   1.611   4.428   5.797 -0.4400 -0.1142 -0.1608
15467TIP3   OH267815   1.401   3.228  16.466 -0.0721  0.2070  0.3653
15467TIP3    H167816   1.481   3.232  16.413 -0.7031 -1.2709 -0.7460
15467TIP3    H267817   1.425   3.177  16.543  0.4268  0.9959  0.7367
15468TIP3   OH267818   0.609   4.760   2.641 -0.6451  0.4069 -0.5083
15468TIP3    H167819   0.620   4.810   2.722 -0.3422 -0.2765 -0.1213
15468TIP3    H267820   0.517   4.770   2.619 -0.5363  1.3334 -0.5627
15469TIP3   OH267821   0.363   6.200  15.250 -0.4792  0.3268  0.1514
15469TIP3    H167822   0.416   6.130  15.210 -0.0164  1.2759 -0.9139
15469TIP3    H267823   0.392   6.280  15.206 -0.1317  1.3751  2.2332
15470TIP3   OH267824   6.277   4.918   4.777  0.3903 -1.0642  0.0818
15470TIP3    H167825   6.301   4.832   4.810  2.4066 -0.1920  1.0194
15470TIP3    H267826   6.272   4.907   4.682  0.3534 -2.2721  0.2177
15471TIP3   OH267827   1.676   2.995  11.657  0.7013  0.6081  0.1774
15471TIP3    H167828   1.721   2.922  11.698 -0.2210  0.4092  0.8379
15471TIP3    H267829   1.730   3.017  11.581  1.4781 -0.1427  0.5130
15472TIP3   OH267830   0.998   4.155  16.888  0.1182 -0.0580 -0.0113
15472TIP3    H167831   0.952   4.130  16.808 -0.4379  0.7566  0.0486
15472TIP3    H267832   1.087   4.120  16.876  0.8087  2.2525 -2.1398
15473TIP3   OH267833   1.792   2.759  13.196  0.2750 -0.6729 -0.3725
15473TIP3    H167834   1.742   2.714  13.264  0.8259 -2.0773 -0.8846
15473TIP3    H267835   1.851   2.692  13.161  1.9178  0.7405 -0.3638
15474TIP3   OH267836   3.148   5.212   4.376  0.1471 -0.2682 -0.1683
15474TIP3    H167837   3.107   5.155   4.441  0.7183 -0.7776 -0.2603
15474TIP3    H267838   3.240   5.214   4.400 -0.2707  2.7799  1.4786
15475TIP3   OH267839   3.815   1.725   5.102 -0.0919 -0.3924 -0.1215
15475TIP3    H167840   3.869   1.655   5.063 -0.0208  0.4824 -1.6405
15475TIP3    H267841   3.867   1.804   5.090 -1.1829  0.2732 -0.4992
15476TIP3   OH267842   1.560   5.869   5.776  0.2220  0.1339 -0.0598
15476TIP3    H167843   1.550   5.845   5.868  1.3401 -0.4770 -0.0884
15476TIP3    H267844   1.478   5.839   5.735  0.9758 -2.3855  0.1909
15477TIP3   OH267845   3.038   2.296   5.072  0.0073 -0.4091 -0.4597
15477TIP3    H167846   3.024   2.389   5.085 -0.7547 -0.5015 -0.6004
15477TIP3    H267847   3.063   2.263   5.159  0.2896 -0.0752 -0.4136
15478TIP3   OH267848   2.590   0.795   1.001 -0.5899 -0.6913 -0.5581
15478TIP3    H167849   2.586   0.706   0.967 -2.1329 -0.6795 -0.4448
15478TIP3    H267850   2.535   0.794   1.080 -1.1043  0.4906 -0.8803
15479TIP3   OH267851   5.953   5.978  12.988  0.4441  0.5299 -0.1781
15479TIP3    H167852   5.869   6.011  12.958 -0.3519 -0.9285  0.3896
15479TIP3    H267853   5.984   5.923  12.916  0.2004 -0.1428  0.2333
15480TIP3   OH267854   5.857   6.536   0.272  0.0936  0.3055 -0.0525
15480TIP3    H167855   5.892   6.596   0.339  0.0063 -0.6587  0.8777
15480TIP3    H267856   5.840   6.455   0.320 -0.1309 -0.3478 -1.2275
15481TIP3   OH267857   0.523   2.544   5.419  0.0044  0.2647 -0.1890
15481TIP3    H167858   0.469   2.622   5.429  1.1385  0.9836  0.3996
15481TIP3    H267859   0.531   2.508   5.508  1.5552  0.8932 -0.0576
15482TIP3   OH267860   0.401   1.403   6.250  0.1986  0.2054 -0.5596
15482TIP3    H167861   0.473   1.466   6.245  1.3159 -0.7509  2.3985
15482TIP3    H267862   0.324   1.455   6.273  0.1111  1.0760 -2.6715
15483TIP3   OH267863   4.144   2.498  11.698 -0.5511 -0.0800  0.2443
15483TIP3    H167864   4.084   2.520  11.626  1.2503 -0.6846 -1.5024
15483TIP3    H267865   4.142   2.402  11.701  2.2491 -0.2503 -1.5823
15484TIP3   OH267866   1.957   5.933   0.922  0.7439  0.0074  0.2410
15484TIP3    H167867   1.900   5.996   0.964  1.5586  0.5092  0.6155
15484TIP3    H267868   1.934   5.849   0.960 -0.9806 -0.0741 -0.9182
15485TIP3   OH267869   0.098   0.946   5.934  0.1742 -0.0778  0.6272
15485TIP3    H167870   0.155   0.907   5.867  0.2230  3.4556 -1.5574
15485TIP3    H267871   0.011   0.913   5.913  0.3202  0.3257 -0.7096
15486TIP3   OH267872   4.749   4.463   3.137 -0.5061 -0.1985  0.1138
15486TIP3    H167873   4.783   4.552   3.125  2.2674 -1.2629 -0.1335
15486TIP3    H267874   4.742   4.453   3.232 -0.9511  0.3128  0.1410
15487TIP3   OH267875   3.159   2.488  12.401 -0.1410 -0.0448 -0.6568
15487TIP3    H167876   3.176   2.480  12.495  0.8898 -0.3298 -0.8702
15487TIP3    H267877   3.113   2.407  12.378 -0.0858 -0.1284 -0.4722
15488TIP3   OH267878   3.233   2.232   3.714  0.6071  0.2013  0.6965
15488TIP3    H167879   3.148   2.222   3.757  0.7672  1.0783  1.2261
15488TIP3    H267880   3.287   2.162   3.751  0.2359 -0.1112  0.6499
15489TIP3   OH267881   1.102   0.983  12.401  0.1663  0.1569  0.7647
15489TIP3    H167882   1.128   1.019  12.316  2.2594  2.3418  2.2658
15489TIP3    H267883   1.150   0.900  12.406 -0.5951 -0.3882 -0.4833
15490TIP3   OH267884   6.746   2.438   1.156  0.0583  0.1819  0.3962
15490TIP3    H167885   6.728   2.348   1.184 -1.7877  0.3353 -0.2484
15490TIP3    H267886   6.712   2.492   1.227  0.0971  0.4126  0.2368
15491TIP3   OH267887   2.976   0.792   1.349 -0.2774  0.3476  0.2600
15491TIP3    H167888   2.958   0.875   1.305 -1.8788  0.9395  1.9771
15491TIP3    H267889   3.070   0.794   1.366 -0.3700  1.9867  0.6490
15492TIP3   OH267890   5.965   1.811  14.177 -0.0886 -0.6381  0.3640
15492TIP3    H167891   5.922   1.726  14.189 -1.5066 -0.2785 -1.7636
15492TIP3    H267892   6.011   1.803  14.093 -0.2087  0.6506  0.1560
15493TIP3   OH267893   0.447   2.382  11.490  0.3250  0.1660  0.4774
15493TIP3    H167894   0.513   2.334  11.540  0.0218  2.2253  2.9888
15493TIP3    H267895   0.365   2.367  11.537 -0.8068 -1.3552 -1.8965
15494TIP3   OH267896   2.613   4.785   0.293 -0.2536  0.2498 -0.2195
15494TIP3    H167897   2.708   4.796   0.300 -0.0533 -1.2192 -0.2812
15494TIP3    H267898   2.577   4.871   0.311  1.0492  0.5621  1.0355
15495TIP3   OH267899   4.852   0.864  15.458 -0.1075 -0.0911  0.9794
15495TIP3    H167900   4.930   0.910  15.489  0.9176 -0.8749 -0.3786
15495TIP3    H267901   4.861   0.862  15.363 -2.1311  0.3922  0.7430
15496TIP3   OH267902   1.250   3.064  17.199 -0.1832 -0.1943  0.2650
15496TIP3    H167903   1.206   3.017  17.270 -0.3781 -1.9378 -0.9791
15496TIP3    H267904   1.281   2.995  17.140 -0.8701  1.2658 -1.8560
15497TIP3   OH267905   1.914   6.366   3.743 -0.3209  0.4791  0.0558
15497TIP3    H167906   1.818   6.369   3.746 -0.3529  0.1179 -0.5095
15497TIP3    H267907   1.941   6.457   3.736 -0.6811  0.5020 -1.1630
15498TIP3   OH267908   3.831   0.290   3.230  0.9621 -0.3972 -0.3586
15498TIP3    H167909   3.875   0.370   3.258 -0.0198 -0.6587  1.9820
15498TIP3    H267910   3.862   0.222   3.290 -2.1447 -0.7092  0.9917
15499TIP3   OH267911   2.826   3.479   3.035 -0.4159 -0.2106  0.0739
15499TIP3    H167912   2.887   3.448   3.102 -0.5164  0.4087  0.4518
15499TIP3    H267913   2.801   3.400   2.988  2.4859 -0.1633 -1.6232
15500TIP3   OH267914   4.240   0.830   4.016 -0.6972  0.0629  0.0530
15500TIP3    H167915   4.333   0.816   3.997 -0.2537 -0.4702  2.3988
15500TIP3    H267916   4.226   0.923   4.001  0.0482  0.0235 -0.9378
15501TIP3   OH267917   0.284   4.217  10.226 -0.4091  0.5321 -0.1833
15501TIP3    H167918   0.321   4.129  10.222 -1.8416 -0.0280 -1.6196
15501TIP3    H267919   0.359   4.275  10.221  0.4937 -0.6136 -0.0459
15502TIP3   OH267920   0.552   2.049   0.409 -0.8079 -0.2840 -0.0457
15502TIP3    H167921   0.460   2.077   0.408 -0.7304 -0.0522 -1.2557
15502TIP3    H267922   0.580   2.055   0.317 -0.1108 -2.0710  0.0253
15503TIP3   OH267923   2.981   5.102  16.715 -0.2654  0.3842 -0.1781
15503TIP3    H167924   3.063   5.085  16.669 -0.1524 -0.7995  0.4483
15503TIP3    H267925   2.916   5.110  16.645  0.4597  1.9116 -0.7153
15504TIP3   OH267926   0.795   0.582  15.549  0.1620 -0.3575  0.6465
15504TIP3    H167927   0.874   0.531  15.534 -1.4716 -3.1563  1.0731
15504TIP3    H267928   0.816   0.641  15.621  1.8512 -1.0609  0.7307
15505TIP3   OH267929   1.191   1.206  15.571  0.0035 -0.6681  0.3256
15505TIP3    H167930   1.172   1.132  15.629 -0.0846  0.2057  1.4274
15505TIP3    H267931   1.106   1.231  15.536 -0.1183 -0.4065  0.7981
15506TIP3   OH267932   5.262   6.168   5.230  0.2036 -1.1494  0.2610
15506TIP3    H167933   5.351   6.199   5.244  0.3385 -0.5116 -1.8675
15506TIP3    H267934   5.235   6.208   5.147 -2.3108 -0.8030  1.2097
15507TIP3   OH267935   3.073   1.144  14.066 -0.6676  0.6285 -0.3595
15507TIP3    H167936   3.139   1.082  14.095 -1.9340 -1.2133 -1.2793
15507TIP3    H267937   3.038   1.181  14.147  0.2203  0.2645  0.1977
15508TIP3   OH267938   1.594   3.040  13.952 -0.6591 -0.0516 -0.2889
15508TIP3    H167939   1.532   2.977  13.988 -1.9336 -0.0331 -2.3130
15508TIP3    H267940   1.677   2.992  13.947 -0.4460 -0.0437  2.5521
15509TIP3   OH267941   6.606   3.266  11.194  0.3131  0.2381 -0.2437
15509TIP3    H167942   6.526   3.299  11.234 -1.7171 -1.4900 -2.7124
15509TIP3    H267943   6.606   3.305  11.106  2.1036  0.1051 -0.3183
15510TIP3   OH267944   5.377   1.600  17.004 -0.3700 -0.0820 -0.0765
15510TIP3    H167945   5.350   1.615  16.914  2.4992  1.2017 -0.7525
15510TIP3    H267946   5.318   1.530  17.035 -1.8495 -0.0382 -2.6746
15511TIP3   OH267947   0.017   5.334  16.658  0.1206 -0.2323  0.7089
15511TIP3    H167948  -0.068   5.370  16.684  0.2664  0.9460 -0.4051
15511TIP3    H267949   0.079   5.371  16.722 -0.2318 -1.3208  1.6976
15512TIP3   OH267950   1.895   0.648  11.958 -0.2267  0.5400 -0.2319
15512TIP3    H167951   1.824   0.627  12.018  0.0475  0.8068  0.1897
15512TIP3    H267952   1.944   0.718  12.002 -0.1319  0.8692 -0.8449
15513TIP3   OH267953   0.614   4.438  11.822 -0.5379 -0.1955 -0.0128
15513TIP3    H167954   0.705   4.463  11.811 -0.3645 -0.1903  1.3434
15513TIP3    H267955   0.566   4.496  11.762 -0.0362  2.7084  2.2451
15514TIP3   OH267956   2.625   5.314   1.302 -0.7198 -0.1966  0.1954
15514TIP3    H167957   2.611   5.231   1.348  0.8604 -0.2057  0.6970
15514TIP3    H267958   2.594   5.297   1.213  1.5898 -2.0495 -0.3173
15515TIP3   OH267959   3.049   3.696   4.345 -0.1784 -0.0817 -0.0949
15515TIP3    H167960   2.956   3.695   4.367 -0.4894 -0.7260 -1.4070
15515TIP3    H267961   3.078   3.606   4.359 -0.0870 -0.2067 -1.0741
15516TIP3   OH267962   3.133   6.557  16.670 -0.9398 -0.4986 -0.1688
15516TIP3    H167963   3.071   6.484  16.676 -1.3764 -0.1159 -0.0299
15516TIP3    H267964   3.218   6.515  16.656 -0.9289 -1.1342  1.5992
15517TIP3   OH267965   4.385   3.643   5.791 -0.3738  0.4570  0.2713
15517TIP3    H167966   4.335   3.700   5.849 -1.9750 -0.6709  0.0293
15517TIP3    H267967   4.375   3.681   5.704 -0.0490  0.7526  0.3648
15518TIP3   OH267968   6.185   4.885   0.463  0.5539  0.0290 -0.1652
15518TIP3    H167969   6.279   4.865   0.460 -0.3492 -4.6152 -0.8444
15518TIP3    H267970   6.160   4.897   0.371  0.3387  0.5466 -0.0413
15519TIP3   OH267971   4.133   3.020  16.107  0.1995 -0.0070 -0.3490
15519TIP3    H167972   4.146   3.093  16.167 -1.5683 -0.0123  0.0522
15519TIP3    H267973   4.052   3.040  16.061 -0.8564 -2.1931  0.4805
15520TIP3   OH267974   4.971   4.360  13.786  0.4961 -0.0440  0.2390
15520TIP3    H167975   4.989   4.281  13.736  1.2510  0.3889 -0.1887
15520TIP3    H267976   4.940   4.329  13.871 -0.2374 -0.7854 -0.3018
15521TIP3   OH267977   0.884   1.982   0.322  0.5006 -0.7012  0.1033
15521TIP3    H167978   0.920   1.915   0.380  0.3772 -0.1546  0.8232
15521TIP3    H267979   0.956   2.045   0.311  0.9568 -1.4639 -1.3940
15522TIP3   OH267980   6.328   6.754  16.619  0.2228 -0.1414 -0.4009
15522TIP3    H167981   6.403   6.770  16.562  1.2903 -1.1517  0.6964
15522TIP3    H267982   6.257   6.804  16.579  1.9176  2.3193 -0.4513
15523TIP3   OH267983   1.502   6.143  11.608 -0.3540  0.1779  0.7069
15523TIP3    H167984   1.470   6.059  11.576  1.6561 -0.0701 -0.7598
15523TIP3    H267985   1.454   6.208  11.557  0.6753 -0.1768 -0.7683
15524TIP3   OH267986   5.773   4.248   0.886  0.0152 -1.0920 -0.1943
15524TIP3    H167987   5.846   4.292   0.928 -0.5319  0.5045 -0.8772
15524TIP3    H267988   5.697   4.268   0.941 -0.0576 -2.1106  0.0972
15525TIP3   OH267989   2.952   3.016  15.335 -0.6599 -1.1200 -0.4551
15525TIP3    H167990   2.863   2.996  15.364 -0.9440 -3.6316 -2.7506
15525TIP3    H267991   2.940   3.051  15.246  0.5022  0.7521  0.1163
15526TIP3   OH267992   3.965   5.877  16.631 -0.4130 -0.6035 -0.6515
15526TIP3    H167993   4.010   5.961  16.642 -0.2470 -0.5168 -1.8969
15526TIP3    H267994   4.029   5.812  16.662 -0.7807 -0.2495  0.9193
15527TIP3   OH267995   1.590   4.569   1.776  0.0434  0.2411 -0.1878
15527TIP3    H167996   1.591   4.664   1.768 -0.4129  0.3626  1.1586
15527TIP3    H267997   1.571   4.538   1.687 -2.5334  1.4961 -0.1054
15528TIP3   OH267998   0.517   2.103   0.705  0.3242 -0.4510 -0.6535
15528TIP3    H167999   0.584   2.081   0.640  1.6911 -0.3824  0.7071
15528TIP3    H268000   0.474   2.019   0.724  0.4895 -0.6193 -1.0195
15529TIP3   OH268001   2.091   4.304   0.786  0.5762  0.5602 -0.3752
15529TIP3    H168002   2.156   4.248   0.828 -1.4101 -1.9107 -0.4564
15529TIP3    H268003   2.117   4.306   0.694 -0.1794 -1.5536 -0.6646
15530TIP3   OH268004   4.697   4.008   0.110  0.0776  0.3365  0.6452
15530TIP3    H168005   4.765   4.051   0.057  0.2299 -0.2058  0.4007
15530TIP3    H268006   4.619   4.011   0.054 -0.0535  0.7896  0.8502
15531TIP3   OH268007   3.082   1.819   3.591 -0.1864  0.7619  0.0922
15531TIP3    H168008   3.152   1.803   3.654  0.3153 -1.7123 -1.0337
15531TIP3    H268009   3.115   1.889   3.534  1.3743 -0.4028 -0.4383
15532TIP3   OH268010   2.211   1.190  12.248 -0.7515 -0.3391  0.2395
15532TIP3    H168011   2.273   1.209  12.318 -0.2755 -1.8532  0.2588
15532TIP3    H268012   2.175   1.275  12.223  0.7157  0.4577  0.7954
15533TIP3   OH268013   0.525   5.730  13.748 -0.2209 -0.4650 -0.5503
15533TIP3    H168014   0.478   5.765  13.823  1.8887  1.2685 -0.0008
15533TIP3    H268015   0.467   5.746  13.674 -0.6219  1.3666  0.1502
15534TIP3   OH268016   4.103   5.689  16.780 -0.0294  0.5098 -0.0844
15534TIP3    H168017   4.046   5.661  16.852 -0.8173 -1.5179 -1.4746
15534TIP3    H268018   4.184   5.641  16.794 -0.1087  0.2745 -0.4375
15535TIP3   OH268019   5.605   4.165   6.000  0.3072 -0.4547 -0.0393
15535TIP3    H168020   5.626   4.073   5.984 -1.5816 -1.1195  1.0642
15535TIP3    H268021   5.650   4.186   6.083 -2.6521 -1.6775  1.9654
15536TIP3   OH268022   4.721   4.110  14.161  0.8034 -0.4009  0.1212
15536TIP3    H168023   4.774   4.044  14.204 -0.1425 -1.1392  0.1683
15536TIP3    H268024   4.668   4.061  14.098  0.4649  0.3664 -0.1972
15537TIP3   OH268025   1.384   1.502  12.397 -0.0363 -0.2569 -0.0536
15537TIP3    H168026   1.335   1.534  12.472 -0.0189 -0.9294  0.2432
15537TIP3    H268027   1.414   1.582  12.353 -1.3491  0.1610 -0.2215
15538TIP3   OH268028   0.373   4.100   6.037  0.0868  0.5091  0.6126
15538TIP3    H168029   0.438   4.036   6.066 -1.0878  0.3716  3.1401
15538TIP3    H268030   0.384   4.173   6.098  0.2803  1.9959 -1.1908
15539TIP3   OH268031   5.993   2.534   1.682 -0.2094 -0.8739  0.3576
15539TIP3    H168032   6.018   2.609   1.736  3.5971 -0.5500 -1.6787
15539TIP3    H268033   5.914   2.563   1.637  0.2976  1.3194  0.8203
15540TIP3   OH268034   0.457   6.248  12.304 -0.1083 -0.1025 -0.1403
15540TIP3    H168035   0.463   6.215  12.394 -1.1675  0.2685  0.0783
15540TIP3    H268036   0.402   6.184  12.259  0.6704 -0.4462 -0.6038
15541TIP3   OH268037   4.774   1.426  16.149  0.0657 -0.3596 -0.2189
15541TIP3    H168038   4.682   1.439  16.126  0.3574 -0.1891 -1.3418
15541TIP3    H268039   4.817   1.407  16.066  1.5979  2.8057 -0.2232
15542TIP3   OH268040   2.911   0.969  16.593  0.7053  0.1308  0.1884
15542TIP3    H168041   2.951   0.899  16.646  0.9463  0.1418  0.0220
15542TIP3    H268042   2.966   0.974  16.515  0.8869  0.7306  0.3539
15543TIP3   OH268043   1.587   4.087   1.999 -0.5893  0.0693  0.4254
15543TIP3    H168044   1.559   3.998   2.020 -0.2384  0.0186  0.6807
15543TIP3    H268045   1.591   4.088   1.903 -0.8041 -0.1274  0.4146
15544TIP3   OH268046   1.294   2.414  12.105 -0.5251 -0.2363  0.1339
15544TIP3    H168047   1.339   2.384  12.026 -0.1090 -1.1215  0.7055
15544TIP3    H268048   1.240   2.340  12.132 -0.5478  0.0167  0.7793
15545TIP3   OH268049   0.461   4.378   2.550 -0.2754  0.1692 -0.4160
15545TIP3    H168050   0.524   4.358   2.619  1.3329 -0.1646 -1.9697
15545TIP3    H268051   0.399   4.305   2.551 -0.5939  0.4434  1.0244
15546TIP3   OH268052   1.818   0.557  12.910  0.1516 -0.1539 -0.1717
15546TIP3    H168053   1.847   0.472  12.875 -0.1230 -0.0728 -0.6051
15546TIP3    H268054   1.897   0.612  12.907  0.0645 -0.0614 -0.9481
15547TIP3   OH268055   5.426   0.945   1.663 -0.0567 -0.6712  0.7839
15547TIP3    H168056   5.456   0.858   1.690  0.6116 -0.5968  0.2644
15547TIP3    H268057   5.425   0.942   1.567 -2.7300 -1.0373  0.7654
15548TIP3   OH268058   2.930   3.285  12.635 -0.1868 -0.2998  0.1795
15548TIP3    H168059   2.846   3.314  12.670  0.1840  0.9189  0.0669
15548TIP3    H268060   2.925   3.303  12.541  0.8032  1.2924  0.4090
15549TIP3   OH268061   6.422   0.287   5.749 -0.1734 -0.0724 -0.2692
15549TIP3    H168062   6.486   0.347   5.788  0.8837 -1.2566 -0.1605
15549TIP3    H268063   6.342   0.304   5.798  0.0576  1.4012 -0.3804
15550TIP3   OH268064   2.053   3.422  16.958  0.4424  0.1878  0.0573
15550TIP3    H168065   2.074   3.509  16.926  0.4758 -0.2496 -1.1420
15550TIP3    H268066   2.078   3.423  17.051  1.4108  1.1235 -0.2084
15551TIP3   OH268067   5.549   2.375  11.345  0.7587 -0.0120  0.0900
15551TIP3    H168068   5.595   2.437  11.401 -1.0055 -0.6364  2.2763
15551TIP3    H268069   5.495   2.430  11.288  1.0791  0.5638  0.3346
15552TIP3   OH268070   5.119   0.862  15.482 -0.0404  0.1394  0.0898
15552TIP3    H168071   5.189   0.840  15.544 -0.3293  0.3611  0.4935
15552TIP3    H268072   5.125   0.957  15.472 -0.7303  0.2499  0.6659
15553TIP3   OH268073   2.966   2.839   4.399 -0.7736 -0.1809 -0.4341
15553TIP3    H168074   2.904   2.809   4.332 -4.2560  0.6815  2.2413
15553TIP3    H268075   2.998   2.758   4.439 -2.6378 -0.6033  0.2570
15554TIP3   OH268076   1.849   2.692  15.638  0.4141 -0.1920  0.6377
15554TIP3    H168077   1.845   2.773  15.587  0.2726 -0.3546  0.3874
15554TIP3    H268078   1.912   2.711  15.708 -1.3029  0.8754  1.9302
15555TIP3   OH268079   1.714   4.090  12.796  0.8070  0.1780  0.2517
15555TIP3    H168080   1.673   4.164  12.840 -1.0597  0.6280 -2.1569
15555TIP3    H268081   1.748   4.126  12.714 -0.7001 -1.7060 -1.2573
15556TIP3   OH268082   3.171   4.086  13.769  0.6252 -0.3918  0.4199
15556TIP3    H168083   3.123   4.169  13.761 -0.4299 -0.9891  0.3713
15556TIP3    H268084   3.182   4.056  13.679  1.9328  0.1998  0.3723
15557TIP3   OH268085   1.248   2.838  12.696 -0.1609 -0.0254 -0.5222
15557TIP3    H168086   1.187   2.885  12.753 -0.2235 -0.3293 -0.3402
15557TIP3    H268087   1.289   2.773  12.753  0.6292  0.4423 -0.5463
15558TIP3   OH268088   6.542   5.082  15.545  0.3234 -0.1739 -0.3353
15558TIP3    H168089   6.606   5.149  15.522 -0.3560  0.7935  0.5179
15558TIP3    H268090   6.515   5.045  15.461  0.0024  1.3001 -0.9041
15559TIP3   OH268091   0.480   0.518   5.296 -0.5542 -0.3047  0.1946
15559TIP3    H168092   0.565   0.557   5.316 -1.0518 -0.8043  3.6387
15559TIP3    H268093   0.483   0.501   5.202  2.6131  0.9582  0.0004
15560TIP3   OH268094   6.419   2.497  11.144 -0.0827 -0.2137  0.2322
15560TIP3    H168095   6.460   2.438  11.206 -2.5957 -0.8063  1.3647
15560TIP3    H268096   6.386   2.440  11.074 -1.4050 -0.0307  0.7013
15561TIP3   OH268097   0.768   4.844  12.256  0.3460 -0.5573 -0.0206
15561TIP3    H168098   0.784   4.833  12.163 -0.7000 -0.8407 -0.1642
15561TIP3    H268099   0.818   4.922  12.280  0.0097 -0.0621 -0.9565
15562TIP3   OH268100   3.081   0.402   2.985 -0.3187  0.0597  0.2604
15562TIP3    H168101   3.144   0.472   3.000 -0.2743 -0.0832  0.7639
15562TIP3    H268102   3.001   0.447   2.959 -0.9205  0.4452  2.6927
15563TIP3   OH268103   3.222   5.808   2.422  0.3683  0.4765 -0.0459
15563TIP3    H168104   3.228   5.878   2.488 -1.1919  0.8455 -0.2818
15563TIP3    H268105   3.142   5.760   2.445 -0.2911  0.7127 -1.7620
15564TIP3   OH268106   5.241   6.350   1.626 -0.3058  0.5624 -0.3035
15564TIP3    H168107   5.282   6.436   1.629  1.6405 -0.3338 -0.1728
15564TIP3    H268108   5.198   6.346   1.541 -1.5040  2.1226  0.2076
15565TIP3   OH268109   3.405   6.747  11.360 -0.1154 -0.1628  0.8374
15565TIP3    H168110   3.330   6.732  11.303  0.3588  3.9701 -1.0106
15565TIP3    H268111   3.470   6.682  11.332 -1.9073 -1.8387  0.4858
15566TIP3   OH268112   3.583   1.814  12.763  0.1464  0.0392 -0.3288
15566TIP3    H168113   3.644   1.753  12.721  0.4011  0.3100 -0.3535
15566TIP3    H268114   3.628   1.842  12.843  1.5393  2.8464 -2.0136
15567TIP3   OH268115   6.727   1.903   1.820 -0.2061 -0.0523 -0.6275
15567TIP3    H168116   6.649   1.864   1.861 -1.6322  1.0174 -2.2461
15567TIP3    H268117   6.761   1.835   1.763 -1.4156  0.2798 -1.7777
15568TIP3   OH268118   0.457   0.989  10.945  0.1761 -0.8533 -0.4916
15568TIP3    H168119   0.371   0.955  10.920 -0.7122  2.4161 -2.1635
15568TIP3    H268120   0.518   0.946  10.886 -0.6462 -1.1479 -1.1390
15569TIP3   OH268121   1.363   3.741   0.705 -0.7105  0.1068  0.2017
15569TIP3    H168122   1.450   3.775   0.685 -1.1674  1.1955  0.0725
15569TIP3    H268123   1.353   3.665   0.648  1.3475 -1.8657  2.3374
15570TIP3   OH268124   4.294   1.865   1.288  0.3998 -0.2918  0.0299
15570TIP3    H168125   4.333   1.826   1.366 -1.3184 -3.2348 -0.5043
15570TIP3    H268126   4.274   1.955   1.313 -0.5818 -1.3237  3.1543
15571TIP3   OH268127   0.676   3.126   0.595  0.3417  0.3598  0.1828
15571TIP3    H168128   0.620   3.061   0.552 -1.7060  2.2389 -0.0349
15571TIP3    H268129   0.725   3.075   0.660 -1.9168 -1.2715  0.6813
15572TIP3   OH268130   0.103   4.166  10.975 -0.3297  0.0370 -0.9954
15572TIP3    H168131   0.052   4.247  10.969 -1.3763 -0.6600 -1.6818
15572TIP3    H268132   0.194   4.196  10.982 -0.5315  1.2716 -2.9918
15573TIP3   OH268133   4.169   4.545  11.792  0.0075 -0.5419  0.1338
15573TIP3    H168134   4.238   4.479  11.781 -1.2063 -2.0024  0.9806
15573TIP3    H268135   4.107   4.503  11.852  1.1116  2.8391  3.8842
15574TIP3   OH268136   6.319   4.495   2.553 -0.3113  0.0625 -0.2431
15574TIP3    H168137   6.269   4.575   2.538 -1.3971 -0.7275 -0.8543
15574TIP3    H268138   6.295   4.437   2.481  1.5653 -0.2952 -0.6120
15575TIP3   OH268139   0.200   4.695   3.711 -0.1373  0.6770 -0.2729
15575TIP3    H168140   0.295   4.708   3.721 -0.0469  0.6627 -1.0625
15575TIP3    H268141   0.193   4.606   3.677 -0.3527  1.1922 -1.5855
15576TIP3   OH268142   6.718   6.385   5.169 -0.2274 -0.2076 -0.0368
15576TIP3    H168143   6.735   6.479   5.180  1.2631 -0.3419 -1.0378
15576TIP3    H268144   6.624   6.380   5.149 -0.1380  1.1502 -0.8842
15577TIP3   OH268145   4.221   2.260   2.686  0.2945 -0.3818 -0.3190
15577TIP3    H168146   4.174   2.314   2.749  0.8236  0.7130 -0.8494
15577TIP3    H268147   4.158   2.243   2.616  0.8824  1.7408 -1.4148
15578TIP3   OH268148   6.345   1.164   4.732 -0.1842 -0.0746 -0.4685
15578TIP3    H168149   6.382   1.246   4.700  1.4106 -0.3389  0.6715
15578TIP3    H268150   6.281   1.191   4.797 -0.1714  0.2809 -0.5984
15579TIP3   OH268151   0.294   4.439   0.067  0.3148  0.0738 -0.2363
15579TIP3    H168152   0.341   4.522   0.074  0.2404  0.2077 -1.2270
15579TIP3    H268153   0.274   4.415   0.157  0.1463  1.2365  0.0440
15580TIP3   OH268154   2.626   3.261  10.479  0.0873  0.2119 -0.0528
15580TIP3    H168155   2.611   3.168  10.460  0.9108  0.3521 -1.3888
15580TIP3    H268156   2.539   3.300  10.480 -0.2644 -0.5680  0.5328
15581TIP3   OH268157   4.760   2.634  14.191 -0.0322  0.2660  0.2539
15581TIP3    H168158   4.791   2.650  14.281  1.0525  0.3417 -0.1314
15581TIP3    H268159   4.787   2.544  14.172 -0.2648  0.2486 -0.0050
15582TIP3   OH268160   6.013   2.343  16.576  0.5463 -0.4265 -0.1743
15582TIP3    H168161   5.951   2.311  16.510  1.6049 -0.7136 -1.0479
15582TIP3    H268162   5.993   2.293  16.655 -1.2965  0.5189 -0.0243
15583TIP3   OH268163   4.801   0.839   4.688  0.6208  0.0491 -0.1776
15583TIP3    H168164   4.753   0.862   4.768  0.0306  0.5129 -0.6697
15583TIP3    H268165   4.861   0.769   4.716 -1.7391 -1.9522  0.0061
15584TIP3   OH268166   0.035   0.330  11.444 -0.5108  0.3838  0.0570
15584TIP3    H168167   0.041   0.390  11.519 -0.7428 -0.9410  1.1664
15584TIP3    H268168  -0.037   0.270  11.468 -1.9162  1.1518 -2.1096
15585TIP3   OH268169   5.526   0.020   4.215 -0.1441  0.2114  0.1743
15585TIP3    H168170   5.472   0.076   4.159 -0.2776 -0.1356 -0.0500
15585TIP3    H268171   5.472   0.006   4.293 -0.4311 -0.2216 -0.0946
15586TIP3   OH268172   6.536   1.871   2.447 -0.2378 -0.0611 -0.3309
15586TIP3    H168173   6.556   1.862   2.354 -1.5764 -0.3415 -0.6140
15586TIP3    H268174   6.561   1.788   2.486 -1.5654 -0.7023 -0.8189
15587TIP3   OH268175   4.284   3.555   1.347 -0.2025 -0.3961  0.3027
15587TIP3    H168176   4.232   3.474   1.346 -2.8005  1.2334 -1.5749
15587TIP3    H268177   4.339   3.549   1.268 -2.1228  0.6839 -1.1707
15588TIP3   OH268178   6.130   1.066  16.038  0.2524  0.5086 -0.0466
15588TIP3    H168179   6.094   1.012  16.108 -2.3723  1.5361 -0.5382
15588TIP3    H268180   6.152   1.004  15.969  0.9442 -0.3039  0.8860
15589TIP3   OH268181   5.265   2.717  16.607 -0.4084 -0.4057  0.2764
15589TIP3    H168182   5.227   2.642  16.652 -1.0841 -0.9228 -1.1316
15589TIP3    H268183   5.334   2.747  16.666  0.6104 -2.8104  0.3804
15590TIP3   OH268184   5.580   2.497   2.965  0.2090  0.0899  0.0062
15590TIP3    H168185   5.498   2.452   2.985  1.1250 -1.6034  0.0067
15590TIP3    H268186   5.582   2.570   3.027 -2.6796  1.9034 -1.9228
15591TIP3   OH268187   3.578   5.538  14.044  1.1102  0.4689  0.2135
15591TIP3    H168188   3.617   5.475  14.104  2.5639  0.5863 -0.5725
15591TIP3    H268189   3.503   5.574  14.092  0.5248 -1.5154  0.8362
15592TIP3   OH268190   3.383   4.218   5.890 -0.3276 -0.2431 -0.3833
15592TIP3    H168191   3.367   4.165   5.969  1.1276  0.1981  0.2185
15592TIP3    H268192   3.299   4.261   5.874 -0.3945  0.4071  1.4981
15593TIP3   OH268193   6.549   4.772  11.369  0.1225  0.4183  0.9979
15593TIP3    H168194   6.558   4.864  11.397 -0.1098  0.3562  1.2781
15593TIP3    H268195   6.457   4.751  11.386  0.2616  0.0277  1.2533
15594TIP3   OH268196   2.835   2.507   6.433  0.2276 -0.3287  0.8375
15594TIP3    H168197   2.763   2.477   6.378  0.2770 -1.1659  1.2173
15594TIP3    H268198   2.799   2.582   6.481 -0.2537 -0.4714  0.7021
15595TIP3   OH268199   2.212   0.920  12.173  0.0522 -0.0450 -0.5463
15595TIP3    H168200   2.209   1.013  12.193 -0.8084  0.1513 -1.5697
15595TIP3    H268201   2.216   0.877  12.259 -2.4709  0.8308  0.0330
15596TIP3   OH268202   5.677   4.877  13.271 -0.0209  0.0050 -0.1832
15596TIP3    H168203   5.709   4.794  13.306 -0.2328 -0.2226 -0.5275
15596TIP3    H268204   5.750   4.938  13.282  1.0366 -0.8553 -2.2395
15597TIP3   OH268205   4.920   4.784  11.987  0.3130  0.2222 -0.0095
15597TIP3    H168206   4.910   4.721  12.059 -0.6177 -0.4318 -0.6932
15597TIP3    H268207   5.007   4.765  11.952  0.2732 -0.2977  0.1565
15598TIP3   OH268208   6.756   5.868  11.407 -0.1074  0.1484  0.3523
15598TIP3    H168209   6.707   5.819  11.341  0.7738 -0.8296  0.4107
15598TIP3    H268210   6.743   5.959  11.384  1.4283 -0.2186 -2.0859
15599TIP3   OH268211   4.229   1.662   2.720 -0.2040  0.4027  0.1963
15599TIP3    H168212   4.242   1.613   2.639 -0.6563 -0.9079  0.8990
15599TIP3    H268213   4.206   1.750   2.692 -2.5027 -0.5842 -1.1234
15600TIP3   OH268214   0.258   0.473  13.492  0.2958  0.3660 -0.4563
15600TIP3    H168215   0.198   0.462  13.566 -1.6976  0.5163 -2.0144
15600TIP3    H268216   0.344   0.485  13.533 -0.8905  1.3601  1.8684
15601TIP3   OH268217   0.352   1.981   3.727  0.0731 -0.1416  0.3720
15601TIP3    H168218   0.394   1.940   3.803 -2.1262  0.2346  1.8402
15601TIP3    H268219   0.330   2.069   3.757  0.8553  0.6458 -1.3306
15602TIP3   OH268220   0.355   4.864   6.014 -0.0389 -0.0560  0.4993
15602TIP3    H168221   0.390   4.945   5.979  0.3014  0.1468  1.3084
15602TIP3    H268222   0.262   4.867   5.992  0.0920  0.2486 -0.0339
15603TIP3   OH268223   0.745   4.921   3.593 -0.5099  0.1293 -0.0153
15603TIP3    H168224   0.775   5.003   3.555 -0.3713 -0.1830 -0.5839
15603TIP3    H268225   0.773   4.854   3.530 -1.7869 -0.2261 -0.2171
15604TIP3   OH268226   0.533   3.024  17.074 -0.0166 -0.4089 -0.6599
15604TIP3    H168227   0.518   3.071  17.156  2.6318 -0.6333  0.0192
15604TIP3    H268228   0.610   2.969  17.092 -0.1904 -1.4318 -2.8956
15605TIP3   OH268229   4.813   1.989  13.193 -0.4838  0.4914  0.4079
15605TIP3    H168230   4.812   2.042  13.113  0.5994  2.0755  1.4245
15605TIP3    H268231   4.722   1.986  13.221 -0.6146  1.4219  0.0845
15606TIP3   OH268232   0.861   0.947   0.854 -0.8635  0.2530  0.1950
15606TIP3    H168233   0.816   0.933   0.937 -0.2583  0.1320  0.5128
15606TIP3    H268234   0.943   0.898   0.863 -1.9211 -1.9062 -1.4642
15607TIP3   OH268235   3.945   5.285  14.685  0.7886 -0.3097 -0.1297
15607TIP3    H168236   3.948   5.249  14.597 -0.8036  1.6460 -1.0104
15607TIP3    H268237   4.037   5.289  14.712  1.3153 -0.5170 -1.8560
15608TIP3   OH268238   4.916   2.717   0.955 -0.1500  0.5466 -0.5198
15608TIP3    H168239   4.821   2.711   0.960 -0.1214  1.2900  1.2766
15608TIP3    H268240   4.946   2.626   0.965 -0.6058  0.5364  0.8158
15609TIP3   OH268241   6.308   1.259   6.786  0.4294 -0.2556 -0.3373
15609TIP3    H168242   6.220   1.224   6.803 -0.5545  0.8090 -2.8944
15609TIP3    H268243   6.350   1.193   6.732 -0.2445  0.9666 -2.4051
15610TIP3   OH268244   5.968   5.744  13.375  0.1971  0.1611 -0.5822
15610TIP3    H168245   5.898   5.680  13.360 -0.2985  0.8650 -1.3163
15610TIP3    H268246   5.936   5.825  13.334  0.7725  0.9098  0.4180
15611TIP3   OH268247   4.444   5.667   2.298  0.1624  0.0991 -0.1896
15611TIP3    H168248   4.432   5.760   2.319  0.9591  0.1893 -0.1268
15611TIP3    H268249   4.497   5.633   2.371 -0.0120 -0.3763 -0.2819
15612TIP3   OH268250   6.357   4.715  12.041  0.1037  0.8442 -0.0716
15612TIP3    H168251   6.442   4.712  12.085  0.1765 -1.2865 -0.3267
15612TIP3    H268252   6.297   4.671  12.101 -0.2689 -0.0160 -1.0559
15613TIP3   OH268253   4.394   5.707  15.206 -0.0250  0.4393  0.0381
15613TIP3    H168254   4.407   5.621  15.165  1.5741  1.1831 -1.0937
15613TIP3    H268255   4.472   5.756  15.182  0.3068  1.3587  2.9236
15614TIP3   OH268256   3.099   1.271  13.192 -0.1960  0.3179 -0.0656
15614TIP3    H168257   3.118   1.204  13.257 -2.2762 -0.6217 -0.3898
15614TIP3    H268258   3.029   1.324  13.232  0.9538  1.8849 -0.0918
15615TIP3   OH268259   3.240   4.351  16.212  0.4666 -0.3271  0.3777
15615TIP3    H168260   3.153   4.319  16.186  0.3124  0.1343  0.3160
15615TIP3    H268261   3.222   4.422  16.274  0.7886  0.0349  0.0647
15616TIP3   OH268262   5.424   5.315  14.490 -0.0364  0.1975 -0.3530
15616TIP3    H168263   5.484   5.386  14.468 -1.3865  1.1482 -1.0867
15616TIP3    H268264   5.349   5.329  14.432 -0.0536 -2.2103 -0.9389
15617TIP3   OH268265   5.920   6.532   3.888  0.4281 -0.3272  0.7954
15617TIP3    H168266   5.948   6.496   3.972  0.1014 -0.3160  0.9094
15617TIP3    H268267   5.844   6.587   3.909  2.5353  2.6051  1.0142
15618TIP3   OH268268   1.574   5.729  13.372 -0.2528  0.0859 -0.2785
15618TIP3    H168269   1.616   5.727  13.286 -0.3339  0.9420 -0.3416
15618TIP3    H268270   1.590   5.642  13.409  0.3293 -0.0718 -0.8973
15619TIP3   OH268271   1.504   1.047   3.002 -0.7924 -0.0316  0.6744
15619TIP3    H168272   1.570   0.994   3.046  0.3653  1.5628  0.8852
15619TIP3    H268273   1.479   1.113   3.066 -1.9798 -0.1096  0.3010
15620TIP3   OH268274   3.083   6.768  11.984 -0.2511  0.1772 -0.6291
15620TIP3    H168275   3.046   6.855  11.999  2.6668  1.2871  0.4148
15620TIP3    H268276   3.053   6.744  11.896  0.3313  2.9964 -1.6578
15621TIP3   OH268277   4.560   1.466  10.538  0.1505 -0.4119 -0.1671
15621TIP3    H168278   4.492   1.484  10.473  0.3536  0.5650 -0.1150
15621TIP3    H268279   4.519   1.405  10.599 -0.1244 -1.1436 -1.0565
15622TIP3   OH268280   2.922   5.707  11.557 -0.5310 -0.2459 -0.1086
15622TIP3    H168281   2.828   5.716  11.538 -0.8314 -0.2316  1.3188
15622TIP3    H268282   2.951   5.797  11.575 -0.8135 -0.5273  1.9155
15623TIP3   OH268283   4.103   5.742  15.574  0.0083 -0.2675  0.4660
15623TIP3    H168284   4.094   5.837  15.581  0.7518 -0.3834  3.2816
15623TIP3    H268285   4.197   5.728  15.559  0.0742 -0.6039  1.1760
15624TIP3   OH268286   6.699   4.636  15.646  0.8715  0.5571 -0.0252
15624TIP3    H168287   6.633   4.611  15.581  0.5342 -0.7257  0.7904
15624TIP3    H268288   6.781   4.634  15.598  0.2528  2.7870 -1.2095
15625TIP3   OH268289   4.925   1.579  12.753 -0.1725 -0.3731 -0.3516
15625TIP3    H168290   4.872   1.633  12.694 -2.5420 -1.1875  0.9559
15625TIP3    H268291   4.973   1.642  12.806 -0.4668  0.4146 -1.0127
15626TIP3   OH268292   2.127   0.591   2.751  0.3688 -0.6003 -0.3148
15626TIP3    H168293   2.180   0.665   2.722  1.4041 -1.6619 -1.1780
15626TIP3    H268294   2.166   0.564   2.834  0.5294 -0.7167 -0.4279
15627TIP3   OH268295   5.155   4.437   4.232  0.3019 -0.0731  0.5437
15627TIP3    H168296   5.097   4.367   4.262  2.0443 -1.4298  0.8133
15627TIP3    H268297   5.199   4.400   4.155  0.7652  0.9575  0.3110
15628TIP3   OH268298   3.729   3.877  13.555 -0.2430 -0.4140  0.8533
15628TIP3    H168299   3.680   3.815  13.501  0.8863 -0.2316 -0.4214
15628TIP3    H268300   3.792   3.916  13.495 -0.3522  1.3464  1.8440
15629TIP3   OH268301   2.255   0.063  15.843  0.2727  0.1180  0.4567
15629TIP3    H168302   2.217   0.137  15.794  0.4821 -0.0092  0.1016
15629TIP3    H268303   2.276   0.100  15.929  2.4556  1.0709 -0.4439
15630TIP3   OH268304   1.268   0.237   4.828 -0.1497  0.2323 -0.1129
15630TIP3    H168305   1.315   0.186   4.762  0.0936  0.5586 -0.1940
15630TIP3    H268306   1.213   0.297   4.778  1.6463  1.9749 -0.0526
15631TIP3   OH268307   0.618   4.842  16.368 -0.6395 -0.4120 -0.0587
15631TIP3    H168308   0.525   4.851  16.386 -0.9554 -3.4371  0.1792
15631TIP3    H268309   0.655   4.810  16.450  1.1390  3.3934  0.7230
15632TIP3   OH268310   1.144   5.314   2.870  0.1635 -0.2802 -0.2546
15632TIP3    H168311   1.066   5.306   2.815  0.6628 -0.3607 -0.9609
15632TIP3    H268312   1.187   5.229   2.863  0.6798 -0.0066 -0.4233
15633TIP3   OH268313   1.322   4.362   5.305 -0.2735  0.4143  0.0741
15633TIP3    H168314   1.297   4.381   5.215 -0.0656 -0.5847 -0.1919
15633TIP3    H268315   1.409   4.402   5.315 -0.9707  1.9082  0.3176
15634TIP3   OH268316   5.779   3.820   4.252  0.3782  0.5979 -0.0794
15634TIP3    H168317   5.794   3.765   4.175  0.2637  0.3343  0.0844
15634TIP3    H268318   5.750   3.758   4.320 -0.5660  0.9800 -0.1351
15635TIP3   OH268319   6.264   6.413  12.680 -0.2013  0.1300  0.2474
15635TIP3    H168320   6.310   6.365  12.749  0.5978  1.2469  0.4910
15635TIP3    H268321   6.328   6.475  12.646 -1.4006  1.4360  0.3163
15636TIP3   OH268322   3.966   0.318   0.270 -0.2769 -0.2657 -0.3475
15636TIP3    H168323   3.910   0.329   0.193 -1.1201 -2.2536 -0.0614
15636TIP3    H268324   3.905   0.295   0.340  0.8079 -1.5400  0.1852
15637TIP3   OH268325   1.708   2.755   3.220  0.3429  0.0107  0.0089
15637TIP3    H168326   1.704   2.849   3.204  0.7512  0.0602  0.2044
15637TIP3    H268327   1.800   2.738   3.243  0.4425 -0.5512 -0.7780
15638TIP3   OH268328   1.418   1.714   0.348 -0.5410 -0.1626 -0.3146
15638TIP3    H168329   1.370   1.676   0.274  0.2676 -0.9856 -0.4191
15638TIP3    H268330   1.373   1.797   0.365 -3.4253 -1.9123  1.0215
15639TIP3   OH268331   0.768   4.748  15.000 -0.1382 -0.1860 -0.1508
15639TIP3    H168332   0.752   4.777  15.090  0.7899  0.4275 -0.1742
15639TIP3    H268333   0.784   4.829  14.952 -1.9229 -0.4005 -1.1468
15640TIP3   OH268334   2.468   4.679  12.693 -0.0374  0.0082  0.3526
15640TIP3    H168335   2.462   4.589  12.661  0.4475 -0.7521  2.3597
15640TIP3    H268336   2.386   4.694  12.740 -0.9361  1.2708 -1.5375
15641TIP3   OH268337   5.535   5.766  10.906 -0.3103 -0.4079  0.3760
15641TIP3    H168338   5.496   5.818  10.976  1.4050  1.5248 -0.0710
15641TIP3    H268339   5.603   5.715  10.949 -0.3172 -0.4137  0.3805
15642TIP3   OH268340   2.490   0.281  11.551 -0.5205  0.1798  0.0439
15642TIP3    H168341   2.460   0.221  11.483 -0.0801 -1.8901  1.5931
15642TIP3    H268342   2.412   0.296  11.605 -0.6301  1.0239 -0.3431
15643TIP3   OH268343   4.289   3.420  11.544 -0.7425 -0.2303  0.3155
15643TIP3    H168344   4.378   3.404  11.513 -1.6211 -1.6509 -1.5257
15643TIP3    H268345   4.277   3.514  11.536  0.3008 -0.1432 -0.2098
15644TIP3   OH268346   1.819   1.055   0.560 -0.5672  0.5824 -0.2001
15644TIP3    H168347   1.750   1.024   0.619 -0.5672  1.0871  0.0711
15644TIP3    H268348   1.776   1.119   0.504  0.3460  3.3327  2.0882
15645TIP3   OH268349   6.505   6.452  14.176 -0.0236 -0.3608 -0.0249
15645TIP3    H168350   6.531   6.441  14.267 -1.3864  0.7702  0.5122
15645TIP3    H268351   6.416   6.419  14.172  0.4334 -1.5013 -1.2227
15646TIP3   OH268352   5.744   6.355   2.424  0.1291 -0.2755 -0.3971
15646TIP3    H168353   5.708   6.267   2.425  2.4425 -1.2565 -1.2849
15646TIP3    H268354   5.691   6.403   2.488 -0.3734 -2.6092  0.9770
15647TIP3   OH268355   2.111   5.433   5.780 -0.2271  0.2186  0.3128
15647TIP3    H168356   2.075   5.496   5.717 -0.4746 -1.4458 -1.2619
15647TIP3    H268357   2.206   5.439   5.768 -0.2438  0.4068  0.2719
15648TIP3   OH268358   5.262   3.992  14.259 -0.0174  0.4053 -0.3171
15648TIP3    H168359   5.214   4.050  14.200 -0.9709 -0.7207 -0.6688
15648TIP3    H268360   5.217   3.907  14.251  0.5828 -0.0592  1.1175
15649TIP3   OH268361   5.498   5.968   1.161  0.3838 -0.1681  0.1626
15649TIP3    H168362   5.519   5.931   1.075 -1.0719  1.7690 -1.1002
15649TIP3    H268363   5.430   5.910   1.196  0.7039 -0.7453 -0.1590
15650TIP3   OH268364   5.759   1.732  10.688  0.1023  0.6490 -0.6282
15650TIP3    H168365   5.770   1.752  10.781 -0.5800 -2.5887  0.2328
15650TIP3    H268366   5.847   1.716  10.656  0.2127  0.2693 -0.1431
15651TIP3   OH268367   0.185   6.348   0.430  0.0215 -0.1109  0.0098
15651TIP3    H168368   0.193   6.313   0.341  0.2216 -0.4374  0.1550
15651TIP3    H268369   0.275   6.369   0.455  0.1677 -1.6332  0.7885
15652TIP3   OH268370   5.559   4.423   2.756 -0.1048 -0.1536  0.0951
15652TIP3    H168371   5.591   4.476   2.829 -0.7937 -1.0474  1.0694
15652TIP3    H268372   5.621   4.350   2.750 -1.4002 -1.3824  1.3754
15653TIP3   OH268373   3.141   2.815   0.490  0.1666  0.0586 -0.1558
15653TIP3    H168374   3.156   2.800   0.583 -0.0180 -0.4433 -0.2022
15653TIP3    H268375   3.046   2.814   0.481  0.1553  0.9334 -0.2224
15654TIP3   OH268376   2.293   1.643  14.289 -0.0151 -0.3381  0.1261
15654TIP3    H168377   2.355   1.686  14.230  0.6665  0.1620  1.2011
15654TIP3    H268378   2.339   1.564  14.319 -0.5995 -0.9160 -0.4979
15655TIP3   OH268379   3.914   1.093  14.601 -0.3199 -0.1772  0.4543
15655TIP3    H168380   3.958   1.008  14.594 -0.2851 -0.0934 -0.3170
15655TIP3    H268381   3.949   1.131  14.682 -0.3945 -0.9299  0.8423
15656TIP3   OH268382   3.880   3.004  14.616 -0.7926  0.4485 -0.0129
15656TIP3    H168383   3.865   2.915  14.646  1.2014 -0.2771 -1.0448
15656TIP3    H268384   3.974   3.008  14.599 -0.8479  2.7405 -0.0426
15657TIP3   OH268385   0.899   5.788   3.277 -0.5279  0.1062  0.3889
15657TIP3    H168386   0.895   5.694   3.295  0.0994  0.1452  0.7381
15657TIP3    H268387   0.984   5.816   3.311  0.4751  0.2963 -2.1606
15658TIP3   OH268388   1.344   0.641   0.231  0.0457  0.8962 -0.1190
15658TIP3    H168389   1.275   0.688   0.184 -1.5378  0.4779  1.7125
15658TIP3    H268390   1.337   0.551   0.201  0.2124  0.9844 -0.4177
15659TIP3   OH268391   3.247   2.952  14.736 -0.7919  0.4396  0.0773
15659TIP3    H168392   3.221   3.041  14.715  1.2050  1.2994  1.0800
15659TIP3    H268393   3.307   2.927  14.666  0.5150  0.7871  1.0510
15660TIP3   OH268394   3.383   0.124  14.087  0.0949  0.1376 -0.5379
15660TIP3    H168395   3.314   0.181  14.054  0.5082  0.3940 -0.9616
15660TIP3    H268396   3.400   0.062  14.017  0.8118  0.5389 -0.7315
15661TIP3   OH268397   5.591   1.971  12.280  0.0370 -0.4118  0.3080
15661TIP3    H168398   5.581   1.925  12.363 -0.5018  0.7081  0.8782
15661TIP3    H268399   5.675   1.943  12.246 -0.0014 -1.3155  0.9600
15662TIP3   OH268400   5.965   2.532  10.970  0.2167 -0.9965  0.7091
15662TIP3    H168401   5.928   2.549  10.883  0.1220  1.0995  1.1434
15662TIP3    H268402   5.895   2.556  11.031  1.0260 -0.4512  1.4268
15663TIP3   OH268403   2.316   3.320   6.057 -0.3711 -0.1087 -0.0943
15663TIP3    H168404   2.334   3.264   5.982 -0.0878  2.0411 -1.6895
15663TIP3    H268405   2.223   3.310   6.074  0.0456 -2.6304  0.9990
15664TIP3   OH268406   2.495   5.578   5.280  0.3119 -0.2676 -0.2508
15664TIP3    H168407   2.455   5.602   5.363  0.4852 -1.6680  0.2485
15664TIP3    H268408   2.540   5.658   5.251  1.0536 -0.0465  1.4677
15665TIP3   OH268409   5.683   2.992  16.202 -0.4012 -0.0247 -0.2007
15665TIP3    H168410   5.765   2.967  16.244 -1.3827  0.1289  1.8725
15665TIP3    H268411   5.672   2.930  16.131  1.2919 -0.3163 -0.2100
15666TIP3   OH268412   3.339   0.582   5.358 -0.2833  0.2557 -0.3522
15666TIP3    H168413   3.401   0.535   5.302  2.3609  1.7816  1.1797
15666TIP3    H268414   3.369   0.673   5.355 -0.4664  0.4876  2.9562
15667TIP3   OH268415   5.502   1.678  13.419  0.1715  0.0918  0.4886
15667TIP3    H168416   5.495   1.607  13.484 -0.1113  0.5169  0.9227
15667TIP3    H268417   5.571   1.735  13.453 -0.0414  0.3642  0.4642
15668TIP3   OH268418   3.004   5.569  13.834  0.2210 -0.7614 -0.5621
15668TIP3    H168419   2.970   5.495  13.784  1.2718 -1.2655 -0.5364
15668TIP3    H268420   3.091   5.584  13.798  0.1238  0.2933 -0.3823
15669TIP3   OH268421   2.615   0.760   2.374 -0.0689 -0.1930  0.3100
15669TIP3    H168422   2.632   0.839   2.323 -1.3484 -0.0780  0.0397
15669TIP3    H268423   2.600   0.691   2.309  1.4056 -0.7584  0.5421
15670TIP3   OH268424   1.240   2.131   2.026 -0.8146  0.3064 -0.2282
15670TIP3    H168425   1.295   2.127   1.948 -1.7807 -0.5473 -0.8795
15670TIP3    H268426   1.257   2.217   2.064  0.7527  0.1508 -0.5790
15671TIP3   OH268427   1.646   5.905   4.326 -0.5567  0.5579 -0.0243
15671TIP3    H168428   1.560   5.886   4.289 -0.5068  0.9850 -0.3641
15671TIP3    H268429   1.669   5.827   4.375 -1.4762  0.7292  0.6937
15672TIP3   OH268430   1.159   5.355  10.599  0.4618 -0.2424  0.5017
15672TIP3    H168431   1.220   5.366  10.527  1.6972  1.0327  1.6946
15672TIP3    H268432   1.112   5.439  10.603 -1.0324 -1.0353 -0.0950
15673TIP3   OH268433   0.670   0.136   2.013 -0.5205  0.0958  0.5586
15673TIP3    H168434   0.757   0.176   2.003  0.6876 -2.3544  0.9290
15673TIP3    H268435   0.643   0.117   1.923 -0.6852  0.8680  0.4408
15674TIP3   OH268436   4.422   0.054   1.107 -0.0657 -0.7223  0.7542
15674TIP3    H168437   4.500   0.068   1.161  1.0739  0.1506 -1.0801
15674TIP3    H268438   4.427  -0.038   1.081  0.4024 -0.6457  0.5717
15675TIP3   OH268439   1.013   1.338  16.295 -0.0078  0.0430 -0.5046
15675TIP3    H168440   1.077   1.375  16.233  0.1982  1.5035  0.5354
15675TIP3    H268441   1.045   1.366  16.381 -1.2226 -0.5159  0.1401
15676TIP3   OH268442   2.290   3.674  15.897 -0.1154 -0.1937 -0.4339
15676TIP3    H168443   2.250   3.715  15.821  3.4151  0.6888 -1.9340
15676TIP3    H268444   2.279   3.580  15.882  1.6459 -0.0792 -2.7424
15677TIP3   OH268445   6.346   3.845  16.905 -0.1337 -0.7203  0.4102
15677TIP3    H168446   6.301   3.917  16.861 -1.0637 -1.3264  0.3749
15677TIP3    H268447   6.387   3.795  16.835 -1.3445 -1.4979  0.2448
15678TIP3   OH268448   6.254   1.873  15.386  0.0827 -0.2784 -0.3899
15678TIP3    H168449   6.265   1.961  15.421  1.4086 -0.4493 -0.3316
15678TIP3    H268450   6.310   1.871  15.308  0.6215 -1.2780  0.0165
15679TIP3   OH268451   4.398   3.641  11.439  0.2028 -0.1954  0.2403
15679TIP3    H168452   4.391   3.736  11.442 -0.5448 -0.2332 -0.0202
15679TIP3    H268453   4.455   3.624  11.364 -1.5289 -0.0004 -1.1737
15680TIP3   OH268454   0.695   2.808   2.448 -0.1964  0.3531  0.2688
15680TIP3    H168455   0.605   2.836   2.463 -0.6165 -1.3102  0.9440
15680TIP3    H268456   0.700   2.720   2.485  1.8204  0.5810  0.6228
15681TIP3   OH268457   5.474   4.580  13.457  0.0133 -0.2916 -0.6589
15681TIP3    H168458   5.462   4.586  13.362 -1.7170  1.6830 -0.3383
15681TIP3    H268459   5.395   4.536  13.488  0.6080 -0.9929 -0.1008
15682TIP3   OH268460   5.331   4.848  16.355  0.1136 -0.0317  0.1886
15682TIP3    H168461   5.396   4.781  16.334  0.4502  0.5974 -0.8243
15682TIP3    H268462   5.287   4.866  16.271  0.5306  1.5459  0.2941
15683TIP3   OH268463   0.357   3.731  12.509  0.1922  0.2673 -0.4921
15683TIP3    H168464   0.400   3.796  12.453  1.8836 -0.2732  0.1366
15683TIP3    H268465   0.415   3.723  12.585 -1.9345  0.8127  1.2416
15684TIP3   OH268466   6.009   4.422  15.671  0.2483 -0.5879 -0.5777
15684TIP3    H168467   6.071   4.459  15.734  0.0700 -3.4932  1.3960
15684TIP3    H268468   6.055   4.425  15.587  2.6236 -1.5569  0.6425
15685TIP3   OH268469   4.013   4.932   5.428  0.9114 -0.2439 -0.6352
15685TIP3    H168470   4.005   4.865   5.360 -0.4184 -0.2438 -0.4872
15685TIP3    H268471   3.966   5.007   5.393 -0.6944 -0.5953  0.7266
15686TIP3   OH268472   5.571   3.000   0.183  0.7182  0.1633  0.0464
15686TIP3    H168473   5.620   2.958   0.253  1.8653 -1.0232 -1.4172
15686TIP3    H268474   5.511   3.060   0.227  0.1616 -1.8539  2.1347
15687TIP3   OH268475   3.207   5.602  13.648 -0.7549  0.2286 -0.7260
15687TIP3    H168476   3.171   5.552  13.574  0.2936 -1.2827 -0.2225
15687TIP3    H268477   3.281   5.650  13.610 -1.8633  1.5585 -1.2463
15688TIP3   OH268478   4.423   5.558   4.843  0.5806 -0.2896 -0.3829
15688TIP3    H168479   4.496   5.561   4.905  0.6796 -0.6039 -0.4848
15688TIP3    H268480   4.432   5.638   4.792  1.0759 -0.5145 -0.6462
15689TIP3   OH268481   6.203   0.791   4.307 -0.6032  0.3781 -0.0232
15689TIP3    H168482   6.231   0.764   4.220  0.2827  0.9534  0.0712
15689TIP3    H268483   6.115   0.827   4.295 -0.6575  0.0515 -0.6035
15690TIP3   OH268484   6.759   2.896   0.572 -0.4547  0.6760 -0.2018
15690TIP3    H168485   6.835   2.856   0.613 -0.1159  0.3953 -1.1083
15690TIP3    H268486   6.753   2.855   0.486 -1.9188  0.3402  0.0494
15691TIP3   OH268487   3.943   4.249   5.111  0.6531  0.2514  0.2465
15691TIP3    H168488   3.967   4.163   5.078  1.0472 -0.2387  1.7405
15691TIP3    H268489   3.934   4.304   5.033  0.1925 -1.1886 -0.7333
15692TIP3   OH268490   3.113   5.664   3.219  0.6634 -0.8295 -0.2056
15692TIP3    H168491   3.034   5.618   3.249 -0.8341  1.5967 -0.2562
15692TIP3    H268492   3.105   5.667   3.124  0.5189 -0.0756 -0.1723
15693TIP3   OH268493   4.315   1.060  14.744 -0.7842 -0.2194  0.6196
15693TIP3    H168494   4.404   1.083  14.771 -1.5818  0.5913  2.7109
15693TIP3    H268495   4.259   1.097  14.813 -2.6991 -1.2417 -0.3434
15694TIP3   OH268496   2.223   0.300  17.072  0.3742  0.0286 -0.0154
15694TIP3    H168497   2.183   0.386  17.061 -0.9124 -0.4020  1.1153
15694TIP3    H268498   2.168   0.241  17.021 -0.9238 -0.6846  2.1373
15695TIP3   OH268499   0.500   0.150  13.603 -0.4678 -0.0192 -0.1763
15695TIP3    H168500   0.407   0.131  13.613 -0.6345  0.7248 -0.3151
15695TIP3    H268501   0.531   0.164  13.692 -0.7371  0.8878 -0.2211
15696TIP3   OH268502   0.914   5.974   5.038  0.0804 -0.4183 -0.5694
15696TIP3    H168503   0.990   6.023   5.070  1.4723 -0.9491 -2.9191
15696TIP3    H268504   0.840   6.011   5.084  1.7800 -0.0029  1.9536
15697TIP3   OH268505   1.029   6.421  11.602  0.5402 -0.1869  0.5483
15697TIP3    H168506   1.084   6.343  11.589 -0.4016 -0.9160  0.8558
15697TIP3    H268507   0.998   6.414  11.693 -1.3477 -0.6441 -0.0965
15698TIP3   OH268508   4.486   2.208  13.747 -0.1484  0.3494  0.5473
15698TIP3    H168509   4.521   2.184  13.662  0.2825  0.8803  0.5716
15698TIP3    H268510   4.409   2.152  13.758  0.6726 -0.7998  0.4853
15699TIP3   OH268511   2.164   4.443   2.193 -0.7300 -0.1360 -0.4048
15699TIP3    H168512   2.145   4.535   2.209  1.0814  0.4118 -1.3106
15699TIP3    H268513   2.128   4.425   2.106  0.1508  0.0947 -0.8218
15700TIP3   OH268514   3.585   4.075  13.670  0.3732 -0.4620 -0.1155
15700TIP3    H168515   3.626   3.992  13.646  1.4890 -0.3927  1.4986
15700TIP3    H268516   3.549   4.108  13.588 -0.4218 -2.7189 -0.7002
15701TIP3   OH268517   0.430   5.178  16.607 -0.2906  0.3961  0.2395
15701TIP3    H168518   0.340   5.165  16.638 -0.7705  0.6980 -1.0186
15701TIP3    H268519   0.457   5.261  16.647 -0.1724 -0.2388  1.5057
15702TIP3   OH268520   3.709   4.695  12.975 -0.3203 -0.3814  0.5458
15702TIP3    H168521   3.649   4.740  13.035 -1.0659  2.3752 -2.1244
15702TIP3    H268522   3.660   4.618  12.946 -0.4197 -1.0776  2.4559
15703TIP3   OH268523   1.972   2.271  14.253 -0.1456  0.6023 -0.3640
15703TIP3    H168524   1.963   2.192  14.200 -1.8346  1.2502 -1.0542
15703TIP3    H268525   1.988   2.239  14.342  1.5688 -0.4891 -1.0361
15704TIP3   OH268526   1.651   3.682  10.278 -0.5088  0.2188 -0.1816
15704TIP3    H168527   1.653   3.674  10.373 -2.1924  0.1013 -0.1457
15704TIP3    H268528   1.564   3.718  10.258 -0.0989  0.4363 -1.6493
15705TIP3   OH268529   4.469   3.499   1.118  0.2947 -0.2694  0.2124
15705TIP3    H168530   4.556   3.517   1.083 -0.2686 -0.0583 -1.1086
15705TIP3    H268531   4.462   3.403   1.115 -0.0241 -0.2136 -0.9398
15706TIP3   OH268532   6.683   1.165   5.853  0.1273  0.8496 -0.1182
15706TIP3    H168533   6.713   1.074   5.858 -0.4816  0.4439 -3.0470
15706TIP3    H268534   6.750   1.209   5.801 -0.6667  1.6017 -0.4927
15707TIP3   OH268535   2.332   4.594  11.649  0.3020 -0.5708 -0.4253
15707TIP3    H168536   2.336   4.612  11.555 -3.5709 -0.3363 -0.5951
15707TIP3    H268537   2.316   4.500  11.654 -2.1478 -0.1611 -0.1063
15708TIP3   OH268538   4.333   2.442  16.365  0.0259 -0.0330 -0.1451
15708TIP3    H168539   4.343   2.535  16.386 -4.2936  1.3624 -3.5736
15708TIP3    H268540   4.396   2.427  16.295 -0.4485  0.7939 -0.7662
15709TIP3   OH268541   0.272   3.896  14.693 -0.2775  0.4571  0.0479
15709TIP3    H168542   0.273   3.987  14.663  0.1541  0.8557  1.2795
15709TIP3    H268543   0.201   3.856  14.642  0.6735  1.0324 -1.7753
15710TIP3   OH268544   2.770   4.074  16.229  0.1628  0.0709 -0.1392
15710TIP3    H168545   2.781   4.077  16.324 -0.1805 -2.1593 -0.0110
15710TIP3    H268546   2.738   4.161  16.206  0.6925  0.7870  1.7189
15711TIP3   OH268547   5.124   1.768   4.593 -0.4275 -0.0155  0.5152
15711TIP3    H168548   5.141   1.826   4.519  0.5063  0.8118  1.3531
15711TIP3    H268549   5.028   1.761   4.597 -0.4944  0.3367 -0.4531
15712TIP3   OH268550   4.750   1.855  12.688 -0.6174 -0.1609 -0.9930
15712TIP3    H168551   4.796   1.803  12.622  0.9297 -1.7180  1.2171
15712TIP3    H268552   4.727   1.936  12.643  0.2000 -1.2433 -3.4853
15713TIP3   OH268553   4.829   1.952   1.159 -0.8129 -0.1339  0.2506
15713TIP3    H168554   4.914   1.958   1.116  0.3829 -0.3794  2.5144
15713TIP3    H268555   4.814   1.858   1.171 -0.5667 -0.0323  1.4388
15714TIP3   OH268556   5.002   3.113  16.186 -0.0236  0.0557 -0.3574
15714TIP3    H168557   5.077   3.120  16.244 -0.8100  2.4772  0.4313
15714TIP3    H268558   4.927   3.140  16.239 -1.2024 -0.5069 -1.6616
15715TIP3   OH268559   1.206   4.707  13.420  0.0848 -0.2424 -0.1638
15715TIP3    H168560   1.111   4.694  13.412  0.0189  0.1555 -0.0487
15715TIP3    H268561   1.221   4.795  13.387  0.3215 -0.0410  0.4784
15716TIP3   OH268562   0.009   2.645   3.040 -0.9999  0.4512 -0.0841
15716TIP3    H168563  -0.039   2.568   3.010  0.9825 -0.3709 -1.2497
15716TIP3    H268564   0.099   2.614   3.052 -0.1409  2.6093 -0.6956
15717TIP3   OH268565   6.294   2.800   2.577 -0.1171  0.3255  0.0676
15717TIP3    H168566   6.371   2.819   2.631 -1.7547 -2.1893  3.5059
15717TIP3    H268567   6.328   2.747   2.505  1.2954 -1.4702  2.0013
15718TIP3   OH268568   0.502   0.264   3.116  0.2690 -0.4743  0.5546
15718TIP3    H168569   0.535   0.205   3.049 -0.1084  0.3462 -0.3647
15718TIP3    H268570   0.577   0.321   3.137  0.0141  0.1379 -0.1498
15719TIP3   OH268571   0.806   4.548   2.652  0.3078  0.3718 -0.3253
15719TIP3    H168572   0.745   4.622   2.642  0.0699  0.2410  0.1082
15719TIP3    H268573   0.749   4.472   2.662  0.5441  0.2479  0.0801
15720TIP3   OH268574   3.609   5.897  12.404 -0.0201 -0.1212  0.0278
15720TIP3    H168575   3.518   5.875  12.383  0.3182 -1.0773 -0.4465
15720TIP3    H268576   3.638   5.827  12.462  0.0917  0.7475  1.0252
15721TIP3   OH268577   0.705   3.504  16.079  0.0788  0.1178  0.0541
15721TIP3    H168578   0.762   3.516  16.155 -0.6253 -0.1276  0.6234
15721TIP3    H268579   0.655   3.585  16.072  2.8176  1.6843 -2.4331
15722TIP3   OH268580   1.144   4.532   5.846  0.1434  0.2775  0.4213
15722TIP3    H168581   1.200   4.482   5.905  0.3110 -1.4351 -1.1592
15722TIP3    H268582   1.164   4.498   5.758 -1.8443  1.1024 -0.3871
15723TIP3   OH268583   6.286   3.610  13.570 -0.1762 -0.6883 -0.1660
15723TIP3    H168584   6.244   3.682  13.619  0.4896 -0.5168  0.1676
15723TIP3    H268585   6.237   3.605  13.488  1.4616  2.0042 -1.4136
15724TIP3   OH268586   6.122   1.029   3.141 -0.1767 -0.6388  0.6089
15724TIP3    H168587   6.038   0.985   3.155 -0.1026 -0.6421  1.0498
15724TIP3    H268588   6.149   1.057   3.229  0.6453 -1.3019  0.5637
15725TIP3   OH268589   5.776   4.107  12.175  0.1006 -0.3421  0.0904
15725TIP3    H168590   5.765   4.061  12.092 -1.8775 -0.1627  0.2245
15725TIP3    H268591   5.859   4.075  12.209  0.9989 -0.3281 -1.9975
15726TIP3   OH268592   6.182   0.680   3.258 -0.2619 -0.2226 -0.1510
15726TIP3    H168593   6.094   0.693   3.294  0.8855  1.7144  2.0608
15726TIP3    H268594   6.232   0.642   3.330  0.9811 -0.4586 -1.1084
15727TIP3   OH268595   6.418   5.006  16.118 -0.1919  0.3069 -0.3925
15727TIP3    H168596   6.499   5.005  16.170  0.0156  0.1860 -0.7152
15727TIP3    H268597   6.357   4.952  16.168 -0.0806  0.4190 -0.1324
15728TIP3   OH268598   5.104   4.706   0.514 -0.2431  0.1267 -0.5670
15728TIP3    H168599   5.027   4.694   0.569 -0.2143 -1.2105 -0.8192
15728TIP3    H268600   5.072   4.696   0.425  0.3781 -1.3407 -0.6390
15729TIP3   OH268601   1.913   3.048  11.495 -0.3551 -0.3382 -0.1480
15729TIP3    H168602   1.976   2.984  11.461 -1.2573 -1.1719 -0.2633
15729TIP3    H268603   1.880   3.093  11.417 -2.0625 -1.9167 -0.3783
15730TIP3   OH268604   0.452   5.349  10.442  0.4566  0.6460 -0.3073
15730TIP3    H168605   0.411   5.435  10.429  1.0633  0.8702 -0.7159
15730TIP3    H268606   0.542   5.368  10.467  0.6419  0.1262 -0.5612
15731TIP3   OH268607   2.663   4.454   1.857 -0.5490 -0.1187  0.1427
15731TIP3    H168608   2.650   4.502   1.938 -0.6268  1.0188 -0.5313
15731TIP3    H268609   2.692   4.367   1.884 -0.9384  0.1425  1.3902
15732TIP3   OH268610   0.232   2.303   4.786  0.7225 -0.3085 -0.7283
15732TIP3    H168611   0.183   2.349   4.854  0.5714  0.3812 -1.3054
15732TIP3    H268612   0.172   2.298   4.712  1.9562  1.7241 -1.9114
15733TIP3   OH268613   0.885   1.064  15.002  0.2286  0.2497  0.1675
15733TIP3    H168614   0.911   1.109  14.921 -1.6935  1.4071  0.1594
15733TIP3    H268615   0.896   1.130  15.071  0.5506 -0.3072  0.6539
15734TIP3   OH268616   6.030   5.546   5.699 -0.5071 -0.3331  0.3523
15734TIP3    H168617   5.999   5.461   5.728 -0.5383 -0.0745  1.1060
15734TIP3    H268618   6.125   5.535   5.688 -0.5113 -0.4638  0.4552
15735TIP3   OH268619   4.291   5.855  17.019  0.3479 -0.2578  0.0416
15735TIP3    H168620   4.365   5.911  17.045  0.6729 -0.3693 -0.6458
15735TIP3    H268621   4.329   5.768  17.010  0.4227 -0.0475 -1.7193
15736TIP3   OH268622   2.012   1.802  15.319 -0.2958  0.0447  0.0933
15736TIP3    H168623   2.048   1.714  15.322  1.3721  0.6041 -1.9841
15736TIP3    H268624   1.924   1.792  15.282  0.5635 -0.5811 -1.8216
15737TIP3   OH268625   5.303   4.595  16.200  0.1883 -0.2177 -0.7650
15737TIP3    H168626   5.276   4.550  16.120  1.1572 -1.7151 -0.2868
15737TIP3    H268627   5.236   4.573  16.265  0.3509 -0.5016 -0.6913
15738TIP3   OH268628   6.386   2.048   1.986 -0.1507  0.5839 -0.5798
15738TIP3    H168629   6.410   1.973   1.933 -0.2048  1.6305 -2.0929
15738TIP3    H268630   6.291   2.040   1.997  0.1861 -0.9685  1.4489
15739TIP3   OH268631   5.328   6.100   1.779 -0.4053  0.0456 -0.2022
15739TIP3    H168632   5.342   6.171   1.717  1.0087 -0.1408 -0.1174
15739TIP3    H268633   5.342   6.020   1.727  3.1704 -0.0907  0.8500
15740TIP3   OH268634   6.096   0.630   1.643  0.0177  0.3418 -0.0423
15740TIP3    H168635   6.143   0.576   1.579  1.2532 -1.0690  1.9812
15740TIP3    H268636   6.011   0.587   1.653 -0.2608  0.6902 -0.8727
15741TIP3   OH268637   4.233   6.305  11.235 -0.5270 -0.1685  0.1865
15741TIP3    H168638   4.185   6.387  11.242  0.7948  0.4857  2.0807
15741TIP3    H268639   4.170   6.237  11.259 -1.1805  0.4451  0.2059
15742TIP3   OH268640   4.163   3.689   0.822  0.4245  0.3560 -0.0738
15742TIP3    H168641   4.074   3.655   0.830  0.6204  0.0941  1.1129
15742TIP3    H268642   4.178   3.738   0.903  1.7495 -0.5328  0.2401
15743TIP3   OH268643   6.591   3.986  15.089  0.2444 -0.7098 -0.1205
15743TIP3    H168644   6.608   3.899  15.054 -1.5030 -1.0340 -0.1978
15743TIP3    H268645   6.677   4.029  15.091  1.0277 -2.2511 -0.5509
15744TIP3   OH268646   3.764   4.480   2.408  0.1503  0.1943  0.0136
15744TIP3    H168647   3.699   4.426   2.364  1.2060 -1.0494 -0.0551
15744TIP3    H268648   3.720   4.512   2.486  0.0669 -2.2894  1.0279
15745TIP3   OH268649   0.521   3.643   2.546  0.1106 -0.2141 -0.1760
15745TIP3    H168650   0.546   3.551   2.553  1.8165  0.2919  0.6882
15745TIP3    H268651   0.534   3.665   2.454  1.3245 -0.4003 -0.0568
15746TIP3   OH268652   2.183   4.738   1.990 -0.7861  0.2585  0.2815
15746TIP3    H168653   2.115   4.713   2.051 -1.8821 -1.0905 -1.4404
15746TIP3    H268654   2.139   4.794   1.926  0.3930  1.8612  0.8251
15747TIP3   OH268655   2.286   5.621  15.086 -0.1809  0.2938 -0.1408
15747TIP3    H168656   2.263   5.528  15.094 -0.6279  0.3627 -0.5917
15747TIP3    H268657   2.359   5.633  15.147  0.0930 -0.4274 -0.3300
15748TIP3   OH268658   1.011   0.548   3.659 -0.5963 -0.3166 -0.4628
15748TIP3    H168659   1.100   0.563   3.691 -0.4436 -1.2439 -0.4397
15748TIP3    H268660   0.961   0.527   3.738 -0.5860 -0.9379 -0.6239
15749TIP3   OH268661   3.917   2.332  16.499 -0.0298 -0.8469 -0.7756
15749TIP3    H168662   3.892   2.372  16.583 -0.3090 -0.8631 -0.8502
15749TIP3    H268663   3.938   2.407  16.443  2.7260 -0.9037  0.0848
15750TIP3   OH268664   5.019   1.427  14.586  0.4963 -0.2545  0.2742
15750TIP3    H168665   5.063   1.499  14.631 -0.9970 -0.1890  1.6529
15750TIP3    H268666   5.058   1.427  14.498  2.1026  0.7989  0.9692
15751TIP3   OH268667   0.069   4.613  16.971  0.5083  0.5045 -0.2501
15751TIP3    H168668   0.157   4.603  16.935  0.3990 -0.4629 -0.2654
15751TIP3    H268669   0.083   4.637  17.063  0.8191 -1.8911  0.3585
15752TIP3   OH268670   5.576   1.192   4.188 -0.3938  0.0564  0.1666
15752TIP3    H168671   5.543   1.220   4.103 -1.6567 -0.4881  0.4718
15752TIP3    H268672   5.610   1.272   4.228 -3.0473  1.0047  0.6066
15753TIP3   OH268673   3.801   2.901  13.377  0.3819 -0.2759 -0.0356
15753TIP3    H168674   3.886   2.946  13.383 -0.5229  1.3066  1.4140
15753TIP3    H268675   3.819   2.812  13.405  1.0586  0.7625  2.9663
15754TIP3   OH268676   3.877   5.987  14.234  0.1224 -0.2182 -0.4095
15754TIP3    H168677   3.918   6.072  14.221  1.4942 -1.1941 -2.6046
15754TIP3    H268678   3.820   5.975  14.158  0.0665 -1.3492 -0.2045
15755TIP3   OH268679   3.806   6.750   4.824  0.3566 -0.5122  0.6047
15755TIP3    H168680   3.817   6.770   4.731  0.4774 -0.1299  0.6997
15755TIP3    H268681   3.827   6.657   4.831  2.6944 -0.0235  0.6236
15756TIP3   OH268682   1.005   1.755  13.140  0.4591 -0.0556  0.2919
15756TIP3    H168683   1.035   1.673  13.101 -1.6352 -0.4555 -0.5535
15756TIP3    H268684   1.012   1.819  13.069 -0.4014 -0.1031  0.1524
15757TIP3   OH268685   6.084   4.228   5.439  0.2617  0.0002 -0.1801
15757TIP3    H168686   6.015   4.215   5.374  2.0981 -0.0035 -2.1885
15757TIP3    H268687   6.148   4.159   5.420  1.0261  0.2698  1.3606
15758TIP3   OH268688   3.199   0.072   6.152 -0.2469  0.8133 -0.2736
15758TIP3    H168689   3.271   0.015   6.178 -0.0723  1.2914  0.3039
15758TIP3    H268690   3.214   0.153   6.200  0.0614  1.7224 -1.8598
15759TIP3   OH268691   3.910   5.924   5.910  0.0247 -0.3663  0.5999
15759TIP3    H168692   3.860   5.939   5.990 -0.9910 -0.6705  0.0412
15759TIP3    H268693   3.964   5.847   5.929 -0.8641 -0.9710  0.6996
15760TIP3   OH268694   6.503   2.416   6.115  0.7793  0.1889 -0.2571
15760TIP3    H168695   6.503   2.451   6.026 -1.0185 -0.6957 -0.6359
15760TIP3    H268696   6.416   2.376   6.125  1.3019 -0.5556  1.5616
15761TIP3   OH268697   6.429   4.741   4.156  0.4251  0.4448 -0.0349
15761TIP3    H168698   6.437   4.680   4.083  0.3650 -0.8212  0.9969
15761TIP3    H268699   6.391   4.820   4.117 -0.5693 -0.5626 -1.1727
15762TIP3   OH268700   0.741   3.420  10.963  0.8539 -0.1681 -0.2707
15762TIP3    H168701   0.818   3.410  11.019  0.8838 -1.2320 -0.4814
15762TIP3    H268702   0.682   3.477  11.013  1.2267 -0.4281  0.4774
15763TIP3   OH268703   1.891   2.167   2.000  0.0948 -0.0489 -0.6676
15763TIP3    H168704   1.880   2.157   1.905  0.4929 -1.3612 -0.5872
15763TIP3    H268705   1.974   2.124   2.019  0.5694  1.2111  0.1243
15764TIP3   OH268706   5.906   6.640   3.169  0.0381 -0.8376  0.2321
15764TIP3    H168707   5.895   6.546   3.155 -0.7415 -0.9138  1.2992
15764TIP3    H268708   5.995   6.658   3.140 -0.2219 -1.6703 -1.1711
15765TIP3   OH268709   6.057   3.343   3.469  0.1257 -0.0979 -0.1286
15765TIP3    H168710   6.032   3.309   3.383  0.2045 -0.2798 -0.0789
15765TIP3    H268711   6.133   3.397   3.451  1.5451 -1.9650  0.1455
15766TIP3   OH268712   4.912   3.172  13.859  0.0509 -0.4981  0.1300
15766TIP3    H168713   4.857   3.155  13.783 -0.0861  1.7030 -0.3079
15766TIP3    H268714   4.997   3.134  13.837  0.0952  0.3822 -1.2615
15767TIP3   OH268715   1.692   3.718  10.537 -0.4989 -0.1399  0.3982
15767TIP3    H168716   1.641   3.722  10.618 -0.9440 -0.8433  0.1605
15767TIP3    H268717   1.761   3.655  10.556 -0.6422 -0.3543  0.2114
15768TIP3   OH268718   2.293   6.316   5.710  0.5503  0.2968 -0.0053
15768TIP3    H168719   2.334   6.393   5.672  1.7550 -0.1832  0.2947
15768TIP3    H268720   2.340   6.302   5.793 -0.1032 -0.3577  0.2641
15769TIP3   OH268721   0.073   5.457  11.283  0.3202 -0.4282  0.0203
15769TIP3    H168722   0.004   5.524  11.281 -0.0334 -0.7339  1.6309
15769TIP3    H268723   0.032   5.379  11.246  0.0828 -0.3524  0.1237
15770TIP3   OH268724   4.591   1.414   3.177  0.0155  0.1799 -0.0682
15770TIP3    H168725   4.616   1.450   3.262 -0.2210  1.0485 -0.3578
15770TIP3    H268726   4.522   1.350   3.196 -1.2218  1.5796  0.2432
15771TIP3   OH268727   1.142   4.524  15.636 -0.7158  1.0431 -0.1229
15771TIP3    H168728   1.155   4.618  15.623  0.1962  1.1345  1.3581
15771TIP3    H268729   1.149   4.511  15.731  0.1805 -0.6599 -0.3909
15772TIP3   OH268730   6.737   6.531   3.233  0.1955  0.2479 -0.1595
15772TIP3    H168731   6.781   6.478   3.299  2.6311  0.4265 -1.5689
15772TIP3    H268732   6.735   6.475   3.155 -0.7279  0.8266 -0.5682
15773TIP3   OH268733   0.002   5.616   2.796 -0.2292  0.3799 -0.1659
15773TIP3    H168734  -0.031   5.568   2.720 -0.6982 -0.6133  0.6347
15773TIP3    H268735   0.027   5.702   2.763 -0.5045 -0.0214 -1.4179
15774TIP3   OH268736   5.811   4.232   4.235 -0.5482  0.2180 -0.2934
15774TIP3    H168737   5.858   4.218   4.318  0.3578 -0.2111 -0.8762
15774TIP3    H268738   5.736   4.173   4.240 -0.8172  0.6029  0.4603
15775TIP3   OH268739   4.023   2.629   3.162 -0.2206  0.3671 -0.1923
15775TIP3    H168740   3.955   2.695   3.173  0.8548  1.3545  0.5263
15775TIP3    H268741   4.036   2.625   3.067  0.3691  1.8686 -0.1875
15776TIP3   OH268742   0.463   3.633  11.731  0.1443 -0.1429 -0.1254
15776TIP3    H168743   0.489   3.722  11.753 -0.1511 -0.1957  0.4520
15776TIP3    H268744   0.543   3.591  11.700  0.5908 -0.0940  0.9482
15777TIP3   OH268745   5.187   2.874   2.101 -0.1550  0.1543 -0.1345
15777TIP3    H168746   5.120   2.876   2.033  0.1595 -0.3605 -0.4640
15777TIP3    H268747   5.224   2.962   2.101  0.0209  0.0901 -0.8187
15778TIP3   OH268748   0.234   6.672   5.494 -0.2997 -0.1799 -0.3006
15778TIP3    H168749   0.203   6.704   5.579  2.6619 -1.3293  1.3002
15778TIP3    H268750   0.300   6.736   5.467  0.3796 -1.0195 -0.6397
15779TIP3   OH268751   2.855   5.154   3.278  0.0535  0.5172 -0.4009
15779TIP3    H168752   2.809   5.083   3.323  1.1096  0.5319  0.7030
15779TIP3    H268753   2.929   5.175   3.334  0.1830  1.9891 -1.0913
15780TIP3   OH268754   4.143   2.385   0.922 -0.9483 -0.2403 -0.0045
15780TIP3    H168755   4.101   2.415   0.841  0.1324  0.1585 -0.4203
15780TIP3    H268756   4.102   2.438   0.990 -1.4260 -0.1527 -0.3496
15781TIP3   OH268757   3.447   6.055  14.088 -0.2827  0.5101  0.8362
15781TIP3    H168758   3.372   6.114  14.087 -0.5005  0.2280 -1.8712
15781TIP3    H268759   3.417   5.978  14.135 -2.1326 -0.1258 -1.3124
15782TIP3   OH268760   4.301   0.438   1.855  0.2737 -0.1731 -0.4113
15782TIP3    H168761   4.378   0.421   1.800 -0.2015  0.6047 -1.3170
15782TIP3    H268762   4.304   0.369   1.921  1.1214 -0.8302 -1.1223
15783TIP3   OH268763   0.802   4.084  14.561  0.2225 -0.2116  0.5843
15783TIP3    H168764   0.791   3.989  14.564  0.0627 -0.1798  1.0084
15783TIP3    H268765   0.717   4.120  14.586  0.1071  0.0497 -0.1495
15784TIP3   OH268766   5.928   4.379   3.251 -0.3573  0.0442  0.2779
15784TIP3    H168767   5.928   4.470   3.281  0.3103  0.1030  0.0945
15784TIP3    H268768   5.918   4.327   3.331 -2.3238  0.3155  0.2458
15785TIP3   OH268769   0.261   2.489  12.480 -0.8636 -0.1885 -0.0425
15785TIP3    H168770   0.307   2.571  12.498 -0.7257 -0.4240  0.6991
15785TIP3    H268771   0.278   2.435  12.557 -0.8070 -0.9799 -0.6068
15786TIP3   OH268772   1.738   2.188  16.076  0.0334  0.1302 -0.3559
15786TIP3    H168773   1.748   2.156  15.986 -2.6128 -1.9148  0.0222
15786TIP3    H268774   1.661   2.245  16.073  0.2095  0.4273  0.5514
15787TIP3   OH268775   1.949   2.653   6.222  0.5060  0.2810 -0.4198
15787TIP3    H168776   1.993   2.575   6.187  0.0354 -0.4277  0.5355
15787TIP3    H268777   2.020   2.712   6.246  0.8617  0.2421 -1.3651
15788TIP3   OH268778   6.452   2.270  14.699  0.5612  0.1519 -0.0941
15788TIP3    H168779   6.483   2.342  14.643  1.7001 -1.1320 -1.1322
15788TIP3    H268780   6.370   2.303  14.736  0.1165  1.2676 -2.0056
15789TIP3   OH268781   1.071   4.421  15.970  0.7962  0.2459 -0.4438
15789TIP3    H168782   1.045   4.335  16.002  1.1851 -0.1046 -1.0691
15789TIP3    H268783   0.989   4.467  15.952  0.5920 -0.0160 -0.1812
15790TIP3   OH268784   3.175   6.090  12.688 -0.7989  0.2807  0.0345
15790TIP3    H168785   3.090   6.127  12.713 -0.7258  0.2052  0.3929
15790TIP3    H268786   3.159   5.995  12.683 -0.1144  0.0151  2.5760
15791TIP3   OH268787   5.173   2.607  13.125  0.1530 -0.1177 -0.3976
15791TIP3    H168788   5.169   2.517  13.092  2.8106 -0.0607 -0.9395
15791TIP3    H268789   5.183   2.660  13.046 -1.1716  0.6649 -0.0564
15792TIP3   OH268790   4.013   1.122  11.252 -0.1137  0.2006  0.3236
15792TIP3    H168791   3.969   1.198  11.290 -0.4131  0.1821  0.0154
15792TIP3    H268792   3.947   1.052  11.254  0.1180 -0.0158  0.4848
15793TIP3   OH268793   5.248   5.163   3.089 -0.2784 -0.1968 -0.1931
15793TIP3    H168794   5.235   5.253   3.119  1.1655  0.0581 -0.2958
15793TIP3    H268795   5.228   5.165   2.995 -0.6090 -0.0754 -0.1218
15794TIP3   OH268796   3.591   1.609   6.488 -0.3745  0.3407  0.2772
15794TIP3    H168797   3.616   1.674   6.422 -0.7467 -0.5483 -0.7606
15794TIP3    H268798   3.498   1.591   6.470  0.1683 -1.7860 -0.6139
15795TIP3   OH268799   5.680   3.661  13.621 -0.2773 -0.0570  0.2704
15795TIP3    H168800   5.758   3.708  13.650 -0.3912  0.0198  0.4539
15795TIP3    H268801   5.677   3.676  13.527  0.8815 -1.4938 -0.0089
15796TIP3   OH268802   0.697   4.239   1.042 -0.5812 -0.0220 -0.6417
15796TIP3    H168803   0.633   4.306   1.067 -0.2205 -0.2834  1.0981
15796TIP3    H268804   0.753   4.230   1.119  1.0258 -0.4197 -1.8301
15797TIP3   OH268805   5.540   3.236  15.247 -0.3567 -0.6535 -0.2965
15797TIP3    H168806   5.450   3.262  15.229 -0.1376  0.4661  0.1410
15797TIP3    H268807   5.590   3.318  15.239  0.3967 -0.9775  0.9415
15798TIP3   OH268808   6.389   5.500  15.560  0.7008 -0.7282  0.5494
15798TIP3    H168809   6.389   5.502  15.464  2.8013  1.3109  0.5314
15798TIP3    H268810   6.353   5.415  15.583 -1.7429 -0.4368 -2.0069
15799TIP3   OH268811   2.570   6.297  16.603  0.1845  0.1628  0.2157
15799TIP3    H168812   2.574   6.254  16.688 -1.5997 -1.2950 -0.3942
15799TIP3    H268813   2.620   6.239  16.545 -2.4930 -1.3483 -0.6779
15800TIP3   OH268814   5.517   0.899   2.758  0.4283  0.0718  0.5871
15800TIP3    H168815   5.500   0.836   2.688  0.1766  1.6763 -0.8333
15800TIP3    H268816   5.612   0.896   2.770  0.7397  1.2658 -1.2924
15801TIP3   OH268817   3.664   1.697  13.744 -0.6504  0.2370  0.4502
15801TIP3    H168818   3.652   1.740  13.659  0.8245  2.1409  1.1646
15801TIP3    H268819   3.749   1.655  13.737 -0.2692  0.8783  1.1703
15802TIP3   OH268820   4.050   0.791  12.523 -0.3841  0.6283  0.6769
15802TIP3    H168821   4.076   0.844  12.598  0.3598  0.0732  0.8204
15802TIP3    H268822   4.123   0.796  12.462 -1.6257  2.3396 -0.7179
15803TIP3   OH268823   1.844   0.733  17.206 -0.6329 -0.4621  0.4927
15803TIP3    H168824   1.900   0.697  17.273 -0.5290 -0.0068  0.6535
15803TIP3    H268825   1.867   0.826  17.202 -0.3351 -0.5656 -0.4616
15804TIP3   OH268826   0.784   2.300   3.196  0.3831  0.2332 -0.3028
15804TIP3    H168827   0.788   2.341   3.109 -0.9788 -0.0579 -0.5221
15804TIP3    H268828   0.750   2.212   3.179 -0.9524  0.5481  0.6359
15805TIP3   OH268829   3.318   3.730   1.844  0.6590 -0.0878 -0.3283
15805TIP3    H168830   3.348   3.744   1.753  1.5748 -1.0830 -0.1912
15805TIP3    H268831   3.254   3.660   1.838  1.4886 -0.8853 -0.0912
15806TIP3   OH268832   3.511   1.696  15.670 -0.4832 -0.6793 -0.1493
15806TIP3    H168833   3.440   1.744  15.713  1.0118  1.4692  0.0044
15806TIP3    H268834   3.500   1.717  15.577 -0.7507 -1.3207 -0.2664
15807TIP3   OH268835   6.263   0.194   1.386 -0.2206 -0.2779  0.3121
15807TIP3    H168836   6.253   0.287   1.364  0.4615 -0.5323 -1.1627
15807TIP3    H268837   6.353   0.187   1.418 -0.5022 -0.3097  1.1045
15808TIP3   OH268838   1.667   0.989   4.654  0.2432  0.6140 -0.0029
15808TIP3    H168839   1.642   1.081   4.667 -1.1689  0.5781 -2.1793
15808TIP3    H268840   1.672   0.979   4.559  4.0839 -0.6173  0.2620
15809TIP3   OH268841   5.991   1.529  11.134 -0.0090  0.0010  0.0101
15809TIP3    H168842   6.011   1.610  11.088 -0.4931 -0.4629 -1.0590
15809TIP3    H268843   6.067   1.513  11.190 -0.4331  1.8013  1.1340
15810TIP3   OH268844   6.110   0.255   0.117  0.1177 -0.0640 -0.3126
15810TIP3    H168845   6.129   0.278   0.027  0.1176  0.0811 -0.2748
15810TIP3    H268846   6.176   0.190   0.140  0.5052  0.3628 -0.2140
15811TIP3   OH268847   0.968   4.296  15.023 -0.7737  0.0719 -0.9137
15811TIP3    H168848   0.912   4.370  15.046  2.0509  2.3287 -1.0396
15811TIP3    H268849   0.960   4.288  14.928 -1.3862 -0.0703 -0.8529
15812TIP3   OH268850   0.360   1.331  16.276 -0.3174 -0.0088  0.2727
15812TIP3    H168851   0.388   1.315  16.186  0.2195  1.2299  0.2162
15812TIP3    H268852   0.417   1.274  16.329 -0.7577 -0.8715 -0.1792
15813TIP3   OH268853   6.702   6.305  11.438  0.0618  0.0632 -0.0288
15813TIP3    H168854   6.706   6.355  11.519  0.2775 -1.6253  1.0262
15813TIP3    H268855   6.618   6.260  11.442 -0.2510  0.5328 -1.0975
15814TIP3   OH268856   6.663   0.134  14.150 -0.5310  0.5058  0.3499
15814TIP3    H168857   6.624   0.210  14.193 -1.9699 -0.2433  0.3946
15814TIP3    H268858   6.636   0.059  14.203 -1.4635 -0.3257 -1.2633
15815TIP3   OH268859   2.009   4.520  16.320  0.2078  0.2128 -0.1315
15815TIP3    H168860   2.051   4.454  16.264  0.7148  1.7999 -1.7164
15815TIP3    H268861   1.916   4.510  16.303  0.2242 -0.6150  0.2400
15816TIP3   OH268862   6.469   6.009   1.222 -0.8334  0.0479  0.3310
15816TIP3    H168863   6.433   5.930   1.262 -0.1859  0.3178  1.4876
15816TIP3    H268864   6.464   6.076   1.291  1.0982  0.2964  0.2775
15817TIP3   OH268865   3.242   5.128  16.044  0.5263 -0.2041  0.2609
15817TIP3    H168866   3.241   5.059  16.110  1.5015 -0.5984 -0.1329
15817TIP3    H268867   3.278   5.086  15.966 -1.1505  0.1023 -0.7049
15818TIP3   OH268868   3.205   2.090   2.236 -0.4813  1.1814  0.2844
15818TIP3    H168869   3.215   2.170   2.186 -1.5279  1.2625  0.1833
15818TIP3    H268870   3.243   2.110   2.322 -2.3387  2.3858  0.8485
15819TIP3   OH268871   5.973   4.210   6.332 -0.1938  0.1642 -0.4386
15819TIP3    H168872   5.956   4.223   6.425 -1.3240  2.3887 -0.9143
15819TIP3    H268873   6.068   4.202   6.326 -0.2935 -2.9999  1.1950
15820TIP3   OH268874   3.078   0.680  15.816 -0.3972  0.3570  0.5878
15820TIP3    H168875   3.053   0.767  15.845  1.1556  1.0276 -0.0429
15820TIP3    H268876   3.125   0.642  15.891 -0.0068  0.5271  0.4311
15821TIP3   OH268877   0.027   1.901  15.829 -0.2871  0.2806  0.1913
15821TIP3    H168878   0.039   1.987  15.869  0.3084  0.4323 -0.3148
15821TIP3    H268879  -0.009   1.920  15.743  1.2309  0.1016 -0.4964
15822TIP3   OH268880   3.223   0.210  12.298  0.5219  0.5738 -0.4843
15822TIP3    H168881   3.131   0.227  12.319  0.7004  1.7734 -0.6141
15822TIP3    H268882   3.270   0.232  12.378  0.9002  2.1774 -1.1106
15823TIP3   OH268883   6.113   5.926   5.499 -0.5666 -0.3624  0.0499
15823TIP3    H168884   6.199   5.914   5.538 -0.0047  1.2221 -0.6640
15823TIP3    H268885   6.127   5.990   5.430 -2.4532  0.4513  0.3964
15824TIP3   OH268886   1.404   0.868  12.265  0.3103  0.0929  0.1362
15824TIP3    H168887   1.442   0.917  12.192 -1.0398 -0.1747 -0.7712
15824TIP3    H268888   1.478   0.846  12.321  1.2362  1.1284 -0.6693
15825TIP3   OH268889   1.229   1.925  12.559  0.1297  0.0444 -0.4840
15825TIP3    H168890   1.217   1.948  12.467  0.0466 -0.2171 -0.5372
15825TIP3    H268891   1.283   1.846  12.557 -2.1672 -1.5489 -0.4005
15826TIP3   OH268892   0.544   2.527   0.248 -0.0014  0.4294 -0.6044
15826TIP3    H168893   0.536   2.511   0.155  0.0817 -0.5353 -0.4482
15826TIP3    H268894   0.603   2.458   0.279  0.0225  0.7828  0.1469
15827TIP3   OH268895   1.072   6.616  11.386 -0.7222 -0.2082  0.0967
15827TIP3    H168896   1.050   6.705  11.414  0.1159 -0.4746  1.6369
15827TIP3    H268897   1.037   6.559  11.455  2.2279 -0.8087  1.2142
15828TIP3   OH268898   2.317   3.575  11.050 -0.1364 -0.2862  0.1451
15828TIP3    H168899   2.379   3.524  10.997 -0.6699  1.2084 -1.9676
15828TIP3    H268900   2.318   3.662  11.011 -2.6905  0.0795  0.8260
15829TIP3   OH268901   0.378   4.706  15.919  0.3196  0.5455  0.9897
15829TIP3    H168902   0.361   4.676  16.008 -1.5119  0.9727  0.7985
15829TIP3    H268903   0.472   4.690  15.906  0.8456  1.4404  3.3601
15830TIP3   OH268904   3.370   0.598  13.598  0.0782 -1.0241 -0.0025
15830TIP3    H168905   3.284   0.631  13.572  0.3503 -1.5573 -1.6845
15830TIP3    H268906   3.351   0.531  13.663 -0.6435  0.3544  1.2348
15831TIP3   OH268907   2.484   4.378  10.510 -0.4926  0.2280 -0.0848
15831TIP3    H168908   2.449   4.290  10.494  1.2322 -0.1588 -1.8357
15831TIP3    H268909   2.511   4.376  10.602 -1.9556 -0.5385  0.3449
15832TIP3   OH268910   4.345   5.770  16.595 -0.0368 -0.1509 -0.3612
15832TIP3    H168911   4.294   5.689  16.586  1.0841 -0.8132 -0.8685
15832TIP3    H268912   4.315   5.826  16.524  2.9581 -2.2037 -3.3827
15833TIP3   OH268913   0.069   6.436  16.452  0.4636 -0.5600 -0.2249
15833TIP3    H168914   0.156   6.473  16.467  0.9860 -1.9751  0.2615
15833TIP3    H268915   0.063   6.363  16.514 -1.4262  0.1086  0.4013
15834TIP3   OH268916   2.129   3.182  15.281 -0.0256 -0.4428  0.6314
15834TIP3    H168917   2.142   3.275  15.264 -2.2291  0.1336  1.9195
15834TIP3    H268918   2.087   3.148  15.202 -2.7650  0.5141  1.6075
15835TIP3   OH268919   2.613   5.333   1.028  0.1777  0.0113  0.4912
15835TIP3    H168920   2.532   5.346   0.979  0.3583 -3.2992 -0.8762
15835TIP3    H268921   2.678   5.387   0.983 -0.8952  1.3240  0.5207
15836TIP3   OH268922   3.622   0.212   2.468  0.2021  0.1078  0.2563
15836TIP3    H168923   3.706   0.241   2.505 -0.2918  0.6819  0.9536
15836TIP3    H268924   3.574   0.293   2.452  0.3761 -0.1503 -1.6043
15837TIP3   OH268925   2.312   0.845   2.688  0.0752 -0.3933  0.0496
15837TIP3    H168926   2.278   0.933   2.701 -1.0066 -0.9661  1.2377
15837TIP3    H268927   2.321   0.835   2.593 -0.0220  0.8980 -0.0956
15838TIP3   OH268928   3.051   6.005   1.976  0.2566 -0.2270  0.3262
15838TIP3    H168929   3.138   5.966   1.991  0.3089  0.2124  1.1715
15838TIP3    H268930   2.999   5.977   2.051 -0.2053 -0.0962  0.0579
15839TIP3   OH268931   2.837   1.338   3.715  0.2991 -0.1683  0.2546
15839TIP3    H168932   2.823   1.369   3.804  0.6828  0.5229  0.0822
15839TIP3    H268933   2.932   1.340   3.704  0.1286  5.0732 -1.9640
15840TIP3   OH268934   1.155   5.073  10.645 -0.2648  0.0909  0.1538
15840TIP3    H168935   1.218   5.012  10.608 -2.6095 -1.4468 -1.3995
15840TIP3    H268936   1.194   5.159  10.632  1.9069 -0.8957  0.0427
15841TIP3   OH268937   6.075   0.465   4.167 -0.1084 -0.2424  0.2721
15841TIP3    H168938   5.987   0.484   4.198  0.0027 -0.2837  0.6083
15841TIP3    H268939   6.065   0.389   4.109 -0.2014 -0.6159  0.7812
15842TIP3   OH268940   0.754   1.034   6.335 -0.8405  0.5419 -1.2705
15842TIP3    H168941   0.678   0.998   6.381  0.8708 -0.3441  0.9692
15842TIP3    H268942   0.796   0.958   6.296  1.6244  0.2787  1.7072
15843TIP3   OH268943   5.293   5.224  13.714  0.2510  0.1091  0.4194
15843TIP3    H168944   5.339   5.291  13.764 -0.8913  2.1878 -1.2452
15843TIP3    H268945   5.260   5.163  13.781  2.4173  0.4740  1.8557
15844TIP3   OH268946   0.955   0.315  15.795 -0.4875 -0.1595 -0.2407
15844TIP3    H168947   1.006   0.307  15.875 -0.7632  0.4429  0.0048
15844TIP3    H268948   0.871   0.352  15.824 -0.8638 -0.6416 -0.7071
15845TIP3   OH268949   5.340   5.019   1.386 -0.4326 -0.0560  0.3014
15845TIP3    H168950   5.353   5.105   1.426 -2.0282  0.7298 -0.8457
15845TIP3    H268951   5.355   5.033   1.293  0.8222 -1.3610  0.2861
15846TIP3   OH268952   2.176   0.797   0.979 -0.0681  0.5872  0.1424
15846TIP3    H168953   2.243   0.864   0.969  0.5956 -0.2204 -1.0339
15846TIP3    H268954   2.136   0.790   0.892 -1.1780  0.5341  0.6429
15847TIP3   OH268955   4.468   2.747  12.902 -0.1695  0.5300  0.6738
15847TIP3    H168956   4.534   2.813  12.925 -1.6737  1.6453  1.9423
15847TIP3    H268957   4.385   2.787  12.929 -1.2341 -1.3678  0.2585
15848TIP3   OH268958   5.536   4.672   3.313 -0.5810 -0.1108  0.0630
15848TIP3    H168959   5.452   4.713   3.330  0.5450  1.4428  2.1527
15848TIP3    H268960   5.518   4.578   3.315 -1.6856  0.0815  4.1770
15849TIP3   OH268961   2.350   0.409  14.371 -0.2139  0.1641 -0.2588
15849TIP3    H168962   2.378   0.356  14.445 -0.6973  0.7296  0.3415
15849TIP3    H268963   2.386   0.365  14.294  5.1621  2.6277  0.6458
15850TIP3   OH268964   0.637   0.466   6.651  0.1875  0.0236  0.3902
15850TIP3    H168965   0.637   0.554   6.688  1.4410  0.3328 -0.2803
15850TIP3    H268966   0.598   0.411   6.718 -1.9739  1.3188  0.2378
15851TIP3   OH268967   0.109   0.856  14.203 -0.4736  0.1649  0.1356
15851TIP3    H168968   0.058   0.897  14.132 -1.1507  0.5125  0.8203
15851TIP3    H268969   0.199   0.885  14.187 -0.7577  0.9614 -0.0854
15852TIP3   OH268970   3.398   5.585  10.475 -0.1757  0.2466  0.0940
15852TIP3    H168971   3.361   5.538  10.549 -0.8551 -0.5511 -0.7367
15852TIP3    H268972   3.363   5.673  10.482 -0.2382  0.1733  0.7146
15853TIP3   OH268973   0.177   5.822   5.189 -0.1742  0.3044 -0.4760
15853TIP3    H168974   0.180   5.909   5.230 -1.8051 -0.4224  1.1974
15853TIP3    H268975   0.090   5.789   5.208 -0.0151 -1.2031 -2.2165
15854TIP3   OH268976   5.054   5.140  11.939 -0.5317 -0.2791  0.2247
15854TIP3    H168977   5.106   5.154  12.018 -1.5469  0.3539  0.7853
15854TIP3    H268978   5.002   5.061  11.958  0.9678 -1.5194 -0.7303
15855TIP3   OH268979   0.740   6.078   3.568  0.4180 -0.0444 -0.0975
15855TIP3    H168980   0.761   6.067   3.475 -0.0862 -2.2593  0.0092
15855TIP3    H268981   0.789   6.008   3.612 -0.9052 -0.2612  1.0650
15856TIP3   OH268982   3.624   1.218   3.244 -0.2493  0.3001 -0.3459
15856TIP3    H168983   3.594   1.270   3.319 -0.9555 -0.0545 -0.3778
15856TIP3    H268984   3.667   1.281   3.187  0.6519  0.5068  0.5440
15857TIP3   OH268985   3.245   1.305   1.992 -0.7112 -0.3703  0.4829
15857TIP3    H168986   3.198   1.227   1.962 -0.2830  0.2255 -1.8309
15857TIP3    H268987   3.330   1.300   1.948 -1.9024  3.1275 -2.4598
15858TIP3   OH268988   1.471   1.626   4.381 -0.1335  0.3426 -0.1322
15858TIP3    H168989   1.549   1.648   4.432 -0.8130  0.2712  0.9609
15858TIP3    H268990   1.404   1.685   4.414 -1.4709 -1.9900  1.4868
15859TIP3   OH268991   4.174   3.229  11.217  0.3422 -0.5135 -0.4811
15859TIP3    H168992   4.085   3.230  11.182  0.1186 -0.7726  0.0686
15859TIP3    H268993   4.162   3.237  11.312  0.8285 -2.0608 -0.2676
15860TIP3   OH268994   0.612   3.525  12.722  0.4001  0.1240  0.5583
15860TIP3    H168995   0.563   3.458  12.674  1.3252 -0.0747 -0.1170
15860TIP3    H268996   0.633   3.591  12.656 -2.0659  2.0027  1.5692
15861TIP3   OH268997   2.282   2.209   2.713 -0.2265 -0.2194  0.0846
15861TIP3    H168998   2.303   2.162   2.793  0.2965 -0.0956  0.0218
15861TIP3    H268999   2.206   2.163   2.677 -1.6791  0.8841  1.6555
15862TIP3   OH269000   5.373   0.320   1.345  0.2412 -0.3610  0.2825
15862TIP3    H169001   5.348   0.408   1.319  1.8702  0.9679  2.9461
15862TIP3    H269002   5.444   0.296   1.286  0.0074  0.2441 -0.2462
15863TIP3   OH269003   6.320   4.303  15.943  0.1067  0.0324  0.5583
15863TIP3    H169004   6.300   4.222  15.896 -0.8673  0.7949 -0.3620
15863TIP3    H269005   6.394   4.280  16.000  0.4345 -1.2520 -0.3678
15864TIP3   OH269006   1.632   4.379   0.060 -0.5145 -0.3902  0.0172
15864TIP3    H169007   1.638   4.289   0.026  3.5739 -1.1475  2.4219
15864TIP3    H269008   1.568   4.373   0.131  1.1063 -1.8970  1.4117
15865TIP3   OH269009   0.703   6.736  14.136  0.2868  0.2698  0.1775
15865TIP3    H169010   0.619   6.710  14.099  0.5573  1.1468 -1.0812
15865TIP3    H269011   0.704   6.696  14.223 -1.4439  0.2773  0.2207
15866TIP3   OH269012   1.124   4.533   1.965  0.2576  0.2197  0.5191
15866TIP3    H169013   1.040   4.563   1.999 -0.1136 -0.3240  0.1046
15866TIP3    H269014   1.142   4.591   1.891 -0.1913 -0.2176  0.0582
15867TIP3   OH269015   1.230   5.160   4.761 -0.8531  0.7721 -0.8088
15867TIP3    H169016   1.241   5.086   4.822 -1.2149  1.0212 -0.4395
15867TIP3    H269017   1.318   5.177   4.729 -0.8509 -0.2008 -1.3419
15868TIP3   OH269018   4.840   4.130  11.413 -0.0048 -0.0890 -1.3413
15868TIP3    H169019   4.898   4.143  11.487 -1.3871 -0.3053 -0.1922
15868TIP3    H269020   4.784   4.057  11.439 -0.2819 -0.4026 -2.7408
15869TIP3   OH269021   4.489   5.798   4.428 -0.5111  0.5394 -0.3044
15869TIP3    H169022   4.540   5.823   4.351  0.4860 -0.5158 -0.0026
15869TIP3    H269023   4.470   5.705   4.415  0.7754  0.0149  1.3111
15870TIP3   OH269024   3.656   6.714   2.449 -0.1954  0.3226  0.8734
15870TIP3    H169025   3.668   6.806   2.425 -0.9653  0.8723  2.5229
15870TIP3    H269026   3.706   6.665   2.384 -0.7217  1.8452 -0.7115
15871TIP3   OH269027   6.182   6.564   3.342 -0.4593  0.3429  0.0283
15871TIP3    H169028   6.236   6.623   3.394  2.4486 -1.1154 -1.2120
15871TIP3    H269029   6.175   6.607   3.256 -1.0255  0.4039  0.1085
15872TIP3   OH269030   6.572   2.057  14.572  0.3183 -0.8038 -0.0251
15872TIP3    H169031   6.562   2.067  14.477  0.4808  0.6444  0.0874
15872TIP3    H269032   6.529   2.135  14.608  0.5115 -1.2028  1.0746
15873TIP3   OH269033   3.063   2.365  13.109  0.3943 -0.4258  0.0153
15873TIP3    H169034   3.062   2.271  13.130 -1.7129 -0.1785  1.1865
15873TIP3    H269035   2.994   2.376  13.044 -1.4337  0.7630  2.1008
15874TIP3   OH269036   3.512   5.607  11.317 -0.0314 -0.1061  0.1460
15874TIP3    H169037   3.425   5.643  11.333  0.7063  1.7453  0.1402
15874TIP3    H269038   3.546   5.659  11.244  0.5950 -1.6508 -0.6848
15875TIP3   OH269039   2.676   3.651  16.543 -0.0744 -0.2003  0.0474
15875TIP3    H169040   2.673   3.713  16.471  0.8689 -0.5529 -0.2971
15875TIP3    H269041   2.657   3.703  16.621 -3.5125 -0.2109 -0.6712
15876TIP3   OH269042   6.466   4.411   3.936  0.9326 -0.0431 -0.4267
15876TIP3    H169043   6.553   4.426   3.974  1.1890  2.4795 -1.9305
15876TIP3    H269044   6.448   4.319   3.954  4.3449 -0.8730 -0.9469
15877TIP3   OH269045   2.307   6.433  13.412  0.6568 -0.0440 -0.0578
15877TIP3    H169046   2.286   6.421  13.319 -0.2847 -0.7791  0.2378
15877TIP3    H269047   2.262   6.360  13.456  0.8551  0.4656  1.0012
15878TIP3   OH269048   2.651   3.227  12.896  0.3588  0.4175 -0.3823
15878TIP3    H169049   2.559   3.214  12.919 -0.4022  2.0931 -2.3224
15878TIP3    H269050   2.678   3.145  12.855 -0.0705 -0.3275  0.8207
15879TIP3   OH269051   5.296   0.167  12.977 -0.5649 -0.6272  0.2561
15879TIP3    H169052   5.348   0.090  12.956  0.6467  0.7382 -1.9613
15879TIP3    H269053   5.210   0.133  13.001  1.1924 -2.9087  3.6827
15880TIP3   OH269054   3.751   5.715  12.571 -0.0467  0.1743  0.1297
15880TIP3    H169055   3.841   5.682  12.571  0.5740  1.8301  0.1708
15880TIP3    H269056   3.750   5.782  12.638 -1.0240  0.9471 -0.6463
15881TIP3   OH269057   4.702   0.413  16.156  0.1583 -0.2376  0.6401
15881TIP3    H169058   4.767   0.456  16.212 -0.4997 -1.1176  2.0921
15881TIP3    H269059   4.671   0.339  16.207 -1.0749 -0.5762 -0.5649
15882TIP3   OH269060   0.868   1.866   1.437  0.3805 -0.0643  0.5265
15882TIP3    H169061   0.930   1.877   1.509  0.1065 -3.0236  1.2810
15882TIP3    H269062   0.907   1.914   1.364  1.7175  1.1796  2.0231
15883TIP3   OH269063   0.201   3.980   4.436 -0.3204  0.0020 -0.1996
15883TIP3    H169064   0.144   3.932   4.496 -2.0404 -0.4768 -2.1342
15883TIP3    H269065   0.276   3.923   4.423 -0.6145 -0.5233  0.3777
15884TIP3   OH269066   6.179   4.459  11.798 -0.1151 -0.1549  0.0152
15884TIP3    H169067   6.228   4.430  11.875  0.1922  0.9767  0.2596
15884TIP3    H269068   6.159   4.379  11.751  0.1812 -0.8105  0.9875
15885TIP3   OH269069   6.679   4.418   0.507 -0.4151  0.2609  0.1124
15885TIP3    H169070   6.713   4.402   0.595 -1.1910 -2.0303  0.0255
15885TIP3    H269071   6.756   4.440   0.455  0.0959  1.2723  1.2697
15886TIP3   OH269072   6.300   0.596  15.655 -0.1176 -0.7603  0.3842
15886TIP3    H169073   6.340   0.573  15.739  0.7660  0.0834  0.2060
15886TIP3    H269074   6.372   0.593  15.592 -0.9144 -2.1014 -0.4861
15887TIP3   OH269075   5.059   2.768   4.417  0.5251  0.5033 -0.0375
15887TIP3    H169076   5.123   2.703   4.387  0.3472  0.1224  0.4083
15887TIP3    H269077   5.013   2.725   4.489 -0.5072  0.6237 -0.6186
15888TIP3   OH269078   5.860   1.832   1.647 -0.1872  0.2065 -0.3871
15888TIP3    H169079   5.789   1.786   1.694 -0.0995 -0.0757 -0.5271
15888TIP3    H269080   5.894   1.766   1.587 -1.5583  1.1237 -2.2308
15889TIP3   OH269081   5.098   2.340  15.975  0.1818  0.2046 -0.3463
15889TIP3    H169082   5.137   2.346  15.887 -1.3151 -3.7035 -1.3872
15889TIP3    H269083   5.054   2.424  15.987  1.3717  1.2637 -2.8457
15890TIP3   OH269084   4.928   5.354   2.656  0.3521  0.2527 -0.1942
15890TIP3    H169085   4.957   5.434   2.699  0.6991 -0.7089  1.4422
15890TIP3    H269086   4.844   5.334   2.697  0.5808 -0.5706 -0.1213
15891TIP3   OH269087   3.643   5.773  12.024 -0.1828 -0.5376  0.4833
15891TIP3    H169088   3.667   5.680  12.021  1.5985 -0.0923  0.2603
15891TIP3    H269089   3.727   5.818  12.034 -0.8876  1.1500 -1.1356
15892TIP3   OH269090   3.185   5.635  10.979  0.6276  0.0064  0.0961
15892TIP3    H169091   3.152   5.571  10.916 -0.4595  1.0769 -0.4442
15892TIP3    H269092   3.279   5.616  10.985  0.2454 -1.9216  0.3096
15893TIP3   OH269093   1.153   2.554   1.233 -1.0786  0.3394 -0.2641
15893TIP3    H169094   1.208   2.544   1.155  0.2227  0.9447  0.5626
15893TIP3    H269095   1.090   2.482   1.226  0.8007 -1.3471 -0.4304
15894TIP3   OH269096   3.514   4.222  11.241 -0.7634 -0.1618  0.0874
15894TIP3    H169097   3.486   4.138  11.205  0.8647 -0.3177 -0.8930
15894TIP3    H269098   3.563   4.263  11.169  1.3509  0.1511  1.6584
15895TIP3   OH269099   2.922   2.239   3.679 -0.6165  0.2611  0.3121
15895TIP3    H169100   2.915   2.298   3.605 -1.5949  0.0575  0.2311
15895TIP3    H269101   2.906   2.152   3.642  0.3703 -0.0117  0.5058
15896TIP3   OH269102   1.584   5.620  13.906  0.6247  0.3878  0.1623
15896TIP3    H169103   1.619   5.689  13.851  3.0940  2.6036  4.2530
15896TIP3    H269104   1.507   5.659  13.947  1.3358  0.3470  1.5718
15897TIP3   OH269105   2.787   1.641  13.422 -0.2804 -0.4162 -0.0944
15897TIP3    H169106   2.814   1.569  13.365 -0.2830 -0.3141 -0.2254
15897TIP3    H269107   2.821   1.720  13.380 -1.0190 -0.2602 -0.4141
15898TIP3   OH269108   0.564   1.276   3.047  0.5035 -0.3624 -0.2779
15898TIP3    H169109   0.585   1.360   3.005  0.2248 -0.1884 -0.0767
15898TIP3    H269110   0.593   1.210   2.985 -1.4388 -0.1056 -1.5130
15899TIP3   OH269111   4.899   3.071   6.494 -0.3257 -0.4697  0.4569
15899TIP3    H169112   4.864   3.101   6.578 -0.0132 -0.5898  0.6307
15899TIP3    H269113   4.980   3.121   6.484 -0.9522  0.4008 -0.3223
15900TIP3   OH269114   0.178   6.650   6.334  0.0648 -0.0769  0.4120
15900TIP3    H169115   0.239   6.657   6.407 -0.0571 -1.9553  0.7191
15900TIP3    H269116   0.104   6.599   6.368 -0.4492 -0.1003 -0.7070
15901TIP3   OH269117   6.385   2.656  15.154  0.9146  0.3548  0.5050
15901TIP3    H169118   6.425   2.737  15.186  1.8972 -0.6801  1.9228
15901TIP3    H269119   6.323   2.685  15.087  0.2851  2.3880  1.9316
15902TIP3   OH269120   3.537   2.326   0.816 -0.5063 -0.5987 -0.4568
15902TIP3    H169121   3.496   2.327   0.903 -0.0358  0.6828 -0.2461
15902TIP3    H269122   3.464   2.338   0.755 -0.7382 -0.6816 -0.1968
15903TIP3   OH269123   1.873   5.624  17.139 -0.1566 -0.0284 -0.6716
15903TIP3    H169124   1.854   5.708  17.097 -1.5806  0.1487  0.3017
15903TIP3    H269125   1.833   5.630  17.225  3.1819 -0.1867  0.9897
15904TIP3   OH269126   5.574   4.359   0.660  0.2993  0.0418  0.7901
15904TIP3    H169127   5.639   4.381   0.727  0.8821 -1.7905  0.8412
15904TIP3    H269128   5.616   4.382   0.577  1.2963 -1.7636  0.7764
15905TIP3   OH269129   3.115   3.003  13.046  0.2695 -0.5877  0.1510
15905TIP3    H169130   3.115   3.043  12.959 -1.5566 -0.9373 -0.0370
15905TIP3    H269131   3.049   3.053  13.095  0.3876 -1.1990  0.9467
15906TIP3   OH269132   3.902   5.279   2.279  0.3974  0.4977  0.1930
15906TIP3    H169133   3.936   5.362   2.313  0.9163  0.9287 -1.3326
15906TIP3    H269134   3.937   5.274   2.190 -1.4500 -0.2927 -0.5103
15907TIP3   OH269135   5.345   2.495   2.380 -0.0919  0.4135  0.4067
15907TIP3    H169136   5.364   2.405   2.406  0.4661  0.8319  1.4652
15907TIP3    H269137   5.349   2.545   2.461  2.8404  1.9422 -0.6189
15908TIP3   OH269138   2.664   4.012  14.794  0.6859  0.3586 -0.1044
15908TIP3    H169139   2.740   4.011  14.736  0.9981  2.5957  0.2243
15908TIP3    H269140   2.596   4.057  14.743 -0.2990 -1.2457 -0.2388
15909TIP3   OH269141   1.440   5.697   2.930 -0.0124 -0.0824  0.1780
15909TIP3    H169142   1.437   5.682   3.025 -2.1251 -0.1574  0.1287
15909TIP3    H269143   1.428   5.791   2.920  0.7241 -0.0078  0.0074
15910TIP3   OH269144   4.935   3.617   4.458 -0.0852  0.2508  0.3807
15910TIP3    H169145   4.883   3.539   4.439 -0.4042  0.6125 -0.2673
15910TIP3    H269146   4.869   3.686   4.471  0.1702  0.2744  1.6079
15911TIP3   OH269147   0.698   2.041   0.140 -0.4104  0.2711 -0.2288
15911TIP3    H169148   0.647   1.972   0.099 -1.4946  0.7759  0.2516
15911TIP3    H269149   0.771   1.995   0.181 -0.7007 -0.5046 -0.5666
15912TIP3   OH269150   1.825   3.080   1.888  0.7634 -0.5204 -0.0380
15912TIP3    H169151   1.744   3.035   1.912 -0.0875  0.6248 -0.7488
15912TIP3    H269152   1.837   3.146   1.956  2.2487 -2.0375  1.2527
15913TIP3   OH269153   5.204   3.140  12.656  0.1294 -0.3319  0.0984
15913TIP3    H169154   5.250   3.061  12.682 -1.2040 -1.0945  0.1982
15913TIP3    H269155   5.118   3.133  12.697 -0.2475  0.8328 -0.4551
15914TIP3   OH269156   2.243   1.163  11.665 -0.2102 -0.3641  0.1001
15914TIP3    H169157   2.260   1.108  11.742 -1.4463 -0.5609  0.2440
15914TIP3    H269158   2.154   1.141  11.640 -0.7021  1.5410  0.1265
15915TIP3   OH269159   6.079   3.821   2.420 -0.2308 -0.0755 -0.7162
15915TIP3    H169160   6.079   3.906   2.464 -0.7160 -1.0787  1.2391
15915TIP3    H269161   5.989   3.810   2.389 -0.0875  0.2585 -1.2623
15916TIP3   OH269162   4.351   6.158  13.088  0.4530  0.2553 -0.6176
15916TIP3    H169163   4.437   6.164  13.131  0.7419  1.5793 -1.3702
15916TIP3    H269164   4.358   6.079  13.034  0.7343 -0.3755  0.3165
15917TIP3   OH269165   2.412   1.303  13.187  0.6475  0.2623 -0.0023
15917TIP3    H169166   2.373   1.217  13.202  0.2044  0.1710 -1.6087
15917TIP3    H269167   2.348   1.364  13.223 -0.1898  0.0287 -1.0622
15918TIP3   OH269168   5.308   4.585  14.358 -0.3877  0.3026 -0.1507
15918TIP3    H169169   5.355   4.505  14.383 -1.6581 -0.1926  0.6949
15918TIP3    H269170   5.377   4.644  14.327  0.6624 -0.8153  0.0054
15919TIP3   OH269171   0.148   0.735   2.548  0.4432 -0.7040 -0.0982
15919TIP3    H169172   0.141   0.722   2.642  0.1063 -0.5560 -0.1041
15919TIP3    H269173   0.081   0.677   2.511  0.4908 -0.6678 -0.2416
15920TIP3   OH269174   3.922   2.763  11.605 -0.7208  0.1367 -0.1967
15920TIP3    H169175   3.845   2.708  11.623 -1.0497  0.8411  0.5722
15920TIP3    H269176   3.889   2.853  11.610 -0.0455  0.4232 -0.8175
15921TIP3   OH269177   2.118   6.624  11.854  0.4448 -0.2520 -0.4283
15921TIP3    H169178   2.054   6.656  11.789 -0.3697 -1.1547 -0.0831
15921TIP3    H269179   2.065   6.609  11.933  1.4422  0.9232  0.4824
15922TIP3   OH269180   1.428   6.084   5.338  0.5411 -0.0627 -0.1962
15922TIP3    H169181   1.483   6.006   5.327  0.3455 -0.2250 -0.0261
15922TIP3    H269182   1.489   6.154   5.358  0.7813 -0.0369 -0.9991
15923TIP3   OH269183   4.424   3.549  12.290  0.2266  0.4600 -0.2068
15923TIP3    H169184   4.446   3.619  12.352 -0.6813  0.4477  0.1366
15923TIP3    H269185   4.505   3.499  12.281  0.5005  0.7413  0.6109
15924TIP3   OH269186   5.430   5.245   6.225 -0.4774  0.2513 -0.0221
15924TIP3    H169187   5.370   5.183   6.268 -0.3513  0.3501  0.3011
15924TIP3    H269188   5.376   5.320   6.203 -0.5823  0.1213 -0.2013
15925TIP3   OH269189   0.152   3.908  12.576 -0.0501  0.0315  0.4575
15925TIP3    H169190   0.183   3.820  12.597  1.0337  0.2399 -0.1975
15925TIP3    H269191   0.112   3.939  12.657  0.7229 -0.5797  1.0914
15926TIP3   OH269192   0.439   2.837   2.530 -0.1469  0.5635 -0.3238
15926TIP3    H169193   0.368   2.820   2.469 -1.2643  0.9790  0.8445
15926TIP3    H269194   0.396   2.847   2.615  1.4037 -0.2214  0.5780
15927TIP3   OH269195   1.090   2.306  15.520 -0.0269 -0.4875  0.0842
15927TIP3    H169196   1.096   2.367  15.447 -0.6294 -0.8854 -0.3098
15927TIP3    H269197   1.104   2.220  15.480 -0.2111 -0.6947  0.4623
15928TIP3   OH269198   4.689   4.207   6.316  0.3292  1.0128  0.0567
15928TIP3    H169199   4.784   4.192   6.324  0.4293  2.1003  0.9138
15928TIP3    H269200   4.662   4.239   6.402 -1.2855 -1.6822  0.6039
15929TIP3   OH269201   2.741   2.472   0.690 -0.3370 -0.0035 -0.6191
15929TIP3    H169202   2.676   2.404   0.710  0.3390 -0.8174 -1.1218
15929TIP3    H269203   2.789   2.436   0.615 -0.9261  1.6840 -1.8197
15930TIP3   OH269204   5.564   1.237   2.200 -0.8470  0.1104  0.7080
15930TIP3    H169205   5.519   1.213   2.119  0.5833 -2.0273  0.4923
15930TIP3    H269206   5.610   1.318   2.179 -2.0852  0.6456 -0.0014
15931TIP3   OH269207   5.309   2.022   4.664  0.5780  0.2828 -0.2173
15931TIP3    H169208   5.279   1.996   4.577  1.1774  1.9017 -0.9335
15931TIP3    H269209   5.402   1.998   4.666  0.2072 -1.1287  0.5423
15932TIP3   OH269210   4.542   5.751   3.507 -0.0536 -0.2917 -0.2153
15932TIP3    H169211   4.509   5.781   3.422  0.0096  0.1889 -0.0686
15932TIP3    H269212   4.596   5.823   3.540 -0.6615 -0.1789  0.5608
15933TIP3   OH269213   6.498   0.559   6.105 -0.4173  0.3857  0.1180
15933TIP3    H169214   6.476   0.494   6.170 -0.9728 -0.4364 -0.8736
15933TIP3    H269215   6.414   0.591   6.072 -0.1545 -0.1073 -1.0746
15934TIP3   OH269216   1.773   4.926   3.756  0.2308  0.3435 -0.0601
15934TIP3    H169217   1.747   4.840   3.788  1.2903 -0.4293 -1.2387
15934TIP3    H269218   1.805   4.911   3.667 -1.0763  2.2018 -0.9066
15935TIP3   OH269219   0.772   1.102  16.551  0.7997  0.6592  0.3043
15935TIP3    H169220   0.790   1.037  16.619  0.6192  2.4162  2.0768
15935TIP3    H269221   0.858   1.137  16.529  0.9428 -0.4357 -0.9458
15936TIP3   OH269222   1.816   1.783  12.811 -0.4440 -0.4896  0.2589
15936TIP3    H169223   1.758   1.707  12.804  0.3251 -1.0539 -0.0209
15936TIP3    H269224   1.834   1.791  12.904  0.4963 -1.4308  0.1656
15937TIP3   OH269225   0.069   2.280   2.151  0.0860  0.1028  0.7812
15937TIP3    H169226   0.117   2.260   2.071 -1.4064  3.7539 -1.1405
15937TIP3    H269227  -0.008   2.224   2.148  1.0283 -1.1902  0.6587
15938TIP3   OH269228   4.318   3.600   5.231  0.2065 -0.3612  0.3051
15938TIP3    H169229   4.252   3.668   5.219  2.2357  1.4173 -1.2583
15938TIP3    H269230   4.271   3.518   5.219 -1.9877  0.8143  0.6682
15939TIP3   OH269231   1.086   1.647  13.456  0.0793 -0.5183  0.2288
15939TIP3    H169232   1.067   1.556  13.480 -2.1152 -0.4574 -1.0992
15939TIP3    H269233   1.015   1.670  13.396  1.6839  1.4780 -0.9252
15940TIP3   OH269234   0.697   3.891   5.676  0.3255  0.6997  0.0058
15940TIP3    H169235   0.688   3.830   5.603 -1.7516  0.2736  0.5950
15940TIP3    H269236   0.708   3.836   5.753 -2.7907  0.9539  0.7166
15941TIP3   OH269237   2.812   4.617  11.667 -0.1171  0.2410 -0.4948
15941TIP3    H169238   2.747   4.657  11.610 -0.6769 -0.2810 -0.2208
15941TIP3    H269239   2.865   4.562  11.609  0.3734  1.0144 -0.7964
15942TIP3   OH269240   4.018   1.579  16.939 -0.6761  0.2224  0.0257
15942TIP3    H169241   4.023   1.674  16.937  2.9736  0.0797 -0.7381
15942TIP3    H269242   4.010   1.557  17.031  0.6712  1.2037  0.3884
15943TIP3   OH269243   2.306   1.396  16.483  0.2497 -0.0463  0.4184
15943TIP3    H169244   2.391   1.367  16.515  0.0831 -0.7709  0.2092
15943TIP3    H269245   2.323   1.427  16.394  0.4227  0.4726  0.6312
15944TIP3   OH269246   3.840   1.459   5.825  0.1377  0.3887  0.0263
15944TIP3    H169247   3.810   1.519   5.756 -0.7243  0.1344  0.1732
15944TIP3    H269248   3.774   1.467   5.894 -0.1489 -0.9222 -0.0666
15945TIP3   OH269249   2.597   5.883   4.592 -0.3137  0.2577  0.4602
15945TIP3    H169250   2.506   5.878   4.622 -0.8740 -0.4588 -1.3184
15945TIP3    H269251   2.642   5.932   4.661 -2.2115  1.3334  0.9757
15946TIP3   OH269252   2.419   3.308  11.221  0.6942 -0.5354 -1.1208
15946TIP3    H169253   2.452   3.376  11.162  0.0617 -1.0021 -2.0125
15946TIP3    H269254   2.442   3.226  11.178  0.6294 -0.8823 -0.4946
15947TIP3   OH269255   5.546   3.111  12.008 -0.0350 -0.0839 -0.3799
15947TIP3    H169256   5.456   3.145  12.011 -0.4622 -0.7836 -3.5140
15947TIP3    H269257   5.547   3.053  11.932  2.7921 -0.9907  0.2989
15948TIP3   OH269258   3.991   4.643   4.667 -0.7977 -0.5623 -0.1864
15948TIP3    H169259   3.975   4.648   4.761 -0.3382  0.1698 -0.1376
15948TIP3    H269260   4.086   4.641   4.659 -0.7782  1.0828 -0.6843
15949TIP3   OH269261   3.770   0.030  14.008 -0.1939 -0.6540 -0.5824
15949TIP3    H169262   3.842   0.017  13.946  1.4890  0.5496  1.0530
15949TIP3    H269263   3.790  -0.029  14.081  0.2226  1.0703  0.7485
15950TIP3   OH269264   2.346   0.782   2.418 -0.4285 -0.3866 -0.0462
15950TIP3    H169265   2.441   0.769   2.419 -0.2635  0.6287 -1.8726
15950TIP3    H269266   2.310   0.694   2.432  0.7581 -0.7100  1.1464
15951TIP3   OH269267   4.210   1.495  11.262 -0.5186 -0.3070  0.2581
15951TIP3    H169268   4.293   1.512  11.306 -0.5872 -2.5055  1.3425
15951TIP3    H269269   4.229   1.420  11.205 -1.5324 -0.2202 -0.1945
15952TIP3   OH269270   2.076   0.168   2.288 -0.0547 -0.2493  0.3355
15952TIP3    H169271   1.987   0.132   2.286  0.8606 -2.5637 -1.2182
15952TIP3    H269272   2.109   0.148   2.375 -1.2144  1.0438  1.0813
15953TIP3   OH269273   6.511   6.175  12.454 -0.5085  0.7270 -0.8729
15953TIP3    H169274   6.506   6.123  12.534  2.3725 -0.3701 -1.3177
15953TIP3    H269275   6.439   6.144  12.400  0.0394 -1.5379 -0.3598
15954TIP3   OH269276   5.525   3.175  13.296 -0.0628 -0.2655 -0.2702
15954TIP3    H169277   5.561   3.107  13.353  2.7069  0.9411 -0.5257
15954TIP3    H269278   5.564   3.159  13.211 -2.2883 -0.5538 -1.2873
15955TIP3   OH269279   3.479   4.310  10.670 -0.0340 -0.2760 -0.3605
15955TIP3    H169280   3.556   4.299  10.615  1.0806  1.5810  0.7938
15955TIP3    H269281   3.496   4.389  10.721 -2.9703  0.5178 -0.5137
15956TIP3   OH269282   2.155   3.723   1.462  0.3386 -0.1191  0.6332
15956TIP3    H169283   2.228   3.669   1.493 -0.9461 -0.7025  2.7542
15956TIP3    H269284   2.111   3.669   1.396  1.1011 -0.2341  0.2097
15957TIP3   OH269285   2.617   4.252   4.601  0.4531  0.2429 -0.6532
15957TIP3    H169286   2.655   4.247   4.513  0.6738  0.6668 -0.5810
15957TIP3    H269287   2.523   4.239   4.588  0.3412  1.4708 -1.0725
15958TIP3   OH269288   6.530   3.973   0.130 -0.1195  0.1407 -0.1195
15958TIP3    H169289   6.525   4.012   0.043  0.9626  0.4375 -0.0614
15958TIP3    H269290   6.608   3.918   0.127 -1.0554 -1.2093  0.1263
15959TIP3   OH269291   0.260   1.425  11.108  0.7347  0.3836 -0.1251
15959TIP3    H169292   0.353   1.433  11.089  0.2597  0.2440 -2.6325
15959TIP3    H269293   0.218   1.493  11.055 -0.7747 -0.9591 -0.6858
15960TIP3   OH269294   5.595   0.433   1.772  0.4071  0.7387  0.2475
15960TIP3    H169295   5.575   0.464   1.860 -0.9892  1.5154 -0.3318
15960TIP3    H269296   5.530   0.364   1.756 -0.2230  1.5325 -0.6836
15961TIP3   OH269297   4.721   5.908   3.101 -0.0655  0.0810  0.3348
15961TIP3    H169298   4.726   5.875   3.011 -0.1481 -0.5169  0.5516
15961TIP3    H269299   4.647   5.969   3.099 -2.4331 -2.6962  0.8838
15962TIP3   OH269300   3.432   2.386   3.387 -0.3372  0.0216  0.4363
15962TIP3    H169301   3.502   2.370   3.450 -1.7783 -0.3891  1.9435
15962TIP3    H269302   3.357   2.412   3.440 -1.4451  0.0881 -1.1427
15963TIP3   OH269303   5.115   5.063  13.910  0.1337  0.1872 -0.1670
15963TIP3    H169304   5.170   5.126  13.956 -1.0626  1.1297 -0.0285
15963TIP3    H269305   5.129   4.981  13.957  2.1613  0.1739 -0.7149
15964TIP3   OH269306   4.135   6.632  13.287 -0.4824  0.0756 -0.2316
15964TIP3    H169307   4.064   6.636  13.351 -1.2090 -0.7925 -0.9599
15964TIP3    H269308   4.180   6.550  13.308 -0.8262 -0.2927 -0.9417
15965TIP3   OH269309   6.160   1.341  15.846  0.1306 -0.1286  0.3810
15965TIP3    H169310   6.145   1.435  15.843  0.8779 -0.0054  0.2921
15965TIP3    H269311   6.123   1.313  15.929 -0.8511  0.1047  0.0210
15966TIP3   OH269312   2.969   2.238  11.784  0.0130  0.2866 -0.2007
15966TIP3    H169313   2.947   2.325  11.819  1.5442  0.3272  0.6842
15966TIP3    H269314   2.888   2.188  11.792 -0.3923  1.1059  0.8954
15967TIP3   OH269315   4.187   1.387   5.717  0.4858  0.3502 -0.3869
15967TIP3    H169316   4.261   1.360   5.772  1.6869  2.4365 -0.9086
15967TIP3    H269317   4.228   1.418   5.636 -1.0322  0.6854 -1.0372
15968TIP3   OH269318   6.483   3.982  15.373  0.0816  0.5481  0.7172
15968TIP3    H169319   6.404   3.930  15.356  0.1574  0.0723  1.7704
15968TIP3    H269320   6.520   3.998  15.287 -0.9660  0.4533  0.2362
15969TIP3   OH269321   3.569   2.927  13.832  0.2755 -0.3173 -0.4266
15969TIP3    H169322   3.487   2.911  13.878  0.7693 -0.9024  0.2624
15969TIP3    H269323   3.613   2.842  13.831  1.7869  0.4043  1.0241
15970TIP3   OH269324   4.870   1.886  12.336 -0.3866 -1.0209 -0.0010
15970TIP3    H169325   4.787   1.931  12.355  0.0814  0.0059 -0.3475
15970TIP3    H269326   4.887   1.906  12.244  1.3929  0.6745  0.6698
15971TIP3   OH269327   4.183   4.407  17.097 -0.1785  0.0080  0.3424
15971TIP3    H169328   4.107   4.420  17.154  0.8953 -0.5516  1.9456
15971TIP3    H269329   4.254   4.381  17.157  0.8815 -0.9720 -1.2996
15972TIP3   OH269330   2.072   0.005  17.169  0.0424  0.2016  0.0181
15972TIP3    H169331   2.048   0.074  17.231 -2.2831 -2.0734  1.7473
15972TIP3    H269332   2.025   0.027  17.089  0.4771  1.3864  0.0757
15973TIP3   OH269333   2.274   2.931   5.025 -0.0991  0.2137 -0.1731
15973TIP3    H169334   2.309   2.879   5.098 -0.8300  0.6369  0.4859
15973TIP3    H269335   2.338   3.002   5.015 -1.5893  1.9593  2.1609
15974TIP3   OH269336   5.049   0.115  13.672 -0.7094  0.1806 -0.3599
15974TIP3    H169337   5.113   0.076  13.731  0.0806  0.0861 -1.2659
15974TIP3    H269338   5.022   0.043  13.616 -0.6052  0.5244 -0.8510
15975TIP3   OH269339   1.048   0.465  16.365 -0.2370  0.0496 -0.1622
15975TIP3    H169340   1.141   0.441  16.364 -0.6487 -1.7422  1.2943
15975TIP3    H269341   1.047   0.559  16.348  1.8335  0.0587 -0.3504
15976TIP3   OH269342   3.003   0.146   2.511 -0.6416  0.6662  0.3465
15976TIP3    H169343   2.933   0.203   2.542  1.1715  0.9361  4.1780
15976TIP3    H269344   2.992   0.065   2.561  0.7645  0.0907 -0.2440
15977TIP3   OH269345   2.207   0.399   0.259  0.0650  0.2260  0.1910
15977TIP3    H169346   2.177   0.490   0.266 -0.1742 -0.0275  3.2325
15977TIP3    H269347   2.280   0.393   0.321 -0.1620 -1.7479  0.3025
15978TIP3   OH269348   5.624   0.244  14.246 -1.2606 -0.2012  0.2422
15978TIP3    H169349   5.673   0.236  14.328 -0.7593  0.1188 -0.0241
15978TIP3    H269350   5.634   0.336  14.221 -1.9894 -0.1341  0.1776
15979TIP3   OH269351   2.126   1.782   4.037 -0.5037  0.6044 -0.3933
15979TIP3    H169352   2.201   1.825   4.079 -0.3238  1.4996 -1.6025
15979TIP3    H269353   2.149   1.689   4.038  0.0329  0.7385  0.4180
15980TIP3   OH269354   5.692   6.640   5.095 -0.3530 -0.0930  0.4473
15980TIP3    H169355   5.738   6.722   5.081 -0.8277  0.1962  0.5696
15980TIP3    H269356   5.760   6.579   5.125 -0.2726  0.6578  1.8178
15981TIP3   OH269357   6.401   4.599  13.727 -0.3382  0.2759  0.2155
15981TIP3    H169358   6.374   4.614  13.637 -0.6586  1.3407  0.4765
15981TIP3    H269359   6.443   4.514  13.726  3.4691  2.0614 -1.7815
15982TIP3   OH269360   6.573   6.473  16.494 -0.6343 -0.1443 -0.6754
15982TIP3    H169361   6.584   6.381  16.520 -0.9395  0.5363  1.9835
15982TIP3    H269362   6.659   6.499  16.462  0.6881 -0.1408  2.6940
15983TIP3   OH269363   2.280   0.180  16.084 -0.1093  0.4933  0.1147
15983TIP3    H169364   2.236   0.266  16.090 -0.7537  0.2852 -1.3798
15983TIP3    H269365   2.343   0.181  16.156  1.3711  3.0821 -1.1342
15984TIP3   OH269366   2.415   2.192  13.512 -0.3612 -0.4941  0.3329
15984TIP3    H169367   2.412   2.285  13.532  0.1786 -0.2955 -0.5194
15984TIP3    H269368   2.485   2.158  13.568  2.0387  0.2975 -2.0984
15985TIP3   OH269369   4.997   0.707   4.072  0.3683  0.5821 -0.0502
15985TIP3    H169370   4.973   0.617   4.047 -1.4462  0.9239  0.3922
15985TIP3    H269371   5.060   0.696   4.143  0.3546 -0.3582 -0.1781
15986TIP3   OH269372   0.015   3.644  13.099  0.4140  0.3984 -0.0061
15986TIP3    H169373   0.022   3.727  13.147 -0.8797  1.1592 -1.1173
15986TIP3    H269374   0.093   3.642  13.044  0.2963  1.0199 -0.1995
15987TIP3   OH269375   5.410   5.787  13.650 -0.4070 -0.3980  0.2237
15987TIP3    H169376   5.472   5.727  13.691 -0.7283 -1.1251 -0.3441
15987TIP3    H269377   5.331   5.735  13.638 -1.6326  0.9164  2.2632
15988TIP3   OH269378   5.498   2.602   0.325  0.1265  0.2574 -0.4938
15988TIP3    H169379   5.456   2.679   0.285  1.5848  1.1865 -0.2572
15988TIP3    H269380   5.458   2.595   0.412  0.6964  1.3387 -0.1400
15989TIP3   OH269381   3.329   5.924  14.694 -0.1582 -0.2603  0.3252
15989TIP3    H169382   3.335   5.834  14.727 -0.3372 -1.3246 -2.4083
15989TIP3    H269383   3.328   5.978  14.772 -0.4329 -2.6677  2.0418
15990TIP3   OH269384   1.335   5.056   2.374 -0.1392 -0.1200 -0.1784
15990TIP3    H169385   1.288   5.059   2.458  0.7783  1.6625  0.2915
15990TIP3    H269386   1.427   5.051   2.398  0.0522 -1.2794 -1.1036
15991TIP3   OH269387   4.341   0.384  11.443  0.2565  0.3959 -0.0686
15991TIP3    H169388   4.352   0.452  11.377  0.5821 -0.5224 -0.9805
15991TIP3    H269389   4.420   0.389  11.496 -0.7148  2.1851  1.2597
15992TIP3   OH269390   6.506   0.926  12.304  0.0201  0.4268  0.0491
15992TIP3    H169391   6.506   0.834  12.276  1.1845  0.8207 -1.3446
15992TIP3    H269392   6.413   0.948  12.315 -0.4492 -0.0950 -2.5055
15993TIP3   OH269393   6.403   0.969   4.392  0.1265  0.3013 -0.1746
15993TIP3    H169394   6.338   0.901   4.376  0.3755  0.1840 -0.6994
15993TIP3    H269395   6.423   1.004   4.306  0.3360  0.7313  0.0447
15994TIP3   OH269396   5.475   0.336  16.097  0.2865 -0.2380 -0.1496
15994TIP3    H169397   5.508   0.249  16.118 -0.0301 -0.5281 -0.8507
15994TIP3    H269398   5.415   0.322  16.024 -1.4788  0.2704  1.1583
15995TIP3   OH269399   6.780   0.962  16.668  0.4929  0.1068 -0.6636
15995TIP3    H169400   6.711   1.013  16.625  1.5158  1.3593 -0.8569
15995TIP3    H269401   6.794   0.887  16.611  0.6582  0.8808 -1.6605
15996TIP3   OH269402   3.818   1.217  11.718  0.0515 -0.2694 -0.0510
15996TIP3    H169403   3.834   1.259  11.633 -1.0517  1.0723  0.3718
15996TIP3    H269404   3.886   1.150  11.725  0.5211 -0.0017 -1.7266
15997TIP3   OH269405   6.350   5.146  15.909  0.1988  0.0150  0.0357
15997TIP3    H169406   6.268   5.124  15.866  1.0649 -0.6833 -1.2906
15997TIP3    H269407   6.362   5.078  15.975  0.2724 -0.5393 -0.5419
15998TIP3   OH269408   1.266   4.992   2.616  0.1214 -0.1259  0.3750
15998TIP3    H169409   1.186   4.997   2.668  0.8298  0.8475  1.4010
15998TIP3    H269410   1.279   4.898   2.600 -0.4024 -0.3929  1.4936
15999TIP3   OH269411   6.206   4.638  13.214 -0.2565 -0.1627 -0.7038
15999TIP3    H169412   6.120   4.645  13.256 -0.2184  0.2363 -0.6911
15999TIP3    H269413   6.269   4.646  13.286 -0.1943  0.3532 -0.8132
16000TIP3   OH269414   2.741   2.418   5.011 -0.5744 -0.3044  0.6846
16000TIP3    H169415   2.692   2.425   5.093  1.1956  1.6852  1.6285
16000TIP3    H269416   2.780   2.505   5.000 -0.6007 -0.6183 -2.1652
16001TIP3   OH269417   1.676   1.231  14.854 -0.0615 -0.0473  0.5849
16001TIP3    H169418   1.753   1.173  14.859  1.6500  2.1129  0.2376
16001TIP3    H269419   1.683   1.285  14.933 -0.9165  0.5545  0.2429
16002TIP3   OH269420   1.464   3.530   5.300  0.0778  0.6591  0.5181
16002TIP3    H169421   1.406   3.536   5.376 -1.3027 -0.3827 -0.4351
16002TIP3    H269422   1.548   3.502   5.337 -0.6502 -0.1060  1.6388
16003TIP3   OH269423   6.508   5.160   0.170 -0.3008  0.1058  0.0794
16003TIP3    H169424   6.426   5.204   0.148 -0.0914 -0.1845 -1.3685
16003TIP3    H269425   6.577   5.221   0.142 -0.0255 -0.0731  0.3664
16004TIP3   OH269426   0.891   2.987  14.000  0.1585  0.1495  0.2101
16004TIP3    H169427   0.842   2.908  13.977  1.0364 -0.5200  0.6284
16004TIP3    H269428   0.870   3.049  13.930  0.7701 -1.0039 -1.0207
16005TIP3   OH269429   1.641   5.720  12.509 -0.0023 -0.9159 -0.2230
16005TIP3    H169430   1.576   5.782  12.543 -0.4294 -1.5988  0.2155
16005TIP3    H269431   1.595   5.637  12.503  1.1060 -1.6441  1.0786
16006TIP3   OH269432   5.858   0.238   4.792 -0.4592 -0.1598 -0.3978
16006TIP3    H169433   5.939   0.288   4.786 -1.2993  1.2782 -0.1113
16006TIP3    H269434   5.862   0.177   4.719 -0.4669  1.9504 -2.2101
16007TIP3   OH269435   6.616   0.558  11.197 -0.1777  0.3820  0.3974
16007TIP3    H169436   6.577   0.471  11.190  2.7293 -1.0850  1.4878
16007TIP3    H269437   6.590   0.589  11.284 -1.3260  0.6935 -0.0449
16008TIP3   OH269438   4.043   4.852  13.036  0.5184 -0.1030  0.5759
16008TIP3    H169439   4.047   4.809  13.121 -1.4218 -2.3724 -0.4370
16008TIP3    H269440   4.128   4.897  13.028  1.9078 -2.2854  2.4402
16009TIP3   OH269441   4.429   1.642   3.174  0.7570  0.3793 -0.0848
16009TIP3    H169442   4.480   1.562   3.159  2.3569  1.5310 -0.8929
16009TIP3    H269443   4.485   1.697   3.229  0.7127  1.9650 -1.5868
16010TIP3   OH269444   5.767   1.250   1.708 -0.4107  0.2318  0.2084
16010TIP3    H169445   5.714   1.273   1.631  0.8407  0.2637 -0.6680
16010TIP3    H269446   5.748   1.157   1.723 -1.3205  0.4451  0.3932
16011TIP3   OH269447   2.248   5.702  17.187  0.1929  0.1598  0.0211
16011TIP3    H169448   2.257   5.706  17.091  1.5645  1.5088  0.1825
16011TIP3    H269449   2.292   5.781  17.218  0.9173 -0.9339  1.8418
16012TIP3   OH269450   2.562   4.750   3.043 -0.7908 -0.2822  0.4111
16012TIP3    H169451   2.519   4.683   2.990  1.2248 -1.3792  0.1396
16012TIP3    H269452   2.547   4.723   3.133 -1.1980 -0.3244  0.3310
16013TIP3   OH269453   2.578   3.382   4.035 -0.6311  0.0088 -0.1921
16013TIP3    H169454   2.557   3.289   4.034  1.2880 -0.4545 -2.6276
16013TIP3    H269455   2.562   3.411   3.945 -3.2628  2.5583  1.0131
16014TIP3   OH269456   4.903   4.451  17.154 -0.1155  0.0574 -0.0577
16014TIP3    H169457   4.991   4.488  17.152 -0.1561  0.0856 -2.6942
16014TIP3    H269458   4.845   4.527  17.146 -0.4036  0.0285  1.5470
16015TIP3   OH269459   6.129   6.294   3.337 -0.2264  0.6051 -0.5116
16015TIP3    H169460   6.206   6.281   3.281  1.5679  2.0537  1.5541
16015TIP3    H269461   6.128   6.388   3.354 -2.6712  0.6538 -0.7536
16016TIP3   OH269462   1.837   1.771   4.105 -0.0934 -0.8207  0.1585
16016TIP3    H169463   1.917   1.751   4.056 -0.1604 -1.1990  0.2030
16016TIP3    H269464   1.823   1.695   4.162  0.5501  0.0799  1.5309
16017TIP3   OH269465   5.290   2.752  12.860 -0.1435 -0.4485  0.4682
16017TIP3    H169466   5.280   2.790  12.773  2.7668 -0.8821 -0.1172
16017TIP3    H269467   5.298   2.658  12.845  2.2896 -0.3671  0.9705
16018TIP3   OH269468   2.832   2.132   5.620 -0.4140  0.2786  0.6832
16018TIP3    H169469   2.806   2.042   5.604  0.0824 -0.1306  2.1720
16018TIP3    H269470   2.808   2.178   5.539  1.6992 -1.6798 -1.1295
16019TIP3   OH269471   2.882   1.507   0.731 -0.3166  0.0062 -0.2226
16019TIP3    H169472   2.830   1.577   0.691 -0.9834  0.4590  1.3884
16019TIP3    H269473   2.956   1.552   0.772 -0.8386 -0.2005  0.9686
16020TIP3   OH269474   4.035   2.726  15.184 -0.0659  0.2235  1.0847
16020TIP3    H169475   3.985   2.738  15.264  1.4117  2.5833  1.6729
16020TIP3    H269476   3.982   2.767  15.116 -0.2935  0.1146  1.1947
16021TIP3   OH269477   4.100   5.982  14.978  0.7444 -0.2833  0.0086
16021TIP3    H169478   4.157   5.957  14.905  1.3491 -1.3337  0.8237
16021TIP3    H269479   4.142   6.059  15.016  0.0568  0.6893 -1.1669
16022TIP3   OH269480   4.278   0.733  16.062  0.0064  0.2392  0.1421
16022TIP3    H169481   4.264   0.652  16.013 -1.7686  0.8819 -0.4547
16022TIP3    H269482   4.311   0.794  15.997 -1.7680  0.9183 -0.1452
16023TIP3   OH269483   2.681   5.655  15.086 -0.6630  0.4399  0.9144
16023TIP3    H169484   2.705   5.643  15.178  0.7382  0.3065  0.5493
16023TIP3    H269485   2.740   5.724  15.055  0.1930 -0.8504 -0.3853
16024TIP3   OH269486   4.012   2.888   1.241 -0.2489  0.1652 -0.2566
16024TIP3    H169487   4.052   2.879   1.155  0.3249  0.4649 -0.0215
16024TIP3    H269488   4.013   2.799   1.277  0.0462  0.1412 -0.3229
16025TIP3   OH269489   2.371   6.050  12.658  0.1359 -0.6697 -0.3834
16025TIP3    H169490   2.285   6.073  12.622  0.4061  0.5817 -0.2489
16025TIP3    H269491   2.361   6.061  12.753  0.2115 -1.3172 -0.2976
16026TIP3   OH269492   3.861   5.887  10.830  0.4971  0.6145 -0.2467
16026TIP3    H169493   3.879   5.801  10.793 -0.1927 -0.1588  1.1742
16026TIP3    H269494   3.945   5.932  10.830  1.3660 -0.9685  1.3000
16027TIP3   OH269495   2.141   3.901  15.791  0.3682  0.4942 -0.2821
16027TIP3    H169496   2.104   3.983  15.759  0.1474  0.3097 -0.5035
16027TIP3    H269497   2.085   3.833  15.754 -0.4726  0.3173  1.2961
16028TIP3   OH269498   2.053   0.984   5.091  0.1596  0.1057  0.8279
16028TIP3    H169499   2.147   0.971   5.100  0.1914 -1.6221 -1.5176
16028TIP3    H269500   2.017   0.895   5.091 -1.3120  0.6825  0.2629
16029TIP3   OH269501   3.065   5.625   3.673 -0.4245  0.3810 -0.5543
16029TIP3    H169502   3.108   5.541   3.654 -2.3049 -0.6273 -0.5550
16029TIP3    H269503   2.987   5.600   3.722 -0.1186  2.2998  0.9282
16030TIP3   OH269504   0.918   6.553   0.805 -0.1658  0.5002  0.4544
16030TIP3    H169505   0.860   6.591   0.739  0.0185  0.5336  0.3116
16030TIP3    H269506   0.861   6.494   0.855 -0.2456  0.2533  0.0813
16031TIP3   OH269507   1.620   6.411   2.488 -0.3496 -0.1166  0.3443
16031TIP3    H169508   1.671   6.422   2.569  0.6788  2.2161 -0.5944
16031TIP3    H269509   1.533   6.444   2.509 -0.5078 -0.9022  0.9344
16032TIP3   OH269510   6.116   2.696  14.240  0.1456  0.1539  0.5407
16032TIP3    H169511   6.153   2.608  14.230 -1.4787 -0.6742  1.5717
16032TIP3    H269512   6.137   2.722  14.329  0.0361  0.5321  0.4592
16033TIP3   OH269513   4.245   6.385  13.328 -0.3263  0.4638 -0.0561
16033TIP3    H169514   4.317   6.322  13.318 -1.1574 -0.4713 -0.1850
16033TIP3    H269515   4.192   6.350  13.399 -0.8139  1.0102 -0.1470
16034TIP3   OH269516   1.391   1.602   2.393 -0.2863  0.2245  0.1855
16034TIP3    H169517   1.484   1.601   2.413 -0.0721  0.3194 -0.7522
16034TIP3    H269518   1.365   1.693   2.405 -0.6371 -0.1018  2.0532
16035TIP3   OH269519   5.806   5.540   3.425  0.2375 -0.2498 -0.5429
16035TIP3    H169520   5.874   5.473   3.424 -0.7345 -1.2467 -0.9261
16035TIP3    H269521   5.726   5.492   3.447 -0.1813  1.0676  0.8351
16036TIP3   OH269522   4.669   6.181   1.698 -0.0437 -0.0869 -0.2332
16036TIP3    H169523   4.665   6.142   1.611  2.0192  1.0353 -0.8466
16036TIP3    H269524   4.750   6.147   1.736 -0.2528  0.4904  0.7476
16037TIP3   OH269525   2.857   0.038   0.138  0.3911  0.5667  0.0067
16037TIP3    H169526   2.788   0.104   0.137 -0.6415 -0.4958  0.2731
16037TIP3    H269527   2.871   0.016   0.046  0.5707  0.9665 -0.0660
16038TIP3   OH269528   1.079   1.879   1.614  0.0524 -0.2804  0.1173
16038TIP3    H169529   1.083   1.795   1.660  0.0549  0.3645  1.2842
16038TIP3    H269530   1.164   1.887   1.571 -0.0021 -0.9446 -0.1216
16039TIP3   OH269531   0.356   5.092   5.343 -0.2265  0.4225 -0.0641
16039TIP3    H169532   0.308   5.064   5.421  0.4489 -2.9611 -0.7707
16039TIP3    H269533   0.318   5.040   5.272  2.9963 -0.7797 -0.9958
16040TIP3   OH269534   0.961   2.046  11.293 -0.4540 -0.8304  0.8192
16040TIP3    H169535   1.049   2.007  11.298  0.1702 -0.0690 -2.5585
16040TIP3    H269536   0.971   2.132  11.334  0.1149 -1.1607  1.3847
16041TIP3   OH269537   3.342   3.589  13.868  0.4396  0.0550  0.0312
16041TIP3    H169538   3.387   3.573  13.785  1.6463  0.2236  0.6408
16041TIP3    H269539   3.304   3.676  13.857  0.1211 -0.1528 -0.5507
16042TIP3   OH269540   6.592   5.291   3.584 -0.3039 -0.2069 -0.1224
16042TIP3    H169541   6.547   5.358   3.635  0.4276  0.7210 -0.6785
16042TIP3    H269542   6.536   5.213   3.592 -0.3193 -0.0141  1.8682
16043TIP3   OH269543   4.066   5.751   3.630 -0.0247 -0.1286  0.0419
16043TIP3    H169544   4.094   5.717   3.545 -0.7560 -0.5860 -0.0233
16043TIP3    H269545   4.006   5.684   3.664 -1.2945  0.9763  0.0192
16044TIP3   OH269546   5.376   4.026  12.512  0.1683  0.4074 -0.4003
16044TIP3    H169547   5.386   4.121  12.525  1.3914  0.1090  0.9359
16044TIP3    H269548   5.384   3.989  12.600  1.0275 -1.0502 -1.0854
16045TIP3   OH269549   6.057   4.127   1.927  0.0951  0.4229  0.1103
16045TIP3    H169550   6.092   4.041   1.905  2.0558  1.4498 -0.8553
16045TIP3    H269551   6.082   4.183   1.854 -1.8820  1.6403  0.3358
16046TIP3   OH269552   5.965   3.526   5.159  0.4632  0.2938  0.2893
16046TIP3    H169553   5.941   3.455   5.101 -1.0704  1.4686 -0.5530
16046TIP3    H269554   6.028   3.579   5.109  0.7269  0.1683  0.4840
16047TIP3   OH269555   3.047   5.381  12.015  0.2019  0.7618 -0.5450
16047TIP3    H169556   3.028   5.292  12.047 -1.2052  1.5360  0.8260
16047TIP3    H269557   3.141   5.392  12.033 -0.0711  0.3322  1.3105
16048TIP3   OH269558   5.446   0.739   2.536  0.0362 -0.7974 -0.1458
16048TIP3    H169559   5.363   0.783   2.555  1.5572  1.1330  2.2214
16048TIP3    H269560   5.423   0.646   2.532 -1.8211 -0.5492  3.1396
16049TIP3   OH269561   4.947   4.288   6.601 -0.3400  0.3722  0.4312
16049TIP3    H169562   4.969   4.267   6.511 -0.8035  1.2515  0.1079
16049TIP3    H269563   4.956   4.205   6.648  0.8998  0.1319 -0.2186
16050TIP3   OH269564   0.659   3.420  14.259  0.0309 -0.2435 -0.1906
16050TIP3    H169565   0.593   3.432  14.327  0.5270  0.3834  0.1870
16050TIP3    H269566   0.633   3.339  14.215 -1.3691  0.3440 -0.4804
16051TIP3   OH269567   4.195   4.138  10.937 -0.0623 -0.0117 -0.0838
16051TIP3    H169568   4.227   4.107  10.852 -0.0813  0.0080 -0.0977
16051TIP3    H269569   4.241   4.221  10.951  0.9788 -0.6851  0.5654
16052TIP3   OH269570   6.098   4.988  11.950 -0.1523  0.1342 -0.5762
16052TIP3    H169571   6.036   4.916  11.943 -0.1140  0.0433 -0.0077
16052TIP3    H269572   6.046   5.061  11.983  0.2477 -0.2253  0.8904
16053TIP3   OH269573   0.050   0.106  11.960  0.4640 -0.4655 -0.4519
16053TIP3    H169574   0.043   0.015  11.988 -1.8634 -0.5075 -1.0164
16053TIP3    H269575   0.071   0.154  12.040  1.3984 -1.4611 -0.0957
16054TIP3   OH269576   1.189   1.215  13.896 -0.4265 -0.6278  0.0939
16054TIP3    H169577   1.126   1.284  13.918  0.9407  0.3392  1.0498
16054TIP3    H269578   1.136   1.135  13.891 -1.6997  0.1371  1.1013
16055TIP3   OH269579   5.145   0.883   0.785  0.1571 -0.2596  0.0098
16055TIP3    H169580   5.153   0.978   0.778 -0.8319 -0.1839 -0.0813
16055TIP3    H269581   5.236   0.852   0.791  0.5144  0.6336 -0.6665
16056TIP3   OH269582   6.699   3.377  12.601 -0.2224  0.9209  0.8723
16056TIP3    H169583   6.766   3.413  12.659 -0.9886  0.8055  1.8441
16056TIP3    H269584   6.634   3.339  12.660 -0.3263 -0.4458 -0.0889
16057TIP3   OH269585   3.041   4.161   0.146  0.2031 -1.0554 -0.1834
16057TIP3    H169586   3.046   4.256   0.135  0.5547 -0.9915  0.4663
16057TIP3    H269587   3.033   4.126   0.058 -3.8027 -0.2136 -0.2447
16058TIP3   OH269588   6.636   5.794  15.916  0.2571 -0.1513  0.2425
16058TIP3    H169589   6.603   5.739  15.845 -0.0457  0.1330  0.1622
16058TIP3    H269590   6.569   5.861  15.928 -0.4649 -1.1130  1.8465
16059TIP3   OH269591   2.893   5.896  15.071  0.2265  0.5938  0.5116
16059TIP3    H169592   2.931   5.983  15.080  0.6671  0.6724 -1.7387
16059TIP3    H269593   2.955   5.848  15.015 -0.8688 -0.6081  0.2877
16060TIP3   OH269594   5.413   4.725  11.822 -0.1703 -0.2429  0.8057
16060TIP3    H169595   5.346   4.673  11.779 -0.6176  0.7478  0.2898
16060TIP3    H269596   5.377   4.813  11.825  1.2240  0.3645  0.2417
16061TIP3   OH269597   5.731   3.999   1.291 -0.2235  0.1468 -0.3175
16061TIP3    H169598   5.811   3.950   1.275  1.3975  2.5253  0.2489
16061TIP3    H269599   5.746   4.084   1.251 -0.5618  2.2881  3.8306
16062TIP3   OH269600   1.117   2.150  14.449  0.8970  0.4754 -0.6077
16062TIP3    H169601   1.035   2.117  14.412  0.1235  2.2113 -0.4501
16062TIP3    H269602   1.183   2.129  14.383 -0.0506  1.1980 -1.7971
16063TIP3   OH269603   0.540   6.685   5.648  0.0379 -0.4895  0.1658
16063TIP3    H169604   0.617   6.742   5.643 -1.3572  1.6384  2.0212
16063TIP3    H269605   0.469   6.736   5.609 -0.9548 -1.4571  0.6552
16064TIP3   OH269606   3.893   2.412  15.094 -1.0485 -0.3437  0.1181
16064TIP3    H169607   3.834   2.488  15.096 -0.4956  0.0498  3.4147
16064TIP3    H269608   3.904   2.388  15.186  1.4524 -2.3690 -0.6769
16065TIP3   OH269609   1.882   4.696   5.270 -0.1548 -0.1001 -0.5807
16065TIP3    H169610   1.855   4.615   5.313  0.1117 -0.5664 -1.2901
16065TIP3    H269611   1.961   4.672   5.222 -0.5631  0.3750 -1.4933
16066TIP3   OH269612   3.784   2.655  12.417  0.1006  0.1502 -0.4868
16066TIP3    H169613   3.711   2.594  12.423  1.1922 -1.0718  0.8510
16066TIP3    H269614   3.755   2.732  12.467 -0.7520  0.1910 -1.0310
16067TIP3   OH269615   3.678   0.938  14.160 -0.0618  0.4014 -0.0988
16067TIP3    H169616   3.769   0.933  14.132 -0.6785  0.4406 -2.2159
16067TIP3    H269617   3.656   0.849  14.187  0.4794  0.3145  0.0541
16068TIP3   OH269618   2.088   5.397  14.986  0.1933 -0.3564  0.1731
16068TIP3    H169619   1.993   5.407  14.986  0.1971  0.4446 -3.0355
16068TIP3    H269620   2.110   5.377  14.895  3.3205  2.0998  0.2625
16069TIP3   OH269621   3.226   2.993   3.008  0.6774  0.5184 -0.1144
16069TIP3    H169622   3.158   3.002   2.941  0.8713 -0.5595 -0.4666
16069TIP3    H269623   3.301   3.040   2.972  0.3255  1.1701 -0.0089
16070TIP3   OH269624   1.616   0.733   1.386 -0.3361 -0.4276  0.2580
16070TIP3    H169625   1.676   0.743   1.460 -0.3516 -2.5875  0.5920
16070TIP3    H269626   1.561   0.811   1.390 -0.2994 -0.4676  2.5174
16071TIP3   OH269627   6.526   3.097  14.125  0.4049 -0.2841 -0.2382
16071TIP3    H169628   6.465   3.158  14.167  1.3021  0.7006 -0.3189
16071TIP3    H269629   6.605   3.102  14.179  1.8950  1.6763 -2.4797
16072TIP3   OH269630   1.563   0.974   3.303 -0.3395  0.3234 -0.3584
16072TIP3    H169631   1.470   0.951   3.293 -0.9354  0.9784  2.9223
16072TIP3    H269632   1.576   0.975   3.398  3.3265 -0.8702 -0.7872
16073TIP3   OH269633   0.214   6.070  16.695 -0.1194  0.3828 -0.3489
16073TIP3    H169634   0.219   6.063  16.600  0.7413  1.7851 -0.4143
16073TIP3    H269635   0.305   6.077  16.723 -0.2951 -1.1597  0.6800
16074TIP3   OH269636   5.875   3.951  17.187 -0.3366 -0.0551 -0.5189
16074TIP3    H169637   5.792   3.969  17.231  0.5723  2.4522  0.2719
16074TIP3    H269638   5.895   4.032  17.140  2.6620  0.1581  0.9959
16075TIP3   OH269639   3.017   0.813   3.720 -0.2044 -0.0648 -0.0727
16075TIP3    H169640   3.083   0.750   3.749  0.7749  0.9211 -0.1334
16075TIP3    H269641   2.964   0.830   3.798  2.9311  3.2241  1.5251
16076TIP3   OH269642   1.936   4.854  14.400  0.4344 -0.1630 -0.9649
16076TIP3    H169643   1.905   4.895  14.480  0.8759 -1.4631 -0.1097
16076TIP3    H269644   1.869   4.789  14.378  0.1311  0.4346 -1.8681
16077TIP3   OH269645   2.952   1.365  13.586 -0.1411  0.2100  0.2512
16077TIP3    H169646   2.996   1.341  13.667  0.5274  1.5400  0.2901
16077TIP3    H269647   2.859   1.352  13.605  0.0872 -0.6388  0.8270
16078TIP3   OH269648   6.530   2.527  15.480  0.7047 -0.4291 -0.1177
16078TIP3    H169649   6.494   2.613  15.502  0.1454 -0.8075  0.4740
16078TIP3    H269650   6.624   2.542  15.471  0.6025  0.2571 -0.0754
16079TIP3   OH269651   3.752   5.047  14.084  0.6148  0.1607  0.1931
16079TIP3    H169652   3.716   5.061  14.172 -1.4421  0.2397 -0.6144
16079TIP3    H269653   3.826   5.107  14.078 -0.6588  1.8623  1.0594
16080TIP3   OH269654   6.361   1.417   6.138 -0.0847 -0.1579 -0.3911
16080TIP3    H169655   6.341   1.384   6.051 -2.2628  1.6296 -0.6186
16080TIP3    H269656   6.390   1.340   6.187 -2.0962 -1.8328 -1.7457
16081TIP3   OH269657   2.588   5.842   5.252 -0.6990 -0.1621  0.1195
16081TIP3    H169658   2.583   5.890   5.334  0.4822  0.1190  0.0208
16081TIP3    H269659   2.681   5.840   5.230 -0.7696 -2.1411 -0.0765
16082TIP3   OH269660   6.309   2.057   4.318 -0.1079  0.3633 -0.0445
16082TIP3    H169661   6.326   1.992   4.387 -1.0007  0.8843  0.6701
16082TIP3    H269662   6.214   2.065   4.315 -0.0395  0.9726 -0.7699
16083TIP3   OH269663   3.176   4.908   6.101  0.1349  0.2660  0.1621
16083TIP3    H169664   3.200   4.986   6.051 -0.5818  0.0744 -0.5045
16083TIP3    H269665   3.150   4.844   6.034  0.1866 -0.3558  0.7283
16084TIP3   OH269666   5.807   5.678  13.113 -0.4261  0.1343  0.4524
16084TIP3    H169667   5.732   5.671  13.053 -0.1100 -2.9756  0.3556
16084TIP3    H269668   5.783   5.623  13.187  0.8371  0.9279  1.4683
16085TIP3   OH269669   3.709   0.844   0.439 -0.8159  0.8092  0.0978
16085TIP3    H169670   3.640   0.835   0.372 -0.4936 -1.5815  0.0359
16085TIP3    H269671   3.675   0.798   0.515 -0.4704  2.0873  1.0414
16086TIP3   OH269672   4.786   2.306   4.189  0.2066 -0.6538  0.1013
16086TIP3    H169673   4.819   2.390   4.158  3.3894 -1.5616  0.8592
16086TIP3    H269674   4.747   2.326   4.274  0.7252  0.1117  0.1641
16087TIP3   OH269675   3.620   4.879   1.499  0.4757 -0.4979 -0.4515
16087TIP3    H169676   3.620   4.953   1.438 -1.3143 -1.1454 -1.2654
16087TIP3    H269677   3.704   4.836   1.484  1.0041  0.6645 -0.8525
16088TIP3   OH269678   4.113   5.740   4.689  0.2227  0.2171  0.7865
16088TIP3    H169679   4.115   5.835   4.695  2.9961  0.1731  1.1186
16088TIP3    H269680   4.061   5.722   4.611  1.5706  2.0907 -0.5915
16089TIP3   OH269681   4.428   3.858  14.984 -0.9420 -0.2069  0.3360
16089TIP3    H169682   4.496   3.793  14.963 -2.8120 -1.6430 -1.6281
16089TIP3    H269683   4.468   3.942  14.963  0.3666 -0.9988 -0.4669
16090TIP3   OH269684   3.259   0.791   1.009  0.4825 -0.2823  0.1610
16090TIP3    H169685   3.244   0.883   1.030  0.4433 -0.3314  0.3533
16090TIP3    H269686   3.318   0.760   1.079  0.6524 -0.3520 -0.0131
16091TIP3   OH269687   4.312   0.345   2.699  0.2639 -0.2356 -0.7523
16091TIP3    H169688   4.268   0.354   2.783  1.7734  0.1881 -0.0001
16091TIP3    H269689   4.246   0.372   2.635 -1.0662 -1.0567  0.2365
16092TIP3   OH269690   6.224   1.923  13.531  0.7599  0.7977  0.0490
16092TIP3    H169691   6.249   2.000  13.582 -0.0841  1.1604 -0.0860
16092TIP3    H269692   6.128   1.921  13.536  0.8447 -1.0810  1.2843
16093TIP3   OH269693   6.088   1.140  13.922 -0.0716 -0.1469  0.0648
16093TIP3    H169694   6.103   1.155  13.829  0.2876 -1.3698 -0.0674
16093TIP3    H269695   5.995   1.161  13.934  0.4178  2.2844 -0.1035
16094TIP3   OH269696   4.738   3.741  11.874 -0.3413 -0.3481 -0.8664
16094TIP3    H169697   4.676   3.706  11.811 -1.0146  0.9779 -0.9702
16094TIP3    H269698   4.683   3.790  11.936  0.3208 -1.4755  0.6538
16095TIP3   OH269699   5.954   4.729  14.905 -0.5823  0.3715  0.1703
16095TIP3    H169700   6.024   4.775  14.858 -1.0666  1.3309  0.3921
16095TIP3    H269701   5.873   4.763  14.867 -0.9434 -0.2706  0.3576
16096TIP3   OH269702   6.732   6.448  16.034 -0.2601 -0.2474  0.7654
16096TIP3    H169703   6.726   6.494  16.118 -0.0880  1.7187 -0.2888
16096TIP3    H269704   6.809   6.485  15.992  0.8890 -2.7443  0.6117
16097TIP3   OH269705   5.894   3.994   4.684 -0.1011  0.2184  0.5521
16097TIP3    H169706   5.801   3.974   4.696 -0.2339  0.9900  0.8510
16097TIP3    H269707   5.914   3.963   4.596 -0.6019 -0.0911  0.5442
16098TIP3   OH269708   4.867   2.019   2.626  0.1831  0.3630 -0.1886
16098TIP3    H169709   4.800   1.985   2.566  0.9264  1.5855 -1.7522
16098TIP3    H269710   4.818   2.075   2.686 -0.2568  1.0812 -1.1911
16099TIP3   OH269711   1.233   5.936   2.808  0.5760  0.0025  0.4129
16099TIP3    H169712   1.157   5.879   2.794  1.2577 -1.2687  1.7628
16099TIP3    H269713   1.202   6.023   2.783 -0.4713 -0.9371 -1.7348
16100TIP3   OH269714   5.877   4.290   3.956  0.4932  0.4257 -0.0192
16100TIP3    H169715   5.942   4.360   3.946  0.6824  0.5934  2.1163
16100TIP3    H269716   5.868   4.279   4.051  0.8539 -2.7893 -0.2938
16101TIP3   OH269717   4.895   0.845  13.041  0.2789 -0.3096  0.1526
16101TIP3    H169718   4.986   0.873  13.048  0.6758 -1.5140 -0.1095
16101TIP3    H269719   4.871   0.865  12.950  0.5071 -0.6347  0.0181
16102TIP3   OH269720   1.970   2.915   2.881 -0.4053  0.1580 -0.3252
16102TIP3    H169721   2.009   2.981   2.938  0.2507 -1.0521  0.6547
16102TIP3    H269722   1.997   2.940   2.793 -0.4803  1.4038 -0.0086
16103TIP3   OH269723   5.260   5.104   5.714  0.1660  0.2208  0.6557
16103TIP3    H169724   5.338   5.048   5.720  0.0380 -0.0692 -0.4324
16103TIP3    H269725   5.187   5.043   5.704  0.0366  0.5806 -0.6487
16104TIP3   OH269726   6.058   5.829   5.102 -0.1977  0.2623  0.4794
16104TIP3    H169727   6.070   5.816   5.197  0.0425  0.3285  0.4582
16104TIP3    H269728   6.051   5.740   5.067  0.4813  0.2158  0.4597
16105TIP3   OH269729   4.895   3.347   0.612  0.1668 -0.3366  0.1119
16105TIP3    H169730   4.847   3.427   0.632  0.1955 -0.2635 -0.1163
16105TIP3    H269731   4.828   3.280   0.599  0.1658 -0.5557  1.1938
16106TIP3   OH269732   2.333   4.925   2.428  0.2030  0.2179  0.1292
16106TIP3    H169733   2.258   4.930   2.487  0.1004  0.3247 -0.0095
16106TIP3    H269734   2.355   5.016   2.410 -0.9022  0.1848 -1.4413
16107TIP3   OH269735   3.466   6.105   4.270  0.0273  0.3352  0.5790
16107TIP3    H169736   3.525   6.037   4.239 -0.2731 -0.7725  2.3719
16107TIP3    H269737   3.378   6.072   4.250 -0.0499  2.0953 -2.3224
16108TIP3   OH269738   6.663   5.933  13.549 -0.4435 -0.1727  0.3323
16108TIP3    H169739   6.583   5.917  13.499  0.1726  0.3909 -0.8367
16108TIP3    H269740   6.680   6.026  13.539  0.9520 -0.4835 -0.3285
16109TIP3   OH269741   6.318   1.191   1.671  0.6056  0.1307  0.1093
16109TIP3    H169742   6.278   1.223   1.752 -1.5552 -1.3531 -0.3191
16109TIP3    H269743   6.289   1.100   1.664  4.0213 -0.9936 -0.3185
16110TIP3   OH269744   2.538   2.232   5.834  0.1359  0.2675  0.2345
16110TIP3    H169745   2.499   2.147   5.815  0.9382  0.2895 -1.6781
16110TIP3    H269746   2.550   2.233   5.929  1.2386 -2.2603  0.1644
16111TIP3   OH269747   2.591   6.390   5.750 -0.2645  0.3517 -0.3600
16111TIP3    H169748   2.636   6.362   5.830 -0.5899 -0.6126 -0.5075
16111TIP3    H269749   2.608   6.319   5.688  0.1074  1.1589 -1.1971
16112TIP3   OH269750   3.076   4.661   5.444 -0.0650 -0.2722 -0.2406
16112TIP3    H169751   3.100   4.653   5.536 -0.6654 -0.4502 -0.0946
16112TIP3    H269752   3.057   4.572   5.416  2.0745 -0.4815 -1.0921
16113TIP3   OH269753   1.249   1.117   2.410  0.7528  0.0738  0.4610
16113TIP3    H169754   1.179   1.052   2.402  2.0108 -1.2912  0.1564
16113TIP3    H269755   1.229   1.183   2.344  0.5134 -1.0431 -0.5971
16114TIP3   OH269756   2.922   6.253   1.923 -0.1386  0.3307 -0.6298
16114TIP3    H169757   2.967   6.176   1.957 -1.8792 -0.5171 -0.2303
16114TIP3    H269758   2.902   6.305   2.001  3.1447  2.4163 -1.0573
16115TIP3   OH269759   2.765   5.099   1.369  0.6762 -0.5516 -0.3443
16115TIP3    H169760   2.828   5.081   1.299 -1.3282 -0.3375 -2.2457
16115TIP3    H269761   2.758   5.195   1.370  1.6914 -0.4662  1.0968
16116TIP3   OH269762   6.726   3.066  14.307  0.1469  0.0989  0.4414
16116TIP3    H169763   6.677   3.050  14.388  1.1588  1.4105  1.3457
16116TIP3    H269764   6.818   3.068  14.335  0.3565  3.2412 -0.2413
16117TIP3   OH269765   5.869   0.535   5.811  0.3067  0.0803  0.4248
16117TIP3    H169766   5.816   0.576   5.742 -0.5516  2.5815  2.4889
16117TIP3    H269767   5.820   0.457   5.835 -0.8504  0.7098  0.1597
16118TIP3   OH269768   1.559   2.517   6.779 -0.5851 -0.0112 -0.4327
16118TIP3    H169769   1.476   2.564   6.786  0.1085  1.2008 -0.2089
16118TIP3    H269770   1.626   2.585   6.785  0.4976 -1.2044  1.7749
16119TIP3   OH269771   5.216   4.805   1.054  0.3604 -0.2340 -0.2664
16119TIP3    H169772   5.264   4.888   1.047 -0.3455  0.1566 -0.6534
16119TIP3    H269773   5.138   4.827   1.106 -0.9575 -0.1163 -2.2406
16120TIP3   OH269774   0.767   2.736   2.832  0.0827  0.3562 -0.3869
16120TIP3    H169775   0.826   2.663   2.813 -1.5170 -1.0760  0.1155
16120TIP3    H269776   0.716   2.748   2.752 -0.3277  0.2972 -0.1353
16121TIP3   OH269777   1.167   3.433  10.510  0.5904 -0.1147  0.2797
16121TIP3    H169778   1.097   3.412  10.449  0.5234  1.0281 -0.0451
16121TIP3    H269779   1.177   3.354  10.563  0.9425 -1.2785 -1.4772
16122TIP3   OH269780   3.917   3.327   5.910 -0.5267  0.0931  0.4831
16122TIP3    H169781   3.934   3.241   5.948  0.0243  0.7362  1.7070
16122TIP3    H269782   3.824   3.343   5.929 -0.2248  0.4632  1.6713
16123TIP3   OH269783   3.529   4.697  16.332 -0.0946 -0.3885  0.1375
16123TIP3    H169784   3.585   4.620  16.334  0.7629  0.2440  0.8208
16123TIP3    H269785   3.452   4.672  16.384  0.1248 -0.8171  0.2556
16124TIP3   OH269786   0.618   6.697  11.485 -0.5859  0.0247 -0.0541
16124TIP3    H169787   0.691   6.703  11.547  0.1729  0.3604 -0.9819
16124TIP3    H269788   0.592   6.788  11.470  0.2421  0.0544 -1.4125
16125TIP3   OH269789   5.763   0.473  11.620 -0.2310  0.0330 -0.2536
16125TIP3    H169790   5.824   0.494  11.690 -0.9930 -3.1559  1.5024
16125TIP3    H269791   5.802   0.398  11.576 -0.6210  0.9140 -2.1451
16126TIP3   OH269792   4.234   0.889  13.216 -0.4318 -0.6314 -0.7494
16126TIP3    H169793   4.285   0.966  13.191 -0.9771 -0.8335 -2.5387
16126TIP3    H269794   4.153   0.925  13.251  0.0136 -0.3730  0.0568
16127TIP3   OH269795   1.925   1.356  16.312 -0.6365 -0.0111 -0.0747
16127TIP3    H169796   1.963   1.403  16.386  0.5825  1.6326 -1.6881
16127TIP3    H269797   1.924   1.420  16.241 -1.0381 -1.7753 -1.7088
16128TIP3   OH269798   2.844   6.067  16.738 -0.3679 -0.1713  0.2315
16128TIP3    H169799   2.876   6.035  16.654  0.4360 -0.4220  0.6207
16128TIP3    H269800   2.921   6.066  16.795 -1.2354 -1.5038  1.4116
16129TIP3   OH269801   6.345   1.107  14.020  0.3459  0.0385  0.0476
16129TIP3    H169802   6.288   1.104  13.944 -0.2682  0.5423  0.4737
16129TIP3    H269803   6.418   1.050  13.999 -0.3207 -0.6089 -0.5086
16130TIP3   OH269804   3.116   5.705   0.821  0.4462  0.3797 -0.8380
16130TIP3    H169805   3.039   5.668   0.779 -0.0409 -1.1783  1.3353
16130TIP3    H269806   3.160   5.630   0.862  2.6225  1.3711 -1.2796
16131TIP3   OH269807   2.522   5.606   3.683 -0.7558  0.0893 -0.0428
16131TIP3    H169808   2.532   5.652   3.600 -1.2932  1.2876  0.5503
16131TIP3    H269809   2.589   5.643   3.740 -2.1278  1.1811  0.8830
16132TIP3   OH269810   3.074   3.026   4.732 -0.1106  0.5256  0.0480
16132TIP3    H169811   3.145   2.966   4.752  0.6789  1.3279 -0.3398
16132TIP3    H269812   3.069   3.084   4.807  1.8041  2.5274 -1.3235
16133TIP3   OH269813   0.435   6.105   1.536  0.3233 -0.2045  0.2422
16133TIP3    H169814   0.490   6.097   1.458 -3.6456 -2.1058 -2.5472
16133TIP3    H269815   0.387   6.022   1.539 -1.3101  0.8093  3.3687
16134TIP3   OH269816   0.390   0.363   0.925  0.2884 -0.1933 -0.2274
16134TIP3    H169817   0.414   0.452   0.949  0.7138 -1.3396  3.8966
16134TIP3    H269818   0.453   0.339   0.857  2.4212  1.3840  1.1508
16135TIP3   OH269819   0.590   6.002  12.118 -0.4942  0.3500 -0.6466
16135TIP3    H169820   0.601   6.091  12.085  0.5952  0.6438  0.4785
16135TIP3    H269821   0.620   6.006  12.209 -2.4260 -0.6773  0.0776
16136TIP3   OH269822   6.145   2.585  16.814  0.0509  0.8022 -0.4454
16136TIP3    H169823   6.206   2.629  16.755  1.0726  0.1680  0.1287
16136TIP3    H269824   6.122   2.651  16.878  1.8024  0.4481  0.5762
16137TIP3   OH269825   4.680   1.901  14.822  0.5501 -0.4110  0.5705
16137TIP3    H169826   4.645   1.984  14.790 -1.0529 -1.3490 -0.1875
16137TIP3    H269827   4.772   1.902  14.795 -0.2427 -0.2529 -2.2756
16138TIP3   OH269828   6.054   6.707   3.745 -0.1200  0.0561  0.3995
16138TIP3    H169829   6.012   6.650   3.810 -1.1662  1.9461  1.4139
16138TIP3    H269830   5.985   6.727   3.682 -0.0545  1.0765  0.6439
16139TIP3   OH269831   0.868   0.822   3.839 -0.0100 -0.0837  0.1172
16139TIP3    H169832   0.861   0.859   3.751  1.3732 -0.7770 -0.3005
16139TIP3    H269833   0.832   0.734   3.831  2.7283 -1.2096 -0.4691
16140TIP3   OH269834   1.550   0.879  16.634 -0.4035  0.6190 -0.0888
16140TIP3    H169835   1.625   0.826  16.660 -0.7801 -0.0264 -0.2932
16140TIP3    H269836   1.583   0.968  16.631  0.2999  0.3657  0.0325
16141TIP3   OH269837   0.634   5.513   0.255  0.5469 -0.5471 -0.5407
16141TIP3    H169838   0.547   5.483   0.230  0.6339 -0.4766 -0.9204
16141TIP3    H269839   0.679   5.434   0.285 -0.7705 -0.0821  2.9389
16142TIP3   OH269840   3.841   2.861   4.863  0.3588 -0.0452 -0.6669
16142TIP3    H169841   3.895   2.866   4.942 -0.8781  0.2032  0.1817
16142TIP3    H269842   3.804   2.949   4.854 -0.5196 -0.4163 -0.7852
16143TIP3   OH269843   4.904   3.072   2.648  0.3075  0.1596 -0.1077
16143TIP3    H169844   4.954   3.145   2.610  0.7533 -1.0104 -1.8107
16143TIP3    H269845   4.966   2.999   2.650  0.7277  0.4912  4.1510
16144TIP3   OH269846   1.965   5.838   2.361  0.4995 -0.0962 -0.5396
16144TIP3    H169847   1.895   5.830   2.296  0.5848 -0.8475 -0.5364
16144TIP3    H269848   1.983   5.748   2.389  1.5097  0.0892 -0.5885
16145TIP3   OH269849   5.401   2.054  16.396 -0.6226  0.3636  0.1031
16145TIP3    H169850   5.306   2.057  16.384 -0.6874 -0.8833  0.2267
16145TIP3    H269851   5.430   1.988  16.332 -0.0771 -0.7070  1.4357
16146TIP3   OH269852   6.750   5.088  11.250  0.0936  1.0281 -0.5807
16146TIP3    H169853   6.704   5.172  11.241 -1.3005 -0.0323 -4.0331
16146TIP3    H269854   6.808   5.084  11.174 -0.6862 -1.6096 -1.0848
16147TIP3   OH269855   5.188   1.915   4.006 -1.3469  0.1739 -0.3898
16147TIP3    H169856   5.230   1.983   3.953 -0.7389 -0.2546 -0.4665
16147TIP3    H269857   5.098   1.945   4.016 -1.0637  1.0276 -0.3563
16148TIP3   OH269858   1.849   0.786  14.434  0.4324  0.1455 -0.2061
16148TIP3    H169859   1.768   0.755  14.394  0.8798 -0.2264 -0.8353
16148TIP3    H269860   1.916   0.770  14.368  0.9369  0.9496  0.0947
16149TIP3   OH269861   2.719   0.116  11.356  0.1055  0.9335 -0.0128
16149TIP3    H169862   2.748   0.198  11.396  0.0568 -0.3954  2.8372
16149TIP3    H269863   2.625   0.113  11.374 -0.1643  0.8783 -1.3374
16150TIP3   OH269864   6.379   2.575   0.992 -0.7175  0.2430 -0.0501
16150TIP3    H169865   6.376   2.648   1.054 -0.8226 -0.4118  0.7105
16150TIP3    H269866   6.471   2.550   0.989 -0.6062  0.6943 -0.6597
16151TIP3   OH269867   5.223   2.795   1.243 -0.1168 -0.2808  0.0039
16151TIP3    H169868   5.315   2.808   1.265  0.0611  2.8324 -2.1494
16151TIP3    H269869   5.175   2.853   1.302 -0.4601  0.2608 -0.7996
16152TIP3   OH269870   0.371   1.064   1.344  0.7736 -0.4427 -0.5071
16152TIP3    H169871   0.376   1.116   1.425 -1.6793 -0.6113 -0.2130
16152TIP3    H269872   0.280   1.032   1.342  0.5044  0.4320 -3.8577
16153TIP3   OH269873   3.451   6.025  14.962  0.2218  0.5236  0.1107
16153TIP3    H169874   3.481   6.105  14.919 -0.1364 -0.1407 -1.4020
16153TIP3    H269875   3.503   6.020  15.043  0.7135  1.9175 -0.1079
16154TIP3   OH269876   0.538   4.895   2.880 -0.4188  0.2235 -0.4829
16154TIP3    H169877   0.452   4.936   2.876  0.5465  2.2854 -0.6750
16154TIP3    H269878   0.600   4.967   2.870  1.3316 -1.3331 -1.3127
16155TIP3   OH269879   2.631   0.426   2.800 -0.5643 -0.6190 -0.4110
16155TIP3    H169880   2.603   0.343   2.836 -1.2673 -0.0340  0.3911
16155TIP3    H269881   2.551   0.468   2.769 -0.5520  0.8726  1.5195
16156TIP3   OH269882   1.580   0.274  16.300  0.5338 -0.5844 -0.6401
16156TIP3    H169883   1.653   0.216  16.324  0.2404 -1.1928 -1.2125
16156TIP3    H269884   1.606   0.311  16.216  0.7507  0.1677 -0.2454
16157TIP3   OH269885   2.039   3.458  12.973 -0.2224  0.2998 -0.5213
16157TIP3    H169886   2.061   3.551  12.966  0.0053  0.4386  1.5608
16157TIP3    H269887   1.950   3.457  13.008 -0.2663 -0.2685 -0.6449
16158TIP3   OH269888   0.945   3.842   0.360 -0.4534  0.4817 -0.0406
16158TIP3    H169889   0.919   3.828   0.451  1.2337  1.1788  0.5768
16158TIP3    H269890   0.869   3.883   0.319 -1.1973  0.2269  1.0694
16159TIP3   OH269891   1.514   1.360   0.700  0.0152  0.2685  0.3386
16159TIP3    H169892   1.553   1.380   0.615  0.5813 -0.3153  0.4545
16159TIP3    H269893   1.571   1.292   0.737 -1.9260 -1.6600 -0.1026
16160TIP3   OH269894   0.840   5.778  15.525 -0.0172 -0.0825 -0.3171
16160TIP3    H169895   0.807   5.726  15.599 -0.5446 -0.7130 -0.9796
16160TIP3    H269896   0.761   5.815  15.485  0.3318  0.9415 -0.0691
16161TIP3   OH269897   3.141   1.238  17.138 -0.6669  0.4283  0.1863
16161TIP3    H169898   3.202   1.167  17.118 -1.1787  0.1394 -0.3598
16161TIP3    H269899   3.101   1.211  17.221 -2.4263 -1.0022 -1.0718
16162TIP3   OH269900   6.721   2.246  15.510 -0.0402 -0.4036  0.1181
16162TIP3    H169901   6.671   2.277  15.586  0.4960 -0.4408  0.4945
16162TIP3    H269902   6.811   2.274  15.528 -0.0363  0.2352 -0.8661
16163TIP3   OH269903   3.509   0.717   1.916  0.4118 -0.1732  0.0121
16163TIP3    H169904   3.556   0.798   1.933  1.1634 -0.5249 -0.3884
16163TIP3    H269905   3.532   0.694   1.826 -0.7267 -0.2091 -0.2767
16164TIP3   OH269906   2.630   5.720  11.919  0.2827  0.3212  0.3848
16164TIP3    H169907   2.562   5.673  11.870  0.0658 -0.4918  1.4493
16164TIP3    H269908   2.708   5.665  11.910  0.0189 -0.2816  1.6648
16165TIP3   OH269909   5.865   4.367  16.995  0.2402 -0.1556  0.0441
16165TIP3    H169910   5.823   4.375  16.909  0.8881  0.4845 -0.2201
16165TIP3    H269911   5.806   4.411  17.055  0.5393  0.7845 -0.3358
16166TIP3   OH269912   2.361   5.714   5.497  0.1228 -0.4728  0.9738
16166TIP3    H169913   2.436   5.772   5.513  0.0953 -0.1583  0.0325
16166TIP3    H269914   2.288   5.757   5.542  0.1076  0.2265  0.2981
16167TIP3   OH269915   2.955   5.336  13.690  0.2434 -0.1036 -1.1603
16167TIP3    H169916   3.000   5.251  13.684  0.1591 -0.2227 -0.1867
16167TIP3    H269917   2.998   5.390  13.624  1.6598 -0.2929 -0.4308
16168TIP3   OH269918   3.033   3.637  11.890 -0.5646 -0.0991 -0.0469
16168TIP3    H169919   3.090   3.697  11.841 -2.6405  1.3247 -0.8107
16168TIP3    H269920   2.944   3.661  11.862 -1.5612 -1.9702  1.4257
16169TIP3   OH269921   3.354   5.043  11.322  0.3558  0.3500 -0.7540
16169TIP3    H169922   3.314   5.128  11.305  1.1416  0.7786 -0.4903
16169TIP3    H269923   3.297   5.002  11.387  0.2328  0.8701 -0.5322
16170TIP3   OH269924   6.100   3.862  15.530 -0.3495  0.0669 -0.2455
16170TIP3    H169925   6.183   3.887  15.572 -1.2202  0.9010  1.0224
16170TIP3    H269926   6.036   3.866  15.601 -1.8932  1.5569 -1.6856
16171TIP3   OH269927   2.476   5.576  11.243  0.1235  0.2226  0.1770
16171TIP3    H169928   2.432   5.609  11.165 -4.0107 -4.9432  0.0743
16171TIP3    H269929   2.566   5.558  11.215 -0.6157  0.7918 -2.6825
16172TIP3   OH269930   1.335   0.979   0.635 -0.1206 -0.5941 -0.0451
16172TIP3    H169931   1.363   1.027   0.557  0.3205  0.9169  1.0279
16172TIP3    H269932   1.240   0.971   0.625  0.0560 -1.3345 -1.2421
16173TIP3   OH269933   0.612   1.151  15.963 -0.7321 -0.0676 -0.4184
16173TIP3    H169934   0.650   1.087  16.023 -3.8566 -1.1562  0.4674
16173TIP3    H269935   0.653   1.234  15.989  0.7766 -1.1255  0.7009
16174TIP3   OH269936   4.814   3.200  11.483 -0.1191  0.3019  0.1543
16174TIP3    H169937   4.860   3.247  11.553 -0.9162  2.2877 -0.6040
16174TIP3    H269938   4.842   3.109  11.492  0.3416  0.6566  2.6009
16175TIP3   OH269939   3.366   1.097   0.372 -0.1724 -0.2136  0.5058
16175TIP3    H169940   3.277   1.132   0.366 -0.0140  0.1974  0.5520
16175TIP3    H269941   3.356   1.015   0.420 -1.0011 -1.8648 -2.3402
16176TIP3   OH269942   3.450   0.292  14.274 -0.4010 -0.0337 -0.2701
16176TIP3    H169943   3.389   0.363  14.252 -0.3171  0.4977  1.1852
16176TIP3    H269944   3.416   0.216  14.225 -0.2380  1.0935 -2.1961
16177TIP3   OH269945   2.562   3.706  11.195  0.1462 -0.1623  0.3809
16177TIP3    H169946   2.479   3.666  11.220  0.5422 -0.9931  0.3747
16177TIP3    H269947   2.558   3.712  11.100 -0.3525  0.7870  0.4565
16178TIP3   OH269948   1.305   0.253  11.254 -0.5833 -0.8489  0.2506
16178TIP3    H169949   1.215   0.227  11.235 -1.1287  0.4853  0.9074
16178TIP3    H269950   1.327   0.206  11.335 -1.2684  0.0731  0.9805
16179TIP3   OH269951   6.566   4.803   4.595 -0.2883 -0.7567  0.1526
16179TIP3    H169952   6.471   4.814   4.594 -0.1308  1.0488  1.2871
16179TIP3    H269953   6.595   4.840   4.512 -0.3885  1.0958  0.9125
16180TIP3   OH269954   0.978   4.785   5.050 -0.0527 -0.9965 -0.1130
16180TIP3    H169955   1.019   4.700   5.036  0.3404 -0.7666 -0.3420
16180TIP3    H269956   0.956   4.786   5.144  1.4657 -0.6742  0.2467
16181TIP3   OH269957   1.448   6.771  15.610  0.6175 -0.1368  0.5928
16181TIP3    H169958   1.371   6.800  15.659  1.1709  1.6899  0.4174
16181TIP3    H269959   1.503   6.727  15.675 -0.5975 -1.4992  0.7040
16182TIP3   OH269960   4.300   5.894  12.346 -0.1904  0.2347 -0.0671
16182TIP3    H169961   4.381   5.946  12.351  1.9506 -2.5480 -3.2612
16182TIP3    H269962   4.238   5.950  12.300  0.9305  1.3292 -0.2772
16183TIP3   OH269963   3.984   3.895   6.052 -0.3298  0.2291 -0.4423
16183TIP3    H169964   3.971   3.967   6.113 -0.1632  0.7006 -0.9645
16183TIP3    H269965   3.909   3.837   6.066  0.0318  0.0181  0.6506
16184TIP3   OH269966   3.424   3.291  11.485  0.7614  0.0612 -0.0011
16184TIP3    H169967   3.497   3.279  11.547 -1.8241 -2.3965  2.7314
16184TIP3    H269968   3.355   3.333  11.537  0.0890  2.1890 -2.4966
16185TIP3   OH269969   0.755   5.041  14.789  0.1394 -0.2195 -0.3586
16185TIP3    H169970   0.753   4.961  14.736 -0.3825 -0.1052 -0.5080
16185TIP3    H269971   0.848   5.061  14.798  0.3056 -1.2108  0.2214
16186TIP3   OH269972   1.904   1.531  14.093 -0.1069  0.0133 -0.5149
16186TIP3    H169973   1.958   1.598  14.050 -2.0414  2.8325  1.3246
16186TIP3    H269974   1.929   1.536  14.185 -1.5813 -0.5188 -0.0841
16187TIP3   OH269975   2.541   4.814   0.006  0.4754 -0.0947  0.1340
16187TIP3    H169976   2.632   4.788  -0.005  0.5757  0.5494 -0.5777
16187TIP3    H269977   2.542   4.910   0.006 -0.0663 -0.0778  1.2612
16188TIP3   OH269978   3.042   0.233   5.686 -0.0257 -1.2365  0.2308
16188TIP3    H169979   3.073   0.242   5.776  2.0610  1.2210 -0.6572
16188TIP3    H269980   3.106   0.281   5.633 -2.8097 -0.0114 -2.2392
16189TIP3   OH269981   4.615   3.954   1.592  0.0296 -0.2439  0.1096
16189TIP3    H169982   4.700   3.910   1.603  0.3609  0.3617  0.0315
16189TIP3    H269983   4.615   3.982   1.500  0.7115  1.7127  0.6821
16190TIP3   OH269984   6.155   1.051  10.958  0.1444  0.3448 -0.4094
16190TIP3    H169985   6.126   1.141  10.970  0.8193  0.4715  0.3519
16190TIP3    H269986   6.249   1.054  10.975 -0.2355 -0.9407  2.1334
16191TIP3   OH269987   1.115   3.040  16.682  0.3937  0.3425  0.4558
16191TIP3    H169988   1.179   3.018  16.614  0.2331 -0.7188  0.6469
16191TIP3    H269989   1.034   3.055  16.634  0.3299 -0.1973  0.3985
16192TIP3   OH269990   5.799   1.148  11.012  0.0909 -0.4542 -0.8484
16192TIP3    H169991   5.774   1.057  10.998  3.0031 -1.2632 -1.2350
16192TIP3    H269992   5.877   1.143  11.068 -0.4736  1.8827  0.2440
16193TIP3   OH269993   3.303   5.383   2.485  0.3379 -0.1497  0.5360
16193TIP3    H169994   3.351   5.395   2.403  0.5798  0.4901  0.7679
16193TIP3    H269995   3.211   5.386   2.460  0.3604  2.4677  0.5888
16194TIP3   OH269996   0.166   3.480  12.780 -0.1456 -0.1359  0.4453
16194TIP3    H169997   0.134   3.569  12.794  1.8282  0.6969 -0.1403
16194TIP3    H269998   0.182   3.446  12.868  0.2136  0.5068  0.6327
16195TIP3   OH269999   3.243   0.765   6.242 -0.1824 -0.2459 -0.1852
16195TIP3    H170000   3.277   0.790   6.157  1.4614  0.6538  0.7144
16195TIP3    H270001   3.189   0.688   6.225  1.2147 -0.8792 -1.8442
16196TIP3   OH270002   2.996   3.078   1.805 -0.0801 -0.3946 -0.6370
16196TIP3    H170003   3.076   3.093   1.754  0.2617 -0.8582 -0.2465
16196TIP3    H270004   3.011   2.994   1.848 -0.6654 -0.3463 -0.3359
16197TIP3   OH270005   5.268   3.559   3.452  0.3525 -0.2813  0.1470
16197TIP3    H170006   5.201   3.497   3.481 -0.1131  1.2305  2.4002
16197TIP3    H270007   5.222   3.618   3.393  1.1736 -3.0183 -3.4134
16198TIP3   OH270008   5.343   1.112   1.219 -0.4202 -0.2957  0.1716
16198TIP3    H170009   5.295   1.082   1.141  0.7540 -3.3103  0.5605
16198TIP3    H270010   5.418   1.160   1.184 -1.0754  0.2618 -0.4973
16199TIP3   OH270011   3.706   5.222  11.983  0.0310  0.0163  0.0092
16199TIP3    H170012   3.774   5.220  11.916 -0.2697  3.3313 -0.5104
16199TIP3    H270013   3.750   5.194  12.063  1.2793 -0.6038 -0.8748
16200TIP3   OH270014   5.905   3.210   5.397 -0.3422 -0.5330  0.0329
16200TIP3    H170015   5.978   3.272   5.387 -0.4067  0.0209  2.6216
16200TIP3    H270016   5.871   3.198   5.309  1.0229  1.5034 -0.7954
16201TIP3   OH270017   5.186   6.022   3.325  0.0044  0.5241 -0.6871
16201TIP3    H170018   5.208   6.115   3.331 -0.5607  0.6212 -0.0677
16201TIP3    H270019   5.271   5.977   3.321  0.2646  1.1517 -2.5310
16202TIP3   OH270020   6.543   4.668   1.588 -0.1919  0.8738  0.4298
16202TIP3    H170021   6.459   4.654   1.544 -0.3797  0.0292  1.0315
16202TIP3    H270022   6.581   4.581   1.595 -0.3814  0.9238  2.3482
16203TIP3   OH270023   2.018   4.849   0.853 -0.2993 -0.1067  1.1758
16203TIP3    H170024   1.976   4.765   0.837  1.3439 -1.0516  1.7074
16203TIP3    H270025   2.006   4.864   0.947  0.2108 -0.1888  1.2526
16204TIP3   OH270026   1.110   3.455   3.491  0.1769 -0.3167 -0.6051
16204TIP3    H170027   1.123   3.484   3.581 -0.4457 -1.5699 -0.0874
16204TIP3    H270028   1.197   3.461   3.451  0.3910  0.5560 -0.0189
16205TIP3   OH270029   2.768   4.202   5.999  0.1754 -0.7758 -0.5424
16205TIP3    H170030   2.859   4.189   6.028  0.0014  1.0887  0.9453
16205TIP3    H270031   2.722   4.124   6.030  1.0413 -1.2567 -0.4218
16206TIP3   OH270032   0.725   4.753   3.006  0.4878 -0.2018  0.1817
16206TIP3    H170033   0.644   4.792   2.974  1.2884  0.2723 -1.2816
16206TIP3    H270034   0.726   4.774   3.100 -0.6187  0.5954  0.0197
16207TIP3   OH270035   3.761   1.448   3.150 -0.4409  0.1757  0.5277
16207TIP3    H170036   3.701   1.521   3.166 -0.1999  0.5800 -0.4090
16207TIP3    H270037   3.817   1.478   3.079  1.0162 -0.1260  1.5374
16208TIP3   OH270038   0.733   1.358  16.275 -0.9348  0.2825  0.2527
16208TIP3    H170039   0.823   1.329  16.292 -0.8775  0.2738 -0.0581
16208TIP3    H270040   0.730   1.447  16.310 -0.0495  1.2434 -2.0087
16209TIP3   OH270041   0.203   2.766   0.627 -0.0356 -0.0952  0.2545
16209TIP3    H170042   0.260   2.842   0.638  0.0517  0.3200 -2.6915
16209TIP3    H270043   0.237   2.722   0.549 -0.7244 -2.6084  1.3123
16210TIP3   OH270044   0.952   4.459   5.321  0.1398 -0.1362 -0.0336
16210TIP3    H170045   0.973   4.529   5.383 -1.5798  1.3180 -1.0536
16210TIP3    H270046   0.860   4.441   5.336 -0.1425 -0.1825 -1.7410
16211TIP3   OH270047   4.446   3.030  11.794  0.5745  0.2650  0.4315
16211TIP3    H170048   4.540   3.038  11.775  0.9727 -2.9284  0.8973
16211TIP3    H270049   4.409   2.991  11.715 -0.5414  2.2817 -0.0743
16212TIP3   OH270050   6.492   5.902  16.587  0.2984 -0.1298 -0.0238
16212TIP3    H170051   6.587   5.896  16.598  0.5134  0.2909 -1.4788
16212TIP3    H270052   6.464   5.813  16.564  0.3294 -0.2709  0.4886
16213TIP3   OH270053   4.145   0.190  15.415 -0.2192  0.2028 -0.0301
16213TIP3    H170054   4.051   0.185  15.401  0.1187 -3.6111 -1.4916
16213TIP3    H270055   4.178   0.237  15.339 -0.6365 -1.4917 -1.2928
16214TIP3   OH270056   1.282   1.263   2.876  0.3598 -0.4938  0.0229
16214TIP3    H170057   1.293   1.357   2.859  1.8049 -0.7643 -0.6037
16214TIP3    H270058   1.360   1.238   2.924 -0.1877 -1.3202  0.5026
16215TIP3   OH270059   4.105   0.261  15.894 -0.9968  0.1321 -0.3791
16215TIP3    H170060   4.160   0.242  15.818 -2.2677  1.3205 -1.6283
16215TIP3    H270061   4.154   0.327  15.943  1.6995 -3.4606  2.0248
16216TIP3   OH270062   0.973   6.261  14.244 -0.3467  0.1653  0.2993
16216TIP3    H170063   1.002   6.314  14.169 -0.0769  0.5273  0.6591
16216TIP3    H270064   0.925   6.188  14.204 -0.4829  0.5307 -0.2121
16217TIP3   OH270065   6.118   3.163  17.045  0.1195  0.3710  0.9462
16217TIP3    H170066   6.177   3.200  17.111  1.6216  0.3671 -0.3928
16217TIP3    H270067   6.080   3.240  17.002  0.5114  0.3578  0.5840
16218TIP3   OH270068   4.371   1.428  13.573  0.2008  0.1285  0.1805
16218TIP3    H170069   4.346   1.339  13.598  2.3142 -0.6486 -0.3717
16218TIP3    H270070   4.425   1.416  13.494  1.7897  1.7417  0.9862
16219TIP3   OH270071   6.502   1.822   3.745 -0.1076 -0.4309 -0.4671
16219TIP3    H170072   6.546   1.906   3.729  0.6367 -0.8435 -0.6216
16219TIP3    H270073   6.559   1.757   3.704  1.9513 -1.5824  3.9638
16220TIP3   OH270074   0.138   0.242   3.138  0.3316  0.4080  0.3099
16220TIP3    H170075   0.209   0.285   3.090  2.2663 -2.4992  0.4717
16220TIP3    H270076   0.127   0.158   3.094 -2.8699  0.7141  0.4516
16221TIP3   OH270077   4.919   2.515  12.866  0.7430 -0.3889 -0.3196
16221TIP3    H170078   4.897   2.575  12.938  0.8444 -0.2714 -0.3858
16221TIP3    H270079   5.014   2.519  12.860  0.8104 -1.1765  0.2030
16222TIP3   OH270080   2.713   4.982   2.572 -0.0330 -0.5863 -0.0572
16222TIP3    H170081   2.699   5.073   2.598 -2.6051 -0.6074 -1.2014
16222TIP3    H270082   2.788   4.984   2.513 -0.0300  0.7852 -0.0182
16223TIP3   OH270083   1.379   5.468   0.355 -0.0900 -0.0606 -0.0208
16223TIP3    H170084   1.440   5.401   0.324 -0.0007  0.4520 -0.9635
16223TIP3    H270085   1.301   5.455   0.301 -1.2133 -1.3706  1.8550
16224TIP3   OH270086   6.017   3.565  11.871  0.4497 -0.3996  0.2844
16224TIP3    H170087   6.032   3.592  11.962 -0.4148 -1.4225  0.7303
16224TIP3    H270088   6.100   3.527  11.843  0.6382 -0.3063  0.7161
16225TIP3   OH270089   0.550   2.847   5.748 -0.3484 -0.1068  0.1955
16225TIP3    H170090   0.571   2.902   5.672  2.2212  0.4760  1.2587
16225TIP3    H270091   0.480   2.789   5.717 -0.3944  1.1359 -2.1504
16226TIP3   OH270092   2.178   0.916  15.411  0.3370 -0.1504 -0.4984
16226TIP3    H170093   2.133   0.853  15.467 -0.0929 -0.4813 -1.2164
16226TIP3    H270094   2.113   0.983  15.392  1.1351  1.1432  1.2366
16227TIP3   OH270095   5.334   5.221  11.037 -0.6441  0.3348  0.3728
16227TIP3    H170096   5.279   5.169  10.977  0.9852 -1.2206  0.2013
16227TIP3    H270097   5.298   5.202  11.124 -2.5571  2.0394  0.0043
16228TIP3   OH270098   0.282   3.840  13.479  0.2461 -0.2362 -0.4321
16228TIP3    H170099   0.349   3.774  13.493 -0.6164 -1.1750 -0.6858
16228TIP3    H270100   0.199   3.794  13.492 -0.3592  0.8838 -0.1972
16229TIP3   OH270101   2.915   3.916   5.722  1.1452  0.6260  0.0518
16229TIP3    H170102   2.893   3.828   5.752  2.2703 -0.1665 -1.3839
16229TIP3    H270103   2.854   3.933   5.650  0.1358  1.5181  1.0865
16230TIP3   OH270104   5.742   2.494  14.139 -0.0751 -0.4378  0.2764
16230TIP3    H170105   5.813   2.489  14.075  1.8589 -0.2773  2.3338
16230TIP3    H270106   5.770   2.437  14.211 -1.8081 -0.0059  1.3421
16231TIP3   OH270107   0.998   3.774   1.831 -0.1448  0.0005  0.0586
16231TIP3    H170108   1.040   3.788   1.916  0.5475  0.5663 -0.3677
16231TIP3    H270109   1.020   3.853   1.780  0.6190 -0.9367 -1.1129
16232TIP3   OH270110   6.062   4.910   3.504  0.0683 -0.0855 -0.0329
16232TIP3    H170111   6.063   4.987   3.559  1.0923  0.3629 -0.6713
16232TIP3    H270112   6.043   4.943   3.416 -0.8399 -0.7123 -0.0879
16233TIP3   OH270113   1.815   4.091  14.937 -0.4680 -0.1333 -0.1724
16233TIP3    H170114   1.814   4.164  14.875  1.0559 -1.2810 -1.5956
16233TIP3    H270115   1.839   4.131  15.020  0.6941  0.9541 -1.0081
16234TIP3   OH270116   3.135   0.893  12.085  0.3263 -0.2425 -0.2194
16234TIP3    H170117   3.225   0.905  12.055  0.2198  0.6557 -0.2103
16234TIP3    H270118   3.107   0.810  12.047  1.5927 -1.1624  0.8188
16235TIP3   OH270119   4.217   6.571   3.707  0.5240 -0.2676  0.5512
16235TIP3    H170120   4.134   6.574   3.755  0.3860  0.2209  0.2834
16235TIP3    H270121   4.191   6.549   3.618  0.7759 -1.1248  0.6838
16236TIP3   OH270122   3.343   6.368   4.231 -0.2399 -0.4822  0.3778
16236TIP3    H170123   3.384   6.451   4.258 -1.4449  0.2443  0.0160
16236TIP3    H270124   3.326   6.322   4.313 -0.6646  0.1653  0.6612
16237TIP3   OH270125   1.233   1.456   2.544 -0.5195  0.3329 -0.0018
16237TIP3    H170126   1.161   1.448   2.481 -0.4247 -0.5307 -0.0044
16237TIP3    H270127   1.300   1.506   2.497  0.0193 -1.2956 -1.0185
16238TIP3   OH270128   3.195   3.843   2.911 -0.4470 -0.0847 -0.3947
16238TIP3    H170129   3.170   3.772   2.851 -1.2197 -0.0489 -0.1267
16238TIP3    H270130   3.258   3.895   2.861 -1.5161  0.2727 -1.4054
16239TIP3   OH270131   1.439   1.767   0.878 -0.2040 -0.4343  0.0923
16239TIP3    H170132   1.407   1.679   0.897 -0.7479  0.0928  1.7143
16239TIP3    H270133   1.530   1.767   0.908  0.3543 -0.9738 -1.5702
16240TIP3   OH270134   0.172   5.576   3.910 -0.5662 -0.5448 -0.3427
16240TIP3    H170135   0.267   5.571   3.919 -0.7301  0.3305  2.3057
16240TIP3    H270136   0.145   5.486   3.891  0.7346 -0.8930 -0.5788
16241TIP3   OH270137   2.206   2.855  11.813  0.3297  0.3695  0.2631
16241TIP3    H170138   2.251   2.877  11.894  1.3245  0.0220 -0.1931
16241TIP3    H270139   2.227   2.762  11.797  0.9950  0.7089 -0.9298
16242TIP3   OH270140   1.714   1.727  14.548  0.0986 -0.1878 -0.2511
16242TIP3    H170141   1.782   1.781  14.589 -1.7265  1.5541  0.5999
16242TIP3    H270142   1.741   1.719  14.456  1.8089 -0.1533  0.2351
16243TIP3   OH270143   1.601   2.231   4.174  0.2296 -0.1349 -0.2627
16243TIP3    H170144   1.658   2.183   4.114 -0.9645 -0.3298 -1.2635
16243TIP3    H270145   1.572   2.165   4.237 -1.8184 -0.8871 -1.9374
16244TIP3   OH270146   3.179   1.444   2.785 -0.0002  0.2842  0.3079
16244TIP3    H170147   3.212   1.475   2.869 -1.1441  0.5490  0.6751
16244TIP3    H270148   3.233   1.488   2.720  0.3372  0.7410  0.8905
16245TIP3   OH270149   4.961   1.371   5.118 -0.4712 -0.3316  0.3693
16245TIP3    H170150   5.033   1.344   5.176 -0.1964 -0.3292  0.0286
16245TIP3    H270151   4.998   1.440   5.064 -0.9915  0.2923  0.8008
16246TIP3   OH270152   4.615   0.872  15.008  0.0491 -0.4343 -0.0961
16246TIP3    H170153   4.610   0.963  15.038  0.6827 -0.2273 -0.6036
16246TIP3    H270154   4.524   0.843  15.005  0.0083 -0.8714  3.2062
16247TIP3   OH270155   4.965   6.436   0.606 -0.1975 -0.3810 -0.1373
16247TIP3    H170156   4.891   6.493   0.628  2.1272  2.2182  1.1939
16247TIP3    H270157   5.008   6.479   0.533  0.0814 -1.8541 -0.8630
16248TIP3   OH270158   1.601   4.835   1.539 -0.2210  0.3455 -0.3824
16248TIP3    H170159   1.535   4.812   1.604  0.0071 -0.8107 -0.5480
16248TIP3    H270160   1.588   4.929   1.524 -1.4126  0.2583  0.0392
16249TIP3   OH270161   2.169   6.589   4.701  0.4159  0.4156  0.1144
16249TIP3    H170162   2.230   6.569   4.630  1.5754  1.0691  0.9021
16249TIP3    H270163   2.094   6.629   4.657  2.2048  3.2213 -0.5645
16250TIP3   OH270164   0.023   4.718   1.771  0.2329  0.5811  0.1229
16250TIP3    H170165   0.101   4.698   1.824  0.8857  0.7883 -0.7443
16250TIP3    H270166   0.046   4.686   1.683 -0.1543  1.8214 -0.4262
16251TIP3   OH270167   5.602   0.621  11.197 -0.2406  0.3728 -0.3367
16251TIP3    H170168   5.693   0.649  11.188 -0.0890  0.4793  1.2353
16251TIP3    H270169   5.557   0.697  11.235 -0.6155 -0.2318  0.4601
16252TIP3   OH270170   3.092   4.230  11.515  0.3644 -0.6866  0.1420
16252TIP3    H170171   3.143   4.304  11.484 -1.7162  1.4731  1.6857
16252TIP3    H270172   3.044   4.200  11.437 -0.0608  0.6739 -0.1373
16253TIP3   OH270173   4.925   0.290  10.959  0.1520 -0.5604 -0.0508
16253TIP3    H170174   4.860   0.289  10.889  0.7413  1.0984 -0.6442
16253TIP3    H270175   5.009   0.300  10.913  0.4790  1.3145  0.9109
16254TIP3   OH270176   1.465   3.881  14.092  0.2275  0.3014 -0.4622
16254TIP3    H170177   1.433   3.808  14.039 -0.2380  1.2923 -1.5468
16254TIP3    H270178   1.399   3.890  14.161  0.5498 -0.6237 -0.0143
16255TIP3   OH270179   1.843   3.401  11.162 -0.6686 -0.7761  0.0097
16255TIP3    H170180   1.888   3.475  11.202 -0.9009 -0.5747 -0.1059
16255TIP3    H270181   1.833   3.425  11.070  1.2778 -1.8929 -0.5321
16256TIP3   OH270182   3.157   0.238  13.988 -0.5618  0.2329 -0.1445
16256TIP3    H170183   3.082   0.207  13.938 -1.3919  0.3432  1.0012
16256TIP3    H270184   3.120   0.299  14.052  0.3953 -0.2681  0.9162
16257TIP3   OH270185   4.724   3.577  14.370 -0.5243 -0.1585  0.6338
16257TIP3    H170186   4.815   3.571  14.400  0.4625  1.8953 -1.7343
16257TIP3    H270187   4.682   3.498  14.403  2.9724 -2.8453 -1.0218
16258TIP3   OH270188   2.249   2.885  10.415  0.5313  0.3357  0.5630
16258TIP3    H170189   2.341   2.910  10.422  0.7567 -0.2815 -0.1319
16258TIP3    H270190   2.244   2.801  10.460  0.6376 -0.4092 -0.8084
16259TIP3   OH270191   0.310   5.679   1.820 -0.8187  0.4560  0.3575
16259TIP3    H170192   0.269   5.736   1.885  1.8353  3.0747 -0.1875
16259TIP3    H270193   0.387   5.644   1.864 -0.5356  0.0460 -0.4612
16260TIP3   OH270194   3.114   3.666  12.503  0.1929  0.3492  0.7334
16260TIP3    H170195   3.136   3.578  12.470  0.4007 -0.1731  2.2489
16260TIP3    H270196   3.020   3.672  12.492  0.1238 -0.2152  0.9818
16261TIP3   OH270197   3.032   4.125   2.869  0.0907 -0.0844  0.3902
16261TIP3    H170198   2.990   4.057   2.817  0.1369 -1.3200  1.9310
16261TIP3    H270199   3.126   4.111   2.857  0.1045  0.9388 -0.8300
16262TIP3   OH270200   6.058   2.896  12.006 -0.4975 -0.2119 -0.2879
16262TIP3    H170201   6.035   2.977  12.052  0.4746  1.3591 -2.4779
16262TIP3    H270202   6.154   2.891  12.013 -0.4335 -0.4963 -1.2183
16263TIP3   OH270203   2.700   1.185  15.693  0.2261 -0.4444 -0.3349
16263TIP3    H170204   2.663   1.273  15.679 -0.5429 -0.8616 -1.0189
16263TIP3    H270205   2.721   1.154  15.605  0.4281 -0.9774 -0.1012
16264TIP3   OH270206   5.147   1.573  16.466  0.5226  0.5229 -0.5810
16264TIP3    H170207   5.144   1.534  16.379  1.3723  0.9028 -0.7933
16264TIP3    H270208   5.116   1.663  16.453  2.6875  1.2498 -0.9041
16265TIP3   OH270209   1.771   4.443   4.033 -0.7651 -0.2582 -0.1875
16265TIP3    H170210   1.862   4.451   4.062 -1.4690 -0.0830  2.0537
16265TIP3    H270211   1.765   4.503   3.958  1.4446 -1.7425 -1.6208
16266TIP3   OH270212   4.074   3.238   2.621  0.6063 -0.0217  0.0369
16266TIP3    H170213   4.119   3.221   2.539 -0.1520 -0.9239 -0.1935
16266TIP3    H270214   3.983   3.250   2.596 -0.0875 -2.9214  1.0279
16267TIP3   OH270215   5.219   6.703  15.491  0.3744 -0.1053 -0.2644
16267TIP3    H170216   5.164   6.625  15.492 -0.4598  0.4754 -0.3691
16267TIP3    H270217   5.159   6.775  15.513  1.0930  0.5305 -0.3667
16268TIP3   OH270218   4.351   4.698  15.949  0.7008 -0.0441  0.1542
16268TIP3    H170219   4.277   4.662  15.998 -0.2889  0.2350 -1.1143
16268TIP3    H270220   4.311   4.760  15.888  2.0368  0.5048 -0.1704
16269TIP3   OH270221   1.276   3.321   2.337  0.3062  0.6790 -0.3157
16269TIP3    H170222   1.187   3.286   2.327  0.6476  0.1203 -1.4359
16269TIP3    H270223   1.263   3.416   2.342 -0.2188  0.7428 -2.3441
16270TIP3   OH270224   5.172   1.656  11.379  0.4279 -0.5742 -0.2212
16270TIP3    H170225   5.124   1.692  11.454  0.6425  0.0703 -0.3813
16270TIP3    H270226   5.104   1.633  11.316  0.2347 -1.3384  0.2676
16271TIP3   OH270227   0.760   2.048   1.618 -0.4240 -0.0040  0.9353
16271TIP3    H170228   0.695   2.098   1.569 -0.5916  0.0215  1.1802
16271TIP3    H270229   0.772   1.968   1.567  0.6332  0.7520 -0.0066
16272TIP3   OH270230   3.776   6.407   2.658 -1.0625  0.7632 -0.2430
16272TIP3    H170231   3.817   6.433   2.576 -1.9254  1.3245 -0.5020
16272TIP3    H270232   3.837   6.344   2.697  0.2359  1.9146 -0.4094
16273TIP3   OH270233   1.978   6.366  16.400  0.1566  0.2044 -0.2791
16273TIP3    H170234   1.943   6.310  16.469  0.6745 -0.0606 -0.2246
16273TIP3    H270235   2.070   6.340  16.393  0.4384  1.1655 -0.1401
16274TIP3   OH270236   3.355   4.459   4.571 -0.4057 -0.0505 -0.7577
16274TIP3    H170237   3.310   4.502   4.643 -1.1064  1.1885 -1.9147
16274TIP3    H270238   3.361   4.367   4.597  0.8442  0.6770  1.6125
16275TIP3   OH270239   2.460   2.118  11.812 -0.7358  0.4258 -0.1738
16275TIP3    H170240   2.456   2.068  11.731 -0.3388 -0.6217  0.4420
16275TIP3    H270241   2.376   2.103  11.855 -0.9138  0.9110 -0.3514
16276TIP3   OH270242   3.839   3.458  12.726 -0.4765  0.1336 -0.1990
16276TIP3    H170243   3.764   3.514  12.744 -0.9775 -0.7791  0.6459
16276TIP3    H270244   3.834   3.390  12.793  0.3062 -0.7337 -1.0059
16277TIP3   OH270245   2.711   5.319   5.529 -0.2800  0.1295 -0.3096
16277TIP3    H170246   2.672   5.310   5.616  1.3857 -0.2519  0.4246
16277TIP3    H270247   2.709   5.231   5.493 -1.3490  0.3634 -0.8313
16278TIP3   OH270248   1.566   4.705   0.394  0.1179  1.1382  0.2375
16278TIP3    H170249   1.579   4.737   0.304  2.1373  0.5627  0.2851
16278TIP3    H270250   1.492   4.644   0.388  2.9354 -2.2790 -1.9612
16279TIP3   OH270251   5.469   2.309  14.965 -0.0863  0.4939  0.3575
16279TIP3    H170252   5.390   2.290  15.016 -0.0307 -1.3844 -0.2070
16279TIP3    H270253   5.536   2.326  15.031 -0.6961  0.9506  0.8629
16280TIP3   OH270254   5.080   4.160  13.226  0.3264 -0.4606  0.0049
16280TIP3    H170255   5.100   4.246  13.189 -2.4812  0.1605 -0.1723
16280TIP3    H270256   5.061   4.105  13.150  1.2884 -1.0426  0.1694
16281TIP3   OH270257   2.056   0.061  15.058 -0.3730  0.0196 -0.2634
16281TIP3    H170258   2.123  -0.007  15.052  1.6522  1.8603  0.8180
16281TIP3    H270259   1.984   0.020  15.107  0.4949 -1.5519 -0.2736
16282TIP3   OH270260   2.722   6.419  11.824  0.9786  0.0462 -0.1380
16282TIP3    H170261   2.776   6.497  11.837  1.8168 -0.3025 -1.4465
16282TIP3    H270262   2.658   6.445  11.757 -1.0289  0.7182  1.9922
16283TIP3   OH270263   6.072   3.029   4.800  0.5411  0.7026 -0.7917
16283TIP3    H170264   6.072   3.059   4.891  1.0941  0.1652 -0.6117
16283TIP3    H270265   5.979   3.022   4.777  0.4071  1.3536 -0.4390
16284TIP3   OH270266   6.779   0.071  16.628  0.4882  0.3215 -0.5977
16284TIP3    H170267   6.753   0.060  16.719  0.0338  0.8305 -0.6645
16284TIP3    H270268   6.873   0.054  16.628  0.4491  0.0787 -0.0794
16285TIP3   OH270269   1.102   6.372   1.977  0.4164  0.2307 -0.6692
16285TIP3    H170270   1.185   6.356   2.022 -0.4411 -0.1748  0.8197
16285TIP3    H270271   1.125   6.426   1.901  1.7375  2.1111  1.0206
16286TIP3   OH270272   2.219   6.347  14.384 -0.5110 -0.1878 -0.1303
16286TIP3    H170273   2.279   6.391  14.445  0.5019 -0.5979 -0.8136
16286TIP3    H270274   2.199   6.263  14.425 -1.3092  0.3024  0.5001
16287TIP3   OH270275   3.844   1.875   4.754  0.0188 -0.2625  0.5572
16287TIP3    H170276   3.773   1.937   4.739  0.1926  0.2825  1.9215
16287TIP3    H270277   3.864   1.839   4.667 -0.8312  0.7576 -0.0642
16288TIP3   OH270278   3.351   4.125  12.659  0.0472  0.1385  0.6165
16288TIP3    H170279   3.369   4.070  12.735 -0.9998  1.3185  1.7285
16288TIP3    H270280   3.256   4.132  12.656 -0.0565 -1.3588 -1.8842
16289TIP3   OH270281   6.713   2.953  12.034  0.4941  0.5701  0.2798
16289TIP3    H170282   6.679   3.033  11.995  0.4488  0.3571 -0.1250
16289TIP3    H270283   6.635   2.901  12.054  0.5400  0.4279  0.1015
16290TIP3   OH270284   4.007   5.700   2.116  0.1371 -0.4444 -0.0545
16290TIP3    H170285   4.066   5.739   2.181 -0.0957  0.0130 -0.1127
16290TIP3    H270286   4.022   5.606   2.123 -0.0703 -0.4085  0.8389
16291TIP3   OH270287   1.549   4.072   0.559  0.3020 -0.3966  0.0750
16291TIP3    H170288   1.575   4.114   0.477 -1.7803  0.2282 -0.3024
16291TIP3    H270289   1.483   4.131   0.596 -2.0468 -2.8603 -0.0183
16292TIP3   OH270290   4.943   3.575   2.619  0.6670  0.6726 -0.0842
16292TIP3    H170291   5.037   3.573   2.602  0.4321  1.3864 -1.4933
16292TIP3    H270292   4.904   3.530   2.544 -0.0506 -0.6396  1.0541
16293TIP3   OH270293   4.559   5.852   4.694  0.0085 -0.5281  0.1595
16293TIP3    H170294   4.519   5.848   4.607  0.0044  1.1871  0.0672
16293TIP3    H270295   4.494   5.896   4.748  1.4010  1.4788  0.2236
16294TIP3   OH270296   0.639   5.346  15.229 -0.1659 -0.0801 -0.6207
16294TIP3    H170297   0.686   5.328  15.148  1.1865 -1.8904  0.5434
16294TIP3    H270298   0.671   5.432  15.256 -0.0141  0.1684 -1.5609
16295TIP3   OH270299   1.819   0.865   5.765  0.2911 -0.3368  0.0727
16295TIP3    H170300   1.807   0.895   5.855 -1.4807 -1.0130  0.0672
16295TIP3    H270301   1.855   0.941   5.719 -0.5954  0.5999  0.9185
16296TIP3   OH270302   6.186   6.385   4.297  0.5423 -0.0712 -0.0590
16296TIP3    H170303   6.236   6.435   4.232  1.8029 -0.6070  0.4826
16296TIP3    H270304   6.252   6.334   4.344 -0.8424 -3.4863 -1.6546
16297TIP3   OH270305   1.172   1.164   5.813 -0.3523 -0.4645 -0.1588
16297TIP3    H170306   1.105   1.222   5.777  2.2483  2.5313 -0.3456
16297TIP3    H270307   1.245   1.170   5.752  0.7833 -2.3065  0.9467
16298TIP3   OH270308   1.840   1.564  11.526 -0.1802 -0.1668 -0.3763
16298TIP3    H170309   1.850   1.658  11.511 -0.2606 -0.1909 -0.5720
16298TIP3    H270310   1.830   1.526  11.439  1.1451 -0.5069 -0.3882
16299TIP3   OH270311   1.804   6.662   3.806  0.1635  0.0197 -0.1678
16299TIP3    H170312   1.890   6.705   3.807  0.6449 -0.9339 -0.3909
16299TIP3    H270313   1.756   6.707   3.737  0.2586  0.9873  0.3834
16300TIP3   OH270314   2.842   0.292  15.973 -0.2691 -0.2976  0.4815
16300TIP3    H170315   2.915   0.230  15.970  0.7143  0.8022  1.3395
16300TIP3    H270316   2.784   0.264  15.902  1.5698 -0.4682 -1.0008
16301TIP3   OH270317   0.223   2.008   0.267 -0.2547  0.7976  0.0949
16301TIP3    H170318   0.128   1.994   0.271 -0.2123  0.2021 -0.8685
16301TIP3    H270319   0.238   2.041   0.179  0.4100  1.1184  0.3272
16302TIP3   OH270320   0.204   1.393   2.712 -0.1987  0.2569  0.5888
16302TIP3    H170321   0.256   1.460   2.757  0.3755  0.2348 -0.0460
16302TIP3    H270322   0.150   1.355   2.782 -0.7280  1.5550  0.9037
16303TIP3   OH270323   3.163   1.408  16.857 -0.7048  0.2546  0.4806
16303TIP3    H170324   3.192   1.461  16.931  0.2221 -1.7888  1.6401
16303TIP3    H270325   3.180   1.318  16.885 -1.2677 -0.5950 -1.8384
16304TIP3   OH270326   2.993   4.771   3.910 -0.3722 -0.5974 -0.1166
16304TIP3    H170327   2.920   4.822   3.946 -0.4832 -1.7591  1.3719
16304TIP3    H270328   3.041   4.741   3.987  0.8390 -1.0712 -1.0420
16305TIP3   OH270329   0.582   5.275  16.192  0.5041  0.0763  0.1694
16305TIP3    H170330   0.624   5.353  16.228 -0.2352  0.2910  0.5784
16305TIP3    H270331   0.561   5.298  16.101 -0.7046  0.7488  0.6117
16306TIP3   OH270332   4.186   2.237  15.096  0.5266  0.3732 -0.1748
16306TIP3    H170333   4.189   2.208  15.187  2.0066  1.4201  0.1243
16306TIP3    H270334   4.122   2.308  15.097 -0.7438 -0.7467 -0.3032
16307TIP3   OH270335   5.889   2.847  15.159  0.3427  0.0360  0.5298
16307TIP3    H170336   5.809   2.899  15.160 -0.3300 -0.9922  1.0786
16307TIP3    H270337   5.877   2.784  15.088  0.3182 -0.6393  1.1215
16308TIP3   OH270338   1.524   6.334   0.835  0.2060  0.6419  0.3144
16308TIP3    H170339   1.584   6.401   0.868  1.4507 -0.5163  0.4609
16308TIP3    H270340   1.470   6.310   0.910  0.5944  0.6061  0.5855
16309TIP3   OH270341   2.586   2.122   0.488  0.2956  0.3436 -0.0479
16309TIP3    H170342   2.608   2.168   0.569 -0.3530  0.8771 -0.1726
16309TIP3    H270343   2.491   2.122   0.485  0.3162  0.2686 -0.7791
16310TIP3   OH270344   5.843   3.555   0.625 -0.2974 -0.4097 -0.0057
16310TIP3    H170345   5.833   3.650   0.631 -0.2712 -0.5553  3.6237
16310TIP3    H270346   5.921   3.542   0.572 -0.8272  1.5607 -1.3297
16311TIP3   OH270347   5.749   2.713   0.560 -0.1954 -0.3077 -0.1528
16311TIP3    H170348   5.725   2.649   0.627  0.1341  0.9281  1.1736
16311TIP3    H270349   5.844   2.720   0.567 -0.3665  1.3512  0.6819
16312TIP3   OH270350   2.454   4.668  11.890  0.3805  0.2489 -0.1653
16312TIP3    H170351   2.519   4.699  11.826 -0.0880 -0.0255 -0.7819
16312TIP3    H270352   2.399   4.607  11.841 -0.3456  0.4787  0.3444
16313TIP3   OH270353   1.060   2.960  14.454 -0.7258  0.4718  1.0254
16313TIP3    H170354   1.074   3.054  14.461 -1.3377  0.7633 -1.3502
16313TIP3    H270355   0.970   2.947  14.483 -0.8527  0.7100  0.7417
16314TIP3   OH270356   3.618   4.377  16.684 -0.0103  0.3364 -0.4832
16314TIP3    H170357   3.711   4.389  16.701 -0.4457  0.2438  2.0656
16314TIP3    H270358   3.610   4.286  16.657  0.3595 -0.3024  1.4929
16315TIP3   OH270359   1.332   0.269  12.221  0.8045  0.2000 -0.1891
16315TIP3    H170360   1.352   0.203  12.288  1.6997  2.0779  1.4373
16315TIP3    H270361   1.399   0.255  12.154  0.2374 -1.3327 -0.4719
16316TIP3   OH270362   4.782   1.487   2.687  0.2479 -0.1199 -0.1192
16316TIP3    H170363   4.700   1.523   2.720  0.3420 -0.6756  0.7443
16316TIP3    H270364   4.837   1.563   2.669 -0.8092  0.3118 -1.6806
16317TIP3   OH270365   4.250   4.963   3.583  0.0178  0.1444  0.0836
16317TIP3    H170366   4.165   5.006   3.576 -1.2501 -2.3736 -0.4892
16317TIP3    H270367   4.260   4.917   3.500  1.8265  0.1775  0.2672
16318TIP3   OH270368   4.141   4.753  15.536 -0.2994  0.3489 -0.0101
16318TIP3    H170369   4.092   4.820  15.488 -1.4027  1.3353  2.4003
16318TIP3    H270370   4.074   4.691  15.565  0.4022 -0.4559 -0.1055
16319TIP3   OH270371   5.720   5.084  16.775  0.0220  0.2713 -0.6319
16319TIP3    H170372   5.664   5.064  16.700  0.5628  1.1990 -1.2918
16319TIP3    H270373   5.780   5.010  16.780  0.1978  0.3674 -1.3207
16320TIP3   OH270374   2.978   2.027  10.202 -0.1708  0.2512 -0.0631
16320TIP3    H170375   3.016   1.966  10.265 -0.8071 -0.9460 -0.8185
16320TIP3    H270376   2.892   2.049  10.239  0.1801  0.9239  0.3554
16321TIP3   OH270377   4.759   0.491  13.777 -0.1493 -0.0762 -0.0417
16321TIP3    H170378   4.783   0.492  13.684  1.7402  0.2560  0.4209
16321TIP3    H270379   4.814   0.422  13.814 -0.8453 -0.1527  0.8472
16322TIP3   OH270380   5.773   6.635  10.672  0.6441  0.2109  0.0187
16322TIP3    H170381   5.830   6.711  10.681 -1.6592  2.3685 -2.3668
16322TIP3    H270382   5.771   6.618  10.578 -0.0043 -1.9260  0.3897
16323TIP3   OH270383   3.684   2.110  16.512  0.1876  0.5183 -0.2901
16323TIP3    H170384   3.745   2.162  16.459  0.2262  1.1089  0.3211
16323TIP3    H270385   3.734   2.033  16.538  1.1708  1.7151  1.4502
16324TIP3   OH270386   4.908   3.298   5.897 -1.0210 -0.6229 -0.1109
16324TIP3    H170387   4.995   3.281   5.931 -1.1754  0.7936  1.0082
16324TIP3    H270388   4.910   3.389   5.868 -1.6968 -1.0131 -1.4465
16325TIP3   OH270389   3.851   6.032  12.856 -0.0928  0.5927 -0.5943
16325TIP3    H170390   3.883   6.122  12.846  0.2128  0.3411 -2.0039
16325TIP3    H270391   3.792   6.019  12.781 -1.1157  0.0362  0.3002
16326TIP3   OH270392   0.387   3.413   1.249 -0.1912 -0.0486  0.0422
16326TIP3    H170393   0.326   3.404   1.322  0.2874 -0.5000  0.3847
16326TIP3    H270394   0.465   3.452   1.288  0.4363 -1.2133 -0.0320
16327TIP3   OH270395   3.879   3.679   5.296  0.4361 -0.0711  0.8651
16327TIP3    H170396   3.964   3.720   5.287  0.8572 -0.3443  3.3536
16327TIP3    H270397   3.887   3.622   5.372 -1.3512 -1.6765 -0.0887
16328TIP3   OH270398   0.733   0.345  14.339 -0.2414  0.1113  0.0484
16328TIP3    H170399   0.702   0.426  14.379 -1.9530 -0.8414  0.6887
16328TIP3    H270400   0.654   0.292  14.327  0.7141 -1.0480 -1.3407
16329TIP3   OH270401   6.131   5.567  15.248 -0.6575 -0.1005 -1.0971
16329TIP3    H170402   6.087   5.489  15.213  0.1255 -1.4284  0.7629
16329TIP3    H270403   6.081   5.641  15.214 -2.0724 -1.4675 -2.0243
16330TIP3   OH270404   4.589   6.121  14.900 -0.1325  0.9631 -0.8019
16330TIP3    H170405   4.514   6.064  14.917  0.4689  0.7690  1.4817
16330TIP3    H270406   4.652   6.065  14.854 -1.4794  1.2207 -3.0255
16331TIP3   OH270407   0.409   5.003  15.993 -0.0100 -0.0419  0.0410
16331TIP3    H170408   0.383   4.913  16.011  0.9710 -0.4129 -0.3486
16331TIP3    H270409   0.392   5.049  16.075 -0.2649 -0.6449  0.3286
16332TIP3   OH270410   1.666   1.798   0.230  0.3325  0.0441  0.2457
16332TIP3    H170411   1.708   1.879   0.258 -1.2193  0.9298  0.0577
16332TIP3    H270412   1.574   1.809   0.253  0.3440 -2.2961  1.6161
16333TIP3   OH270413   3.118   0.605  15.002  0.0965 -0.0771  0.6486
16333TIP3    H170414   3.061   0.647  14.938 -1.0475 -1.9588  0.3749
16333TIP3    H270415   3.202   0.595  14.958 -0.2507 -0.0012 -0.0360
16334TIP3   OH270416   2.163   5.133   6.414  0.0265  0.0038  0.3970
16334TIP3    H170417   2.215   5.208   6.443  1.2500 -0.9452  0.7117
16334TIP3    H270418   2.181   5.127   6.320  2.6355 -1.9162  0.9583
16335TIP3   OH270419   3.995   4.111   6.276  0.2106 -0.2044  0.2189
16335TIP3    H170420   3.944   4.189   6.298 -0.1798  0.2612 -2.1687
16335TIP3    H270421   4.076   4.145   6.238  0.3200 -0.9541 -0.2284
16336TIP3   OH270422   4.023   1.885  14.412 -0.2844  0.0037 -0.5844
16336TIP3    H170423   4.000   1.973  14.443 -4.5178 -0.7807 -1.1505
16336TIP3    H270424   3.967   1.827  14.462  0.7705 -2.1976 -1.8942
16337TIP3   OH270425   1.201   5.633   0.475 -0.0693  0.0535 -0.4945
16337TIP3    H170426   1.273   5.589   0.429  0.2925  0.4229 -0.2832
16337TIP3    H270427   1.244   5.698   0.530 -0.3893 -1.5799  1.7244
16338TIP3   OH270428   6.353   2.959  11.597  0.8685  0.1774 -0.7587
16338TIP3    H170429   6.297   3.036  11.592 -0.5556 -0.7238  0.9237
16338TIP3    H270430   6.442   2.994  11.592  0.2507  1.9835  0.2684
16339TIP3   OH270431   5.302   5.875   1.604  0.6884  1.0528 -0.5165
16339TIP3    H170432   5.215   5.847   1.633  0.5906  0.3684 -1.4687
16339TIP3    H270433   5.349   5.794   1.587  2.1652  1.3613  1.8094
16340TIP3   OH270434   5.231   1.159   4.886  0.5276  1.2979  0.0368
16340TIP3    H170435   5.224   1.246   4.846  0.4871  1.4363  0.3376
16340TIP3    H270436   5.292   1.111   4.830 -0.6078  1.0329 -0.9725
16341TIP3   OH270437   5.081   2.368  12.520 -0.4271 -0.3614  0.7201
16341TIP3    H170438   5.140   2.320  12.461  0.1938  0.7737  0.4140
16341TIP3    H270439   5.009   2.396  12.465  0.4832  1.2803  0.3362
16342TIP3   OH270440   0.260   5.727  12.240 -1.0778  0.5235 -0.1501
16342TIP3    H170441   0.319   5.653  12.249 -0.1222  1.5935  3.1415
16342TIP3    H270442   0.189   5.709  12.300 -1.1119  2.0079  0.2856
16343TIP3   OH270443   2.940   2.460   4.795 -0.0098  0.1431  0.0007
16343TIP3    H170444   2.865   2.427   4.845  0.5943 -0.5411  0.4610
16343TIP3    H270445   3.000   2.494   4.861 -0.2858  1.5113 -0.4204
16344TIP3   OH270446   4.048   2.149   4.734  0.5373  0.2884 -0.4665
16344TIP3    H170447   3.968   2.135   4.784  1.1466  2.2295  1.1193
16344TIP3    H270448   4.019   2.183   4.649 -0.3399  0.4405 -0.1036
16345TIP3   OH270449   2.425   5.468   0.400 -0.5143 -0.3294 -0.0481
16345TIP3    H170450   2.431   5.474   0.496 -0.9578  1.4657 -0.1115
16345TIP3    H270451   2.332   5.451   0.384 -0.0291 -3.3233 -0.0888
16346TIP3   OH270452   3.702   2.958   4.547 -0.9098 -0.0940 -0.8808
16346TIP3    H170453   3.692   2.866   4.573  1.2434  0.4543  2.0908
16346TIP3    H270454   3.762   2.955   4.472 -0.7535 -1.0811 -0.7242
16347TIP3   OH270455   6.303   2.544   5.775 -0.0810  0.4578 -0.0413
16347TIP3    H170456   6.259   2.621   5.811 -2.5131 -1.3419  0.9541
16347TIP3    H270457   6.282   2.474   5.837  0.4357 -1.4609 -2.0003
16348TIP3   OH270458   1.337   1.176  15.949 -0.7803 -0.2661  0.3193
16348TIP3    H170459   1.243   1.164  15.961 -1.1965  2.7842  0.6483
16348TIP3    H270460   1.372   1.175  16.038 -1.0051  1.7990  0.4717
16349TIP3   OH270461   2.960   0.301  14.569  0.0614  0.0255 -0.1680
16349TIP3    H170462   2.996   0.262  14.490 -0.1376  0.0598 -0.2774
16349TIP3    H270463   2.967   0.232  14.635 -2.2534 -0.9612 -0.8935
16350TIP3   OH270464   5.592   6.088  10.625 -0.2286  0.4186 -0.1213
16350TIP3    H170465   5.537   6.158  10.588 -1.5145 -0.4878  0.0344
16350TIP3    H270466   5.675   6.095  10.578 -1.2376  0.3947 -1.9400
16351TIP3   OH270467   2.435   6.075  12.363  0.3636 -0.2245 -0.2208
16351TIP3    H170468   2.347   6.038  12.360  0.0191  0.4987  0.7058
16351TIP3    H270469   2.423   6.163  12.400  1.4657 -0.0973 -0.1459
16352TIP3   OH270470   3.743   1.445   1.341  0.2188  0.1671 -0.3389
16352TIP3    H170471   3.789   1.439   1.425 -0.7850  0.0976  0.2097
16352TIP3    H270472   3.688   1.523   1.349 -2.4158 -1.6997  0.3459
16353TIP3   OH270473   1.700   4.283  10.127  0.0342 -0.5255 -0.4018
16353TIP3    H170474   1.633   4.221  10.099  0.2207 -0.1220 -1.7710
16353TIP3    H270475   1.777   4.229  10.146  0.5963 -0.6527 -2.7975
16354TIP3   OH270476   1.491   4.409   0.654 -0.3690  0.0518  0.2459
16354TIP3    H170477   1.398   4.386   0.656 -0.2038 -0.7686 -0.9593
16354TIP3    H270478   1.525   4.381   0.739 -1.4141  1.2604  1.0968
16355TIP3   OH270479   5.149   3.550   4.127 -0.3904 -0.0370  0.3570
16355TIP3    H170480   5.080   3.567   4.063 -0.6301  1.7787  1.0600
16355TIP3    H270481   5.165   3.635   4.167  1.4245 -0.6888  1.0468
16356TIP3   OH270482   0.310   6.065  14.804 -0.4885 -0.2243 -0.4641
16356TIP3    H170483   0.329   6.075  14.711 -1.8005 -0.9304 -0.8087
16356TIP3    H270484   0.247   6.134  14.824  0.4170  0.4636  0.1097
16357TIP3   OH270485   1.256   4.994   0.041 -0.2908  0.3018  0.8270
16357TIP3    H170486   1.294   5.037   0.117 -0.7459  1.0672  0.6316
16357TIP3    H270487   1.300   5.035  -0.034 -0.2544 -0.0398  0.6631
16358TIP3   OH270488   5.151   5.938  11.450 -0.2680  0.1539  0.1694
16358TIP3    H170489   5.168   6.007  11.387  0.5059  0.7516  1.0262
16358TIP3    H270490   5.132   5.861  11.397  1.0501  0.4865 -0.8002
16359TIP3   OH270491   2.365   1.889  11.347 -0.2487 -0.5661 -0.4270
16359TIP3    H170492   2.320   1.911  11.266 -1.3566  0.8191  0.5257
16359TIP3    H270493   2.353   1.795  11.357  0.0354 -0.7718 -1.9356
16360TIP3   OH270494   6.707   4.521   2.133 -0.3367 -0.4213  0.1860
16360TIP3    H170495   6.753   4.519   2.217  1.7864 -3.3571 -0.9801
16360TIP3    H270496   6.736   4.602   2.092  3.3090 -1.8620 -0.2162
16361TIP3   OH270497   3.494   4.122  12.352  0.1204 -0.3971 -0.1146
16361TIP3    H170498   3.411   4.074  12.356  0.7450 -1.7805 -2.6829
16361TIP3    H270499   3.478   4.190  12.286 -0.2631  2.0353  2.3905
16362TIP3   OH270500   0.033   5.998   2.263 -0.5584  0.4040  0.0289
16362TIP3    H170501   0.059   6.062   2.197 -1.5038  0.3281 -0.4270
16362TIP3    H270502   0.099   5.929   2.257  0.5065  1.3838  0.5844
16363TIP3   OH270503   4.651   1.043  16.727 -0.1279 -0.1015 -0.3119
16363TIP3    H170504   4.659   1.051  16.822 -0.9110  1.1313 -0.3359
16363TIP3    H270505   4.568   0.997  16.713  0.2863 -0.8315 -0.3871
16364TIP3   OH270506   6.102   0.266  13.696  0.0134  0.6384 -0.6149
16364TIP3    H170507   6.037   0.294  13.761 -0.0316  2.2106 -1.3216
16364TIP3    H270508   6.103   0.336  13.631  0.6335 -0.5574 -1.9064
16365TIP3   OH270509   6.280   5.998   4.671  0.2494 -0.5276  0.1398
16365TIP3    H170510   6.282   5.973   4.579  0.8409 -1.6544  0.4552
16365TIP3    H270511   6.211   5.944   4.709  0.4619 -0.5439  0.5037
16366TIP3   OH270512   0.473   2.385   4.215  0.1752 -0.1096 -0.4545
16366TIP3    H170513   0.429   2.462   4.250  1.4599  0.9311 -1.0769
16366TIP3    H270514   0.415   2.353   4.146 -0.8661 -0.3331  0.5064
16367TIP3   OH270515   2.629   6.394  14.642 -0.1500 -0.1821 -0.7213
16367TIP3    H170516   2.660   6.328  14.705 -1.9416  0.8790  1.3630
16367TIP3    H270517   2.691   6.466  14.650  1.4790 -1.3446 -2.5775
16368TIP3   OH270518   4.967   0.634   1.122  0.4008  0.3855 -0.6481
16368TIP3    H170519   4.972   0.544   1.156  0.6375  0.6464  0.0244
16368TIP3    H270520   4.975   0.689   1.200 -0.2677  0.9863 -0.9984
16369TIP3   OH270521   2.495   1.147  14.615 -0.2851 -0.4894 -0.0785
16369TIP3    H170522   2.441   1.109  14.684  0.8457 -0.4184  0.8545
16369TIP3    H270523   2.505   1.239  14.640  0.5526 -0.5840 -0.0763
16370TIP3   OH270524   1.195   6.380  15.778  0.2322 -0.0046 -0.3595
16370TIP3    H170525   1.170   6.446  15.714  0.7690  1.5257  0.9952
16370TIP3    H270526   1.275   6.413  15.818  0.1799 -1.1735  0.7687
16371TIP3   OH270527   5.848   3.796  16.791 -0.5300  0.5561 -0.4833
16371TIP3    H170528   5.838   3.875  16.738 -0.6764  0.3872 -0.7140
16371TIP3    H270529   5.778   3.801  16.856 -0.2999  0.8040 -0.2598
16372TIP3   OH270530   0.261   1.795  15.986  0.2831 -0.1565  0.2827
16372TIP3    H170531   0.239   1.864  15.923 -0.0523  1.2910  1.9646
16372TIP3    H270532   0.176   1.760  16.013  0.4488 -1.1281 -0.4507
16373TIP3   OH270533   0.037   5.482   4.661  0.0419 -0.2282 -0.0128
16373TIP3    H170534  -0.010   5.436   4.591 -2.9273  0.0589  1.6897
16373TIP3    H270535  -0.004   5.568   4.665  0.9005  0.1301  1.3861
16374TIP3   OH270536   2.936   1.617   4.739 -0.5181  0.3549 -0.2452
16374TIP3    H170537   2.925   1.640   4.832 -3.1147 -1.2718 -0.1290
16374TIP3    H270538   2.908   1.695   4.692 -1.0548  0.4993  0.3069
16375TIP3   OH270539   1.722   4.318   2.032 -0.3396  0.6727 -0.1583
16375TIP3    H170540   1.645   4.262   2.038 -0.0794  0.2539 -0.7373
16375TIP3    H270541   1.758   4.300   1.945  1.1509 -0.0961  0.6068
16376TIP3   OH270542   2.393   4.297  16.475  1.0809  0.0906 -0.2986
16376TIP3    H170543   2.475   4.345  16.461 -0.7239  3.5251  0.3374
16376TIP3    H270544   2.383   4.295  16.570  0.3718 -0.2144 -0.3787
16377TIP3   OH270545   4.581   0.661   4.920 -0.4164 -0.1751 -0.3127
16377TIP3    H170546   4.537   0.604   4.983  0.3832 -0.5851 -0.1223
16377TIP3    H270547   4.674   0.653   4.941 -0.3000  1.2786 -0.2130
16378TIP3   OH270548   2.942   1.794  11.374 -0.2526 -0.0036 -0.8562
16378TIP3    H170549   3.003   1.841  11.316  0.1499 -0.9397 -1.1999
16378TIP3    H270550   2.932   1.709  11.333  1.0122 -1.1397  1.1113
16379TIP3   OH270551   5.126   3.448  14.082 -0.7336 -0.1910  0.0348
16379TIP3    H170552   5.210   3.421  14.045 -1.2369 -2.6328  0.5777
16379TIP3    H270553   5.072   3.472  14.007  0.3546  1.1085 -0.3377
16380TIP3   OH270554   1.028   1.862   4.333  0.2698  0.0540 -0.1582
16380TIP3    H170555   1.033   1.953   4.304  1.4237 -0.4577 -1.6027
16380TIP3    H270556   1.013   1.812   4.254  3.3452 -1.3401  0.0460
16381TIP3   OH270557   5.458   6.014  11.826  0.2504  0.0288  0.0506
16381TIP3    H170558   5.393   6.079  11.800 -0.5500  0.1510  2.2743
16381TIP3    H270559   5.457   5.949  11.755 -0.6553  1.1931 -1.0212
16382TIP3   OH270560   3.073   5.483  16.190  0.6251 -0.5351 -0.1577
16382TIP3    H170561   3.070   5.534  16.110  0.4869  0.3952  0.4336
16382TIP3    H270562   3.144   5.522  16.241  0.0882 -0.5165  0.5793
16383TIP3   OH270563   2.867   1.957   0.122  0.3055 -0.5699  0.3090
16383TIP3    H170564   2.778   1.989   0.113  1.0917  1.2751 -1.2381
16383TIP3    H270565   2.871   1.879   0.067  0.1258  0.3768 -1.0740
16384TIP3   OH270566   1.191   4.221   2.595  0.4136 -0.3624  0.3170
16384TIP3    H170567   1.098   4.223   2.571  0.2148 -2.2414  0.8482
16384TIP3    H270568   1.196   4.271   2.677 -0.1605 -0.4438  0.4048
16385TIP3   OH270569   1.938   1.097   4.443 -0.4083 -0.5224  0.0069
16385TIP3    H170570   1.884   1.151   4.385  0.1361 -0.8530 -0.8139
16385TIP3    H270571   1.994   1.159   4.488  0.5776 -0.4364 -1.3165
16386TIP3   OH270572   1.483   3.613  13.871 -0.4273  0.2832  0.0131
16386TIP3    H170573   1.516   3.628  13.960  0.8888  1.5102 -0.6549
16386TIP3    H270574   1.454   3.700  13.842 -2.6819 -0.4632 -0.0700
16387TIP3   OH270575   1.857   0.933   4.220 -0.5311  0.3208  0.0047
16387TIP3    H170576   1.855   0.975   4.306  0.3259 -0.3293  0.3488
16387TIP3    H270577   1.920   0.861   4.230  0.4873  0.9860 -1.5124
16388TIP3   OH270578   1.346   1.119   3.626  0.8430 -0.0118  0.3626
16388TIP3    H170579   1.284   1.136   3.555  1.1861  1.4784  0.3888
16388TIP3    H270580   1.397   1.044   3.596  0.9450  0.5701 -0.9638
16389TIP3   OH270581   3.467   1.075  12.617 -0.0111  0.0633 -0.0565
16389TIP3    H170582   3.506   1.099  12.533 -0.7965 -0.4228 -0.5673
16389TIP3    H270583   3.541   1.072  12.678  0.6663 -0.2628 -0.8818
16390TIP3   OH270584   4.217   1.309  12.359  0.2741 -0.1419 -0.2931
16390TIP3    H170585   4.195   1.252  12.432  3.2252 -1.5644 -0.4212
16390TIP3    H270586   4.183   1.264  12.282  2.3954 -1.6947 -0.3682
16391TIP3   OH270587   5.447   4.723   1.988 -0.8310 -0.1155 -0.1890
16391TIP3    H170588   5.360   4.694   2.015 -0.7855 -1.9378 -1.9162
16391TIP3    H270589   5.506   4.692   2.058 -1.3437 -0.2858  0.1681
16392TIP3   OH270590   5.643   0.631   4.421  0.0515 -0.0458 -0.0181
16392TIP3    H170591   5.688   0.592   4.496  0.1713 -0.4602 -0.3058
16392TIP3    H270592   5.683   0.589   4.344  1.0527  1.5475 -0.3813
16393TIP3   OH270593   0.346   3.704   0.878  0.0529 -0.7638  0.9965
16393TIP3    H170594   0.340   3.773   0.812 -0.1381 -1.3331  0.4119
16393TIP3    H270595   0.279   3.641   0.853  0.0368 -1.0252  1.6911
16394TIP3   OH270596   1.746   3.594   4.086 -0.2980 -0.0541 -0.3767
16394TIP3    H170597   1.715   3.650   4.015 -0.2033 -0.4605 -0.7436
16394TIP3    H270598   1.836   3.623   4.102 -0.5312  0.4620  0.0139
16395TIP3   OH270599   4.759   2.256  12.045 -0.1873  0.1563  0.3715
16395TIP3    H170600   4.738   2.237  11.954 -2.3013 -0.1543  0.9051
16395TIP3    H270601   4.844   2.213  12.060  0.1586  0.1935 -1.4231
16396TIP3   OH270602   0.938   5.859   6.407 -0.3841  0.5174 -0.2011
16396TIP3    H170603   0.926   5.767   6.432  0.3383  0.4094 -0.2557
16396TIP3    H270604   0.960   5.904   6.489  0.5105  0.4223 -0.3874
16397TIP3   OH270605   0.789   5.142   4.136 -0.5229 -0.2814  0.3060
16397TIP3    H170606   0.753   5.231   4.142  0.7749  0.3792 -1.3958
16397TIP3    H270607   0.880   5.151   4.163  0.0809 -0.7752 -1.5436
16398TIP3   OH270608   2.024   3.887   4.589  0.4043 -0.0770  0.3960
16398TIP3    H170609   1.968   3.875   4.513  1.4629  2.3030 -0.8159
16398TIP3    H270610   1.992   3.967   4.631  0.7767 -0.5399  1.6026
16399TIP3   OH270611   1.677   0.399   1.838 -0.3242 -0.0864 -0.5691
16399TIP3    H170612   1.737   0.324   1.843  0.4963  0.5317 -0.9962
16399TIP3    H270613   1.733   0.475   1.850 -1.2025  0.4516  0.1201
16400TIP3   OH270614   1.196   1.922  11.347 -0.0359  0.1600 -0.2707
16400TIP3    H170615   1.268   1.895  11.290 -1.1949 -0.2221 -1.5994
16400TIP3    H270616   1.238   1.970  11.418  1.5542 -0.3941 -0.8155
16401TIP3   OH270617   3.415   0.349   4.047 -0.0772  0.5902 -0.0814
16401TIP3    H170618   3.438   0.383   3.960  0.2274  0.0420 -0.2211
16401TIP3    H270619   3.326   0.315   4.036 -0.3126  1.1762  0.0116
16402TIP3   OH270620   1.374   6.056  17.036  0.1946  0.1611  0.1826
16402TIP3    H170621   1.388   6.118  16.965  1.6535 -2.7109 -2.1189
16402TIP3    H270622   1.460   6.050  17.079 -0.3140  0.7637  1.3281
16403TIP3   OH270623   6.097   0.351  12.284 -0.1067  0.0116 -0.3602
16403TIP3    H170624   6.178   0.402  12.272  0.9683 -1.5233  0.3263
16403TIP3    H270625   6.036   0.413  12.324  0.8476  1.0671 -0.5106
16404TIP3   OH270626   3.904   4.694   4.179  0.8271  0.0380 -0.2856
16404TIP3    H170627   3.888   4.652   4.263  0.8656 -0.3947 -0.4943
16404TIP3    H270628   3.849   4.647   4.117  0.8465  0.3163 -0.5153
16405TIP3   OH270629   1.844   4.598   5.806  0.0264 -0.3821 -0.4105
16405TIP3    H170630   1.829   4.508   5.835  0.1425 -0.3439 -0.2265
16405TIP3    H270631   1.778   4.613   5.739  1.2768 -1.2657 -1.8597
16406TIP3   OH270632   5.339   4.348   1.248  0.9525 -0.0205 -0.1028
16406TIP3    H170633   5.294   4.432   1.263  1.0796 -0.0656  0.5555
16406TIP3    H270634   5.413   4.350   1.308  0.0663 -1.2677  1.0615
16407TIP3   OH270635   1.050   1.200  12.564 -0.0535  0.6622  0.1750
16407TIP3    H170636   1.043   1.113  12.523  1.1194  0.2416  0.8384
16407TIP3    H270637   1.057   1.182  12.657 -0.1590  1.4964  0.3460
16408TIP3   OH270638   5.218   2.732  16.324  0.4696 -0.4558  0.2081
16408TIP3    H170639   5.215   2.638  16.308  3.2316 -0.5052 -0.1371
16408TIP3    H270640   5.240   2.740  16.417 -1.5342 -0.1022  0.6919
16409TIP3   OH270641   1.716   2.007   0.597 -0.2355  0.1956  0.1177
16409TIP3    H170642   1.691   2.074   0.533 -2.3190  2.2159  2.9144
16409TIP3    H270643   1.810   2.022   0.612  0.0845  0.2175 -1.8683
16410TIP3   OH270644   0.473   0.405   1.251 -0.5150  0.1148  0.1416
16410TIP3    H170645   0.545   0.412   1.313  1.3143 -0.7101 -1.8292
16410TIP3    H270646   0.493   0.470   1.183 -2.5356  1.0730  0.4235
16411TIP3   OH270647   2.750   4.878   4.051  0.0523 -0.1438  0.1321
16411TIP3    H170648   2.760   4.891   4.146  1.6475 -0.3516  0.0037
16411TIP3    H270649   2.734   4.965   4.016  1.7983  0.2667  0.3280
16412TIP3   OH270650   4.051   0.213   1.423 -0.1230 -0.1675  0.5771
16412TIP3    H170651   4.115   0.217   1.353  1.4974  1.0685  2.0971
16412TIP3    H270652   3.974   0.259   1.388  0.8755  0.9534 -0.1598
16413TIP3   OH270653   6.020   6.418   3.663 -0.1911  0.0084 -0.2713
16413TIP3    H170654   5.974   6.445   3.743  0.9864 -0.3813  0.5591
16413TIP3    H270655   6.010   6.492   3.603 -1.3571  0.1728  0.1245
16414TIP3   OH270656   1.146   1.350   5.055 -0.0964 -0.3194  0.9341
16414TIP3    H170657   1.210   1.292   5.096 -0.2967  0.3767  2.2479
16414TIP3    H270658   1.065   1.299   5.051  0.0854 -0.5986  0.8598
16415TIP3   OH270659   4.401   2.742  16.379 -0.1186  0.1962 -0.4358
16415TIP3    H170660   4.446   2.784  16.305  0.2514  0.7040  0.0779
16415TIP3    H270661   4.311   2.772  16.372 -0.0386  0.4095 -0.5671
16416TIP3   OH270662   5.120   1.834  13.522 -0.2684 -0.5299 -0.3951
16416TIP3    H170663   5.123   1.747  13.562  1.5257  0.0253  0.7420
16416TIP3    H270664   5.197   1.838  13.465  0.8183  1.0151  1.1184
16417TIP3   OH270665   5.744   4.239   1.511 -0.0474 -0.3843  0.0556
16417TIP3    H170666   5.767   4.147   1.519  2.8041  0.2240 -0.3234
16417TIP3    H270667   5.816   4.285   1.554 -1.6465  1.6482  0.6248
16418TIP3   OH270668   0.471   3.662  13.541  0.3582 -0.2922 -0.3442
16418TIP3    H170669   0.430   3.587  13.585 -2.6312 -0.3317 -3.0217
16418TIP3    H270670   0.523   3.624  13.471 -0.3733  0.0896 -1.0959
16419TIP3   OH270671   1.112   1.571   1.938  0.1848  0.0592  0.5273
16419TIP3    H170672   1.138   1.551   2.027 -2.7600 -1.0262  1.2168
16419TIP3    H270673   1.127   1.490   1.889 -0.1564 -0.0112  0.5330
16420TIP3   OH270674   5.486   6.748   0.888 -0.1119  0.4480 -0.5011
16420TIP3    H170675   5.428   6.762   0.963 -0.8478 -1.5554 -0.6737
16420TIP3    H270676   5.568   6.718   0.925  0.2588  1.5693 -0.3788
16421TIP3   OH270677   3.618   1.691   1.372 -0.2262  0.0610 -0.2077
16421TIP3    H170678   3.553   1.711   1.304  0.4005  0.7459 -0.6233
16421TIP3    H270679   3.573   1.709   1.454 -1.3681 -1.8621 -0.3777
16422TIP3   OH270680   4.269   3.717  16.791  0.1392  0.4160 -0.5463
16422TIP3    H170681   4.298   3.633  16.756  1.2488  0.5275  0.0887
16422TIP3    H270682   4.349   3.764  16.811 -0.4216  2.6103 -3.1381
16423TIP3   OH270683   5.770   3.324  17.074  0.3574  0.6114  0.2516
16423TIP3    H170684   5.840   3.260  17.091 -0.1902 -0.1504 -0.3375
16423TIP3    H270685   5.716   3.322  17.153 -0.4912 -0.7423 -0.3386
16424TIP3   OH270686   4.630   5.019  11.647  0.3311  0.2854 -0.2069
16424TIP3    H170687   4.541   4.984  11.646  0.7006 -0.6510 -0.6262
16424TIP3    H270688   4.686   4.942  11.653  1.0843  0.9493  1.7970
16425TIP3   OH270689   4.285   1.203   2.633  0.4278 -0.3369 -0.5997
16425TIP3    H170690   4.220   1.233   2.697 -1.3497 -0.0496 -2.5048
16425TIP3    H270691   4.299   1.279   2.576  2.6887 -0.2977 -0.0301
16426TIP3   OH270692   2.634   0.931  16.718 -0.2084  0.5354 -0.4740
16426TIP3    H170693   2.691   0.912  16.644 -0.1616  1.6550 -0.7220
16426TIP3    H270694   2.619   0.845  16.759  2.3366  0.3196  0.1022
16427TIP3   OH270695   6.142   6.516   5.611 -0.0949  0.1968  0.7869
16427TIP3    H170696   6.196   6.532   5.688 -0.3047 -0.6901  1.1237
16427TIP3    H270697   6.183   6.567   5.541 -0.7944  2.2595  1.8399
16428TIP3   OH270698   4.239   3.571   3.631 -0.1606 -0.0477 -0.2187
16428TIP3    H170699   4.207   3.604   3.715  1.1622 -0.1304  0.3342
16428TIP3    H270700   4.303   3.636   3.602  0.9407 -1.0660 -0.1264
16429TIP3   OH270701   3.364   6.471  13.778  0.0881 -0.1244 -0.2968
16429TIP3    H170702   3.422   6.489  13.703  1.0851  1.5520  0.8301
16429TIP3    H270703   3.279   6.504  13.750  0.5830  1.0232 -0.4994
16430TIP3   OH270704   6.094   3.156  14.084 -0.3195  0.0301 -0.8029
16430TIP3    H170705   6.136   3.241  14.092  0.0661 -0.1787 -0.6182
16430TIP3    H270706   6.000   3.175  14.088 -0.2242  0.3825 -0.1679
16431TIP3   OH270707   1.639   5.735  16.846  0.0131 -0.3925 -0.8121
16431TIP3    H170708   1.683   5.815  16.818  0.4146  0.7473  2.7638
16431TIP3    H270709   1.702   5.665  16.828  0.5691  0.3668 -1.8946
16432TIP3   OH270710   6.694   5.433   1.303  0.2642  0.1303 -0.3887
16432TIP3    H170711   6.645   5.445   1.222  0.1513 -1.1276 -0.5044
16432TIP3    H270712   6.756   5.506   1.304 -0.0335  0.4057 -1.3744
16433TIP3   OH270713   3.366   1.717  12.345 -0.3510 -0.2219  0.4883
16433TIP3    H170714   3.337   1.627  12.326  0.9706 -0.8345  1.3422
16433TIP3    H270715   3.371   1.721  12.441 -0.8639  0.9143  0.4705
16434TIP3   OH270716   6.573   5.814   0.915 -0.3544 -0.2722  0.3029
16434TIP3    H170717   6.496   5.757   0.915 -0.9274  0.4806 -1.4260
16434TIP3    H270718   6.646   5.754   0.928 -0.8742 -1.5549 -2.3940
16435TIP3   OH270719   1.498   1.877  12.830  0.1784  0.0316 -0.1083
16435TIP3    H170720   1.530   1.793  12.862 -1.7067 -0.3925  0.7345
16435TIP3    H270721   1.501   1.871  12.735  1.6855 -0.3428 -0.0371
16436TIP3   OH270722   2.813   2.747   4.174  0.2279  0.0520 -0.1008
16436TIP3    H170723   2.831   2.778   4.086 -1.9514 -1.1178 -0.9801
16436TIP3    H270724   2.832   2.653   4.171  0.1079 -0.0064  0.6795
16437TIP3   OH270725   4.332   1.714  13.463  0.1630 -0.1836 -0.4254
16437TIP3    H170726   4.334   1.619  13.477 -0.4456  0.1323  2.1830
16437TIP3    H270727   4.418   1.744  13.494 -0.0707  0.2218 -0.1638
16438TIP3   OH270728   6.058   5.630  11.267 -0.8380  0.2504  0.0270
16438TIP3    H170729   6.038   5.699  11.204  2.6748  1.2424 -0.1111
16438TIP3    H270730   6.139   5.592  11.236 -2.0007 -3.0617  0.8864
16439TIP3   OH270731   4.108   4.978   6.697  0.5805 -1.0443  0.1016
16439TIP3    H170732   4.203   4.966   6.697  0.4495 -2.1042 -0.3092
16439TIP3    H270733   4.073   4.890   6.685 -0.3937 -0.3546 -2.4461
16440TIP3   OH270734   2.569   5.085  17.147 -0.5076 -0.2954 -0.1419
16440TIP3    H170735   2.548   5.177  17.162 -2.2697 -0.6104 -0.5387
16440TIP3    H270736   2.524   5.064  17.065  1.6419 -0.9578 -1.2022
16441TIP3   OH270737   0.732   2.337  12.185 -0.4357  0.3582  0.7871
16441TIP3    H170738   0.665   2.296  12.239 -0.3163  0.9204  1.3659
16441TIP3    H270739   0.730   2.429  12.209  0.3002  0.4438  0.5517
16442TIP3   OH270740   5.717   5.225  12.232  0.4707 -0.5582 -0.1979
16442TIP3    H170741   5.797   5.229  12.284  1.9171 -0.9562 -2.2963
16442TIP3    H270742   5.670   5.149  12.265  1.1328 -0.5235  0.8300
16443TIP3   OH270743   4.531   0.937  10.574  0.9199  0.2853  0.1689
16443TIP3    H170744   4.587   0.989  10.631 -0.5036 -0.9577  2.7562
16443TIP3    H270745   4.538   0.848  10.607 -1.8458 -0.0397 -0.0107
16444TIP3   OH270746   4.835   5.161  12.656 -0.4539  0.5522 -0.3276
16444TIP3    H170747   4.798   5.109  12.585 -1.1491  0.8808 -0.2103
16444TIP3    H270748   4.824   5.106  12.734 -2.8283  1.5830  0.1095
16445TIP3   OH270749   3.748   4.213   3.905  0.3352 -0.1778  0.3383
16445TIP3    H170750   3.752   4.291   3.849 -0.3171  1.7721  2.9058
16445TIP3    H270751   3.671   4.165   3.873 -1.8370  2.4389  1.3614
16446TIP3   OH270752   0.506   4.509   5.493 -0.4598  0.1153 -0.3238
16446TIP3    H170753   0.472   4.594   5.465 -0.6564 -0.0492 -0.5853
16446TIP3    H270754   0.429   4.462   5.524 -0.1511  0.5651  1.2185
16447TIP3   OH270755   4.842   1.575  13.208 -0.1834  0.1829 -0.0929
16447TIP3    H170756   4.826   1.647  13.269  0.7017 -0.4863  0.9396
16447TIP3    H270757   4.822   1.496  13.258 -0.7583 -0.3165 -1.0932
16448TIP3   OH270758   3.256   4.905  12.059  0.8901  0.1459 -0.0296
16448TIP3    H170759   3.326   4.959  12.021  1.8147 -0.5076  0.7323
16448TIP3    H270760   3.206   4.874  11.984  0.0125  2.4818 -0.4696
16449TIP3   OH270761   6.109   5.145  14.809 -0.1428 -0.4127 -0.3258
16449TIP3    H170762   6.163   5.095  14.871  1.5443 -1.0450 -2.2541
16449TIP3    H270763   6.038   5.084  14.785 -0.7477 -0.2023  0.8659
16450TIP3   OH270764   3.241   5.670  11.700 -0.6109 -0.5676  0.0042
16450TIP3    H170765   3.304   5.705  11.763  0.2606 -0.5155 -0.8744
16450TIP3    H270766   3.171   5.735  11.697 -0.4954 -0.4124  0.6740
16451TIP3   OH270767   0.328   4.312   3.203 -0.5090 -0.4170 -1.1642
16451TIP3    H170768   0.404   4.270   3.163  0.5948  1.1637 -0.7860
16451TIP3    H270769   0.365   4.374   3.267 -2.1601 -0.9641  0.3844
16452TIP3   OH270770   4.928   0.829  16.232 -0.2484  0.4827 -0.1854
16452TIP3    H170771   4.923   0.876  16.315  1.5120  1.4961 -0.6254
16452TIP3    H270772   5.015   0.851  16.198 -0.7419 -0.3717 -2.0233
16453TIP3   OH270773   0.004   4.707   0.057 -0.6430  0.2971  0.1609
16453TIP3    H170774  -0.044   4.779   0.097  1.7417 -0.2941  4.4438
16453TIP3    H270775   0.096   4.732   0.065  0.0797 -1.6247 -1.6365
16454TIP3   OH270776   5.982   3.349  13.705  0.0626  0.1609 -0.2329
16454TIP3    H170777   5.904   3.346  13.649 -0.7820  1.8394  0.8166
16454TIP3    H270778   5.967   3.280  13.770 -1.3349  1.5438  0.9476
16455TIP3   OH270779   6.199   3.853   4.540  0.7382  0.2366  0.2867
16455TIP3    H170780   6.134   3.782   4.540  1.3203 -0.3049  0.2817
16455TIP3    H270781   6.241   3.847   4.454 -0.1098  1.4376 -0.2227
16456TIP3   OH270782   0.312   5.746   1.020 -0.0302 -0.4493  0.4280
16456TIP3    H170783   0.390   5.691   1.019  0.5516  0.3744 -0.1972
16456TIP3    H270784   0.298   5.766   1.113  1.1415  0.2797  0.4636
16457TIP3   OH270785   3.026   3.984   2.477  0.7890  0.3912 -0.3259
16457TIP3    H170786   3.119   4.000   2.460  0.9015  1.1768  0.9170
16457TIP3    H270787   2.982   4.066   2.452  0.3729 -0.1541 -1.3758
16458TIP3   OH270788   6.669   1.434   4.185 -0.4666 -0.9432  0.0526
16458TIP3    H170789   6.621   1.491   4.126 -0.7410 -1.9891 -0.7665
16458TIP3    H270790   6.753   1.478   4.200 -0.5376 -0.5066 -0.8474
16459TIP3   OH270791   0.655   0.102  13.924 -0.3720  0.0378 -0.4953
16459TIP3    H170792   0.708   0.047  13.982 -0.0226 -0.9679 -1.7566
16459TIP3    H270793   0.600   0.153  13.983  0.5068 -0.4443  0.7505
16460TIP3   OH270794   0.191   4.457  15.103  0.9197 -0.1916  0.7976
16460TIP3    H170795   0.193   4.406  15.184 -1.8133  0.5473  1.4015
16460TIP3    H270796   0.214   4.394  15.035  2.6843 -0.9632  2.0637
16461TIP3   OH270797   4.943   2.462  12.311  0.0779  0.0202  0.1151
16461TIP3    H170798   5.025   2.488  12.271 -1.0404  0.5657 -1.8887
16461TIP3    H270799   4.875   2.504  12.258 -1.5482 -1.4183  0.9749
16462TIP3   OH270800   6.027   2.150  12.434 -0.1293  0.7139  0.1389
16462TIP3    H170801   5.991   2.231  12.469 -0.9101  0.2731  0.3544
16462TIP3    H270802   6.050   2.098  12.511  1.2292  1.1006  0.0090
16463TIP3   OH270803   1.775   0.978   6.304  0.1497 -0.0793 -0.1303
16463TIP3    H170804   1.730   1.033   6.368  1.1691 -0.1639  0.6800
16463TIP3    H270805   1.793   1.037   6.231  1.7619  0.8394  0.9735
16464TIP3   OH270806   1.407   0.342   2.945  0.3240  0.3233 -0.4693
16464TIP3    H170807   1.420   0.279   2.874  1.0381  1.4509 -1.3550
16464TIP3    H270808   1.358   0.414   2.905 -1.2317 -0.0461  0.7522
16465TIP3   OH270809   2.445   6.252   4.843 -0.6877 -0.3953 -0.1320
16465TIP3    H170810   2.455   6.346   4.833 -1.7849 -0.4693 -2.1665
16465TIP3    H270811   2.517   6.215   4.792  0.8639 -0.6929  2.1516
16466TIP3   OH270812   5.301   6.001  14.281 -0.0849  0.3247 -0.3420
16466TIP3    H170813   5.274   6.033  14.195 -0.0387 -0.7340 -0.7658
16466TIP3    H270814   5.331   5.912  14.264 -0.1024  0.1010  0.7795
16467TIP3   OH270815   5.702   4.978  12.336 -0.7341  0.0913 -0.2796
16467TIP3    H170816   5.619   4.938  12.309 -0.8577  0.4379 -0.4055
16467TIP3    H270817   5.699   4.976  12.432  0.9872 -3.8954 -0.1836
16468TIP3   OH270818   1.887   2.195  15.594  0.2209  0.4485  0.1607
16468TIP3    H170819   1.931   2.123  15.550 -0.7624 -0.8487  1.2652
16468TIP3    H270820   1.859   2.253  15.523  0.9641 -0.2818 -0.7338
16469TIP3   OH270821   3.272   0.677  11.454 -0.0566  0.3384  0.1562
16469TIP3    H170822   3.364   0.659  11.435 -0.2801  0.5539 -1.1494
16469TIP3    H270823   3.269   0.772  11.467 -0.4077  0.5812 -1.6214
16470TIP3   OH270824   2.455   6.045  14.733 -0.1894 -0.4486 -0.2129
16470TIP3    H170825   2.413   5.991  14.800 -0.7547  0.7314  0.3996
16470TIP3    H270826   2.531   6.083  14.777 -0.3639  0.0534 -0.3462
16471TIP3   OH270827   2.596   1.447  14.520 -0.7933  0.4464 -0.3749
16471TIP3    H170828   2.528   1.461  14.585  1.6316 -0.7608  2.5502
16471TIP3    H270829   2.654   1.523  14.529  1.0735 -1.0765  0.9097
16472TIP3   OH270830   1.700   6.746  15.367  0.2830  0.1455  0.1827
16472TIP3    H170831   1.761   6.685  15.409  0.8937  1.1761  0.8218
16472TIP3    H270832   1.631   6.761  15.433  1.0673  1.5044  0.7307
16473TIP3   OH270833   0.265   6.582   3.567  0.2115  0.1480  0.5575
16473TIP3    H170834   0.324   6.657   3.575  0.2530  0.3143 -1.1156
16473TIP3    H270835   0.315   6.508   3.601  1.3412  0.3196 -0.6899
16474TIP3   OH270836   2.428   0.724   5.041 -0.6692  0.1062  0.4475
16474TIP3    H170837   2.396   0.810   5.015 -1.3008  0.3555  1.9815
16474TIP3    H270838   2.417   0.722   5.136 -1.0317 -1.8121  0.3861
16475TIP3   OH270839   4.773   3.365  14.791  0.1887  0.4107 -0.3139
16475TIP3    H170840   4.691   3.324  14.820  0.0414 -0.5535 -2.0613
16475TIP3    H270841   4.789   3.434  14.856 -1.9628  0.5682  0.0952
16476TIP3   OH270842   5.019   4.989   4.737 -0.0986 -0.0358 -0.7138
16476TIP3    H170843   5.023   5.035   4.821 -1.8105  1.0987 -1.2358
16476TIP3    H270844   5.056   5.051   4.674 -0.4265 -0.2124 -1.0794
16477TIP3   OH270845   6.659   2.011  14.885 -0.0711 -0.4685 -0.0492
16477TIP3    H170846   6.751   2.005  14.909 -0.2118 -2.0731  0.1555
16477TIP3    H270847   6.612   2.018  14.968 -0.1199  0.5461 -0.1613
16478TIP3   OH270848   6.571   5.795   3.294 -0.8061 -0.0003  0.1063
16478TIP3    H170849   6.494   5.850   3.278 -0.7003  0.0988 -0.0671
16478TIP3    H270850   6.627   5.810   3.218  0.1442  1.2256  1.0298
16479TIP3   OH270851   5.060   4.167   5.077 -0.0377 -0.6210  0.4498
16479TIP3    H170852   5.076   4.194   5.168  1.3239 -0.0383  0.0416
16479TIP3    H270853   4.989   4.224   5.048 -0.5964 -0.9227  1.1934
16480TIP3   OH270854   3.603   2.349   4.385  0.0452 -0.2872  0.1451
16480TIP3    H170855   3.556   2.362   4.303  0.0962  0.1949  0.1915
16480TIP3    H270856   3.679   2.406   4.378  1.6686 -2.5034 -0.7544
16481TIP3   OH270857   5.673   2.699   1.641 -0.1714  0.4248  0.1062
16481TIP3    H170858   5.735   2.648   1.588  0.2205  1.5642 -0.5539
16481TIP3    H270859   5.597   2.711   1.584 -0.8510 -0.6460  0.7816
16482TIP3   OH270860   1.114   0.146  16.225  0.2923 -0.1027  0.2661
16482TIP3    H170861   1.114   0.117  16.133 -1.1459  0.4608  0.0677
16482TIP3    H270862   1.053   0.086  16.269 -2.1315  2.0505  0.0024
16483TIP3   OH270863   2.123   0.630  15.056 -0.2220  0.0678 -0.3606
16483TIP3    H170864   2.078   0.548  15.034  0.0301 -0.3529  0.6749
16483TIP3    H270865   2.082   0.658  15.137  1.0833 -0.0886  0.3638
16484TIP3   OH270866   6.689   1.204   3.693  0.4551 -0.1378 -0.1933
16484TIP3    H170867   6.630   1.266   3.649  2.1175  0.9168 -0.9745
16484TIP3    H270868   6.689   1.232   3.784 -0.6132 -0.4365 -0.0945
16485TIP3   OH270869   5.040   2.169   5.703  0.3100  0.5481 -1.3113
16485TIP3    H170870   5.039   2.100   5.637 -0.4072  1.4134 -2.2154
16485TIP3    H270871   5.079   2.245   5.659 -0.7298  1.3158 -0.9489
16486TIP3   OH270872   2.580   1.695   6.275 -0.7847 -0.3861  0.3322
16486TIP3    H170873   2.525   1.767   6.305 -1.3836 -1.3456  1.6554
16486TIP3    H270874   2.663   1.707   6.322 -1.7579 -1.9471  2.5907
16487TIP3   OH270875   4.632   3.734   3.027 -0.1979  0.4680  0.1358
16487TIP3    H170876   4.619   3.827   3.048  2.0598  0.3902  2.1751
16487TIP3    H270877   4.678   3.699   3.103  0.4326 -1.9521 -1.3098
16488TIP3   OH270878   5.286   0.516   5.395  0.1576  0.3913 -0.4476
16488TIP3    H170879   5.283   0.470   5.311 -0.0939  2.3587 -1.5457
16488TIP3    H270880   5.380   0.531   5.410  0.2744 -0.8683  0.1506
16489TIP3   OH270881   2.396   0.500  16.189 -0.3175 -0.3632  0.5534
16489TIP3    H170882   2.307   0.476  16.213 -0.6530  1.1282  0.8736
16489TIP3    H270883   2.448   0.479  16.266 -0.3536 -1.3655  0.3138
16490TIP3   OH270884   0.942   5.081  13.900  0.2203  0.0412 -0.1094
16490TIP3    H170885   0.989   5.139  13.841 -0.2375  1.3036  0.7551
16490TIP3    H270886   0.850   5.092  13.877  0.1360 -0.4002  0.0069
16491TIP3   OH270887   6.727   4.972  17.027 -0.4484  0.0034  0.6154
16491TIP3    H170888   6.717   4.888  17.073  2.3294 -0.5619  0.2829
16491TIP3    H270889   6.668   5.032  17.073  0.3899 -1.1823  3.3383
16492TIP3   OH270890   6.312   5.742   0.561 -0.3272 -0.0127 -0.1014
16492TIP3    H170891   6.223   5.752   0.526  0.3322 -0.1620 -1.8803
16492TIP3    H270892   6.343   5.832   0.572  1.2354  0.1202 -4.6633
16493TIP3   OH270893   5.764   3.455  11.772 -0.3064  0.0054  0.2998
16493TIP3    H170894   5.783   3.535  11.723 -0.8769 -1.4927 -2.4652
16493TIP3    H270895   5.826   3.457  11.845 -1.7305  3.9882  1.5423
16494TIP3   OH270896   3.899   4.550   4.409  0.0895  0.4040  0.4779
16494TIP3    H170897   3.928   4.584   4.493  1.1134  0.0495  0.2754
16494TIP3    H270898   3.946   4.467   4.399  0.6663  0.8641 -0.8282
16495TIP3   OH270899   5.130   6.592   0.914  0.1373  0.0238 -0.4845
16495TIP3    H170900   5.188   6.533   0.963 -0.8560 -0.3326  0.2669
16495TIP3    H270901   5.057   6.537   0.887 -0.4203  0.7328 -0.4396
16496TIP3   OH270902   0.309   4.710  13.464 -0.1303  0.5210 -0.6843
16496TIP3    H170903   0.346   4.638  13.412  3.3517  0.4596  1.6714
16496TIP3    H270904   0.249   4.667  13.525  0.6614 -0.2352 -0.4163
16497TIP3   OH270905   4.703   0.186  11.786 -0.4975  0.0303  0.2366
16497TIP3    H170906   4.711   0.165  11.879  1.2884 -2.1685 -0.3741
16497TIP3    H270907   4.791   0.177  11.751 -0.9548  1.8273 -1.5072
16498TIP3   OH270908   3.311   2.469  14.203  0.3314 -0.0688  0.7451
16498TIP3    H170909   3.295   2.396  14.144  1.8879 -0.4168  0.7422
16498TIP3    H270910   3.273   2.545  14.159 -0.4501 -0.7042  0.3161
16499TIP3   OH270911   4.953   4.119   2.189  0.4533  1.0317 -0.0478
16499TIP3    H170912   5.034   4.161   2.219  0.5978  0.5798  0.2118
16499TIP3    H270913   4.947   4.039   2.243 -0.3132  1.2070  0.1272
16500TIP3   OH270914   4.534   6.284  10.245  0.0007  0.9584  0.1099
16500TIP3    H170915   4.519   6.190  10.236 -0.1186  0.9401  0.4994
16500TIP3    H270916   4.620   6.298  10.206  0.3872  0.5547  0.8167
16501TIP3   OH270917   3.343   2.475  13.228 -0.3144  0.0183  0.2434
16501TIP3    H170918   3.249   2.471  13.213 -0.2792 -2.4661  0.3394
16501TIP3    H270919   3.354   2.458  13.322  0.2951 -1.5176 -0.0872
16502TIP3   OH270920   3.453   0.413  16.847 -0.3995  0.4129 -0.1187
16502TIP3    H170921   3.543   0.442  16.856 -0.4495  0.1348  1.4925
16502TIP3    H270922   3.420   0.460  16.771  1.5581 -0.6712 -1.6711
16503TIP3   OH270923   0.101   3.106   5.339  0.5470  0.2580  0.2384
16503TIP3    H170924   0.128   3.030   5.288  2.1655  0.2979  1.0200
16503TIP3    H270925   0.090   3.072   5.428  0.8179  0.8475  0.4964
16504TIP3   OH270926   4.620   5.157   4.159 -0.2001  0.9196  0.6992
16504TIP3    H170927   4.577   5.174   4.075 -1.7522  0.4841  1.3866
16504TIP3    H270928   4.709   5.189   4.147 -0.2420  0.3516 -1.2905
16505TIP3   OH270929   5.579   6.423   4.257 -0.2546  0.1524  0.7843
16505TIP3    H170930   5.641   6.495   4.267  0.5588 -0.5968  1.1207
16505TIP3    H270931   5.626   6.346   4.287 -0.6694 -0.7576 -0.8392
16506TIP3   OH270932   5.605   4.654   4.297 -0.4858  0.1894  0.1434
16506TIP3    H170933   5.619   4.626   4.387  1.1519  0.1988 -0.0966
16506TIP3    H270934   5.592   4.749   4.303 -0.3976  0.1872  0.3735
16507TIP3   OH270935   4.968   0.699  14.725 -0.4265  0.2571  0.4703
16507TIP3    H170936   4.901   0.692  14.793 -2.4262  2.4470 -1.2022
16507TIP3    H270937   4.994   0.608  14.709 -1.1086 -0.4250  2.9618
16508TIP3   OH270938   5.511   3.884  15.982 -0.1536 -0.5799 -0.4118
16508TIP3    H170939   5.490   3.842  15.899  1.0445 -2.6689  0.3129
16508TIP3    H270940   5.475   3.973  15.974 -1.0696 -1.1329 -2.6875
16509TIP3   OH270941   3.059   2.357  11.188 -0.0012 -0.3713 -0.1105
16509TIP3    H170942   2.988   2.422  11.189  0.9401  0.6721  0.8692
16509TIP3    H270943   3.024   2.283  11.237 -0.9297 -0.4576 -0.8679
16510TIP3   OH270944   0.713   2.930   1.005 -0.2439 -0.2148  0.4202
16510TIP3    H170945   0.707   3.006   1.063 -1.3696  0.8097 -0.9837
16510TIP3    H270946   0.623   2.899   0.997  0.2026 -1.6627  0.9213
16511TIP3   OH270947   3.538   3.515  12.419 -0.0290 -0.5894 -0.0680
16511TIP3    H170948   3.570   3.425  12.430  0.3211 -0.5130 -0.4383
16511TIP3    H270949   3.465   3.507  12.357 -0.7754 -0.7726  0.8306
16512TIP3   OH270950   6.751   1.107  13.444  0.1174  0.3011  0.2246
16512TIP3    H170951   6.803   1.184  13.469  2.4297 -0.9035 -0.7059
16512TIP3    H270952   6.685   1.141  13.384  0.8149  1.6338  0.1990
16513TIP3   OH270953   6.196   6.377  11.951  0.3196  0.0178 -0.2236
16513TIP3    H170954   6.208   6.397  11.859  0.8717 -1.8572 -0.5867
16513TIP3    H270955   6.143   6.297  11.952  0.1442  0.1337  1.0791
16514TIP3   OH270956   5.034   6.006  14.840  0.0546 -0.9164 -0.3075
16514TIP3    H170957   5.039   5.935  14.904  1.1177 -1.0078 -0.4713
16514TIP3    H270958   5.120   6.048  14.844 -1.3550  1.8967  1.4997
16515TIP3   OH270959   4.377   5.615  13.789 -0.0524 -0.8035 -0.1422
16515TIP3    H170960   4.303   5.648  13.739 -0.4326 -0.4457  0.6667
16515TIP3    H270961   4.397   5.684  13.852 -0.7710 -2.0399  1.4645
16516TIP3   OH270962   5.498   1.031   3.079  0.2369 -0.1314  0.2105
16516TIP3    H170963   5.462   1.119   3.070 -0.1979 -0.2567  0.7320
16516TIP3    H270964   5.423   0.976   3.097  0.2585 -0.9015 -1.8779
16517TIP3   OH270965   5.604   5.809  15.395  0.9041 -0.5386  0.1040
16517TIP3    H170966   5.548   5.841  15.465 -0.1809 -0.4113 -0.8128
16517TIP3    H270967   5.691   5.843  15.416  0.6128 -0.6336  1.4610
16518TIP3   OH270968   0.201   2.140   0.489 -0.1239 -0.1422 -0.8448
16518TIP3    H170969   0.229   2.091   0.566 -0.0096 -0.3914 -1.0418
16518TIP3    H270970   0.204   2.076   0.418 -1.2098 -0.1766 -0.8708
16519TIP3   OH270971   2.318   6.110  17.026 -0.4717 -0.2563 -0.1393
16519TIP3    H170972   2.334   6.016  17.029 -3.0760 -0.7278 -0.3273
16519TIP3    H270973   2.355   6.143  17.108  2.9717 -0.9699 -1.2966
16520TIP3   OH270974   6.021   4.053   5.915 -0.4848 -0.3052  0.3348
16520TIP3    H170975   5.943   4.051   5.859  1.7233  0.3776 -2.8853
16520TIP3    H270976   6.070   3.974   5.891  0.2372 -0.2917  1.7133
16521TIP3   OH270977   1.202   3.115  14.930  0.3718  0.3521 -0.5550
16521TIP3    H170978   1.115   3.085  14.956  0.4548 -0.7559 -1.5037
16521TIP3    H270979   1.203   3.208  14.955 -1.0898  0.3910 -0.5530
16522TIP3   OH270980   0.680   5.438  12.199 -0.3000 -0.2970 -0.4426
16522TIP3    H170981   0.757   5.494  12.195  0.0615 -0.7122  0.5621
16522TIP3    H270982   0.658   5.420  12.108  1.6145 -1.3071 -0.7251
16523TIP3   OH270983   5.055   6.070  11.722  0.5635 -0.0499  0.1125
16523TIP3    H170984   5.068   6.010  11.648 -2.6275 -1.6626  0.7664
16523TIP3    H270985   5.102   6.149  11.698 -0.3397 -0.5777 -3.6092
16524TIP3   OH270986   3.769   5.392  10.778 -0.0787  0.7663 -0.1861
16524TIP3    H170987   3.715   5.397  10.857 -2.4187  1.6221 -1.7953
16524TIP3    H270988   3.758   5.302  10.747 -0.1176  0.7857 -0.2277
16525TIP3   OH270989   3.987   3.309  16.615  0.1022 -0.2874  0.0444
16525TIP3    H170990   3.934   3.232  16.594 -0.2325  0.1560 -0.7623
16525TIP3    H270991   3.989   3.312  16.711  2.0294 -2.5954  0.1205
16526TIP3   OH270992   3.318   3.243   4.522  0.3541  0.2489 -0.6063
16526TIP3    H170993   3.374   3.311   4.559 -3.2412  2.3718  1.1739
16526TIP3    H270994   3.306   3.269   4.431  1.0999  0.5717 -0.6123
16527TIP3   OH270995   6.756   0.983   0.047 -0.1178  0.0125  0.4790
16527TIP3    H170996   6.812   0.999  -0.029  1.9141 -2.5411  1.3577
16527TIP3    H270997   6.667   0.995   0.014  0.7220 -0.8939 -2.2820
16528TIP3   OH270998   0.661   5.607  13.220 -0.2265  0.4333 -0.2425
16528TIP3    H170999   0.729   5.547  13.250  1.2540  1.5822 -1.2709
16528TIP3    H271000   0.641   5.579  13.131  0.8176  1.7439 -0.9083
16529TIP3   OH271001   4.476   5.366   4.534  0.3898  0.2218  0.3999
16529TIP3    H171002   4.393   5.332   4.568 -0.2656  0.2987 -1.0826
16529TIP3    H271003   4.535   5.291   4.537  0.3181  0.2082  1.6151
16530TIP3   OH271004   2.344   4.195  17.137 -0.8449  0.0987 -0.0683
16530TIP3    H171005   2.308   4.221  17.222 -0.2348  1.3788 -0.1914
16530TIP3    H271006   2.386   4.274  17.104 -1.7047 -0.1776 -1.9037
16531TIP3   OH271007   1.464   5.034   5.461 -0.3702 -0.2082  0.1566
16531TIP3    H171008   1.520   4.965   5.425 -0.7676 -0.9388  0.9415
16531TIP3    H271009   1.473   5.027   5.556  0.1855  1.3205  0.2388
16532TIP3   OH271010   4.729   4.863  16.994  0.1122  0.1099 -0.5075
16532TIP3    H171011   4.676   4.933  16.956  0.2557 -0.4010 -1.6914
16532TIP3    H271012   4.794   4.842  16.926  0.9162 -0.2556  0.3543
16533TIP3   OH271013   5.876   5.196  11.338 -0.1100  0.2206  0.0879
16533TIP3    H171014   5.867   5.230  11.249  1.6257 -2.5859 -1.2469
16533TIP3    H271015   5.969   5.202  11.357 -0.3629  0.0801  1.3939
16534TIP3   OH271016   4.551   2.061   4.116  0.1963 -0.2752  0.4341
16534TIP3    H171017   4.504   2.063   4.199 -0.9460 -0.3816 -0.2000
16534TIP3    H271018   4.518   2.137   4.069 -0.4414 -1.1693 -0.5961
16535TIP3   OH271019   1.832   4.782  12.149 -0.1040  0.4905 -0.4814
16535TIP3    H171020   1.869   4.835  12.219 -3.0604  1.3641  0.4952
16535TIP3    H271021   1.831   4.840  12.073  2.0684 -0.1018 -0.9967
16536TIP3   OH271022   2.034   4.291  11.166 -0.5184  0.4218 -0.2139
16536TIP3    H171023   1.971   4.341  11.218 -2.1410 -2.4963  0.7161
16536TIP3    H271024   1.999   4.295  11.077 -0.8271  0.6125 -0.0838
16537TIP3   OH271025   4.638   3.726   4.454 -0.0653  0.1135 -0.8881
16537TIP3    H171026   4.564   3.744   4.512 -0.5762 -2.8056 -0.5448
16537TIP3    H271027   4.603   3.737   4.366 -0.3194  0.8985 -0.6861
16538TIP3   OH271028   1.203   0.249  10.613  0.2438 -0.4369  0.1673
16538TIP3    H171029   1.291   0.258  10.576 -0.0807 -0.8584 -0.7153
16538TIP3    H271030   1.174   0.339  10.627  1.3283 -0.2988  1.7155
16539TIP3   OH271031   5.328   5.433  11.893  0.4112 -0.1279 -0.4489
16539TIP3    H171032   5.336   5.342  11.920 -0.6283  0.1106  0.7234
16539TIP3    H271033   5.286   5.429  11.807  1.5400 -0.7999 -0.9684
16540TIP3   OH271034   6.749   1.836  14.549  0.5997 -0.2492  0.1135
16540TIP3    H171035   6.690   1.855  14.476  1.0639 -1.5318 -0.6232
16540TIP3    H271036   6.832   1.876  14.523  0.8586 -0.9966 -0.2367
16541TIP3   OH271037   6.278   1.813  16.644 -0.4261  0.2389 -0.0608
16541TIP3    H171038   6.242   1.879  16.586  0.9511  0.7197 -0.3878
16541TIP3    H271039   6.320   1.750  16.586  0.3633  0.3601  0.3759
16542TIP3   OH271040   3.237   0.563  14.679 -0.5240  0.0735  0.1733
16542TIP3    H171041   3.217   0.567  14.586 -0.2066  2.1917  0.1676
16542TIP3    H271042   3.176   0.625  14.719  0.7094  0.7028  1.1077
16543TIP3   OH271043   4.880   5.746   2.498  0.0304 -0.1932  0.1753
16543TIP3    H171044   4.844   5.821   2.544  0.5119  0.1216  0.0370
16543TIP3    H271045   4.950   5.714   2.555  0.0986 -0.2889  0.0375
16544TIP3   OH271046   5.150   1.944   4.879  0.4308 -0.3104  0.1485
16544TIP3    H171047   5.217   1.953   4.812  1.0830  1.3200  0.9815
16544TIP3    H271048   5.070   1.979   4.838  1.0525  1.6140  0.5268
16545TIP3   OH271049   3.702   4.495  16.214 -0.1583  0.4882 -0.3371
16545TIP3    H171050   3.737   4.584  16.210 -0.7240  0.7366  0.0787
16545TIP3    H271051   3.653   4.484  16.133 -0.0132  0.5292 -0.4301
16546TIP3   OH271052   6.614   2.433   2.948 -0.2437  0.7830 -0.1789
16546TIP3    H171053   6.584   2.356   2.897 -0.6041  1.4868 -1.0506
16546TIP3    H271054   6.634   2.498   2.881  1.2522  1.0308  0.5161
16547TIP3   OH271055   5.735   5.599  15.192  0.0706  0.5616 -0.4664
16547TIP3    H171056   5.747   5.675  15.135  1.1267  1.0389  0.3702
16547TIP3    H271057   5.806   5.606  15.256 -0.0040 -0.9751 -0.2059
16548TIP3   OH271058   4.607   5.583  11.620  0.4223  0.8051  0.3558
16548TIP3    H171059   4.634   5.491  11.615 -0.2772  0.6836 -1.8631
16548TIP3    H271060   4.653   5.617  11.696  0.5406 -1.4371  1.3364
16549TIP3   OH271061   1.258   1.842  11.807 -0.2337  0.2989 -0.5304
16549TIP3    H171062   1.289   1.917  11.857 -0.4980 -0.4956  0.8628
16549TIP3    H271063   1.165   1.859  11.793 -0.0060  0.8535 -1.3478
16550TIP3   OH271064   5.190   4.058  16.378 -0.2943  0.0642 -0.3102
16550TIP3    H171065   5.129   3.987  16.359 -1.2939  0.6162  0.7652
16550TIP3    H271066   5.145   4.112  16.443  1.2874  0.5560  0.4119
16551TIP3   OH271067   3.797   5.531  12.019  0.2734  0.3059  0.0471
16551TIP3    H171068   3.773   5.526  11.927  0.5982  2.1465 -0.1611
16551TIP3    H271069   3.893   5.535  12.019  0.2843  0.0996  0.4729
16552TIP3   OH271070   2.374   4.568   5.427 -0.1172  0.4009  0.0506
16552TIP3    H171071   2.396   4.616   5.347 -0.6532  0.5463 -0.0177
16552TIP3    H271072   2.445   4.587   5.487  0.0731  0.6444 -0.2461
16553TIP3   OH271073   4.321   4.646   0.447 -0.0770  0.8916 -0.4826
16553TIP3    H171074   4.404   4.600   0.461 -1.5583 -0.9467  2.6851
16553TIP3    H271075   4.324   4.719   0.509 -1.2808  0.1520  0.4655
16554TIP3   OH271076   4.311   6.709   1.589 -0.3310  0.3286  0.4211
16554TIP3    H171077   4.375   6.673   1.650  1.0365 -1.6949 -2.1068
16554TIP3    H271078   4.363   6.751   1.521 -1.7181 -0.4746 -1.1704
16555TIP3   OH271079   5.693   4.786  14.795  0.1951 -0.0823 -0.0711
16555TIP3    H171080   5.638   4.840  14.851 -1.6008 -0.7124 -1.1860
16555TIP3    H271081   5.640   4.773  14.716  1.9083 -0.7961 -1.1165
16556TIP3   OH271082   6.534   5.045  11.469  0.3231  0.6527  0.0111
16556TIP3    H171083   6.628   5.049  11.448  0.1529  2.1625 -0.5439
16556TIP3    H271084   6.491   5.078  11.390 -0.6176  1.0552  0.6898
16557TIP3   OH271085   2.913   4.374   3.524  0.6265  0.1359  0.0664
16557TIP3    H171086   2.968   4.426   3.465  2.0342 -1.5097 -0.1198
16557TIP3    H271087   2.919   4.418   3.608  1.8838  0.2222 -0.0639
16558TIP3   OH271088   6.372   4.041   2.828  0.4217  0.3397 -0.4981
16558TIP3    H171089   6.341   3.961   2.870  0.4404  0.3685 -0.4297
16558TIP3    H271090   6.328   4.112   2.874  1.3915  0.4386  0.3054
16559TIP3   OH271091   5.552   3.113  16.519  0.2715  0.4215  0.3404
16559TIP3    H171092   5.621   3.179  16.526  0.0089  0.9600 -1.8566
16559TIP3    H271093   5.531   3.091  16.609  3.8185 -0.2628  1.0819
16560TIP3   OH271094   5.949   5.501  14.869 -0.2701 -0.1773 -0.0187
16560TIP3    H171095   6.002   5.423  14.880  0.6788  0.5706  0.7841
16560TIP3    H271096   5.898   5.508  14.950  1.0859  1.0960  0.7596
16561TIP3   OH271097   3.040   1.828  11.917  0.0921 -0.1705  0.5803
16561TIP3    H171098   3.063   1.907  11.869 -1.9777 -0.5811 -1.1898
16561TIP3    H271099   3.075   1.842  12.005  1.7492  1.7009 -0.3460
16562TIP3   OH271100   2.592   2.874  16.374  0.3851  0.0345  0.0120
16562TIP3    H171101   2.534   2.940  16.413  1.5802  0.6483  0.7918
16562TIP3    H271102   2.680   2.909  16.386  0.9876 -1.3252 -0.3050
16563TIP3   OH271103   6.704   5.381   4.426 -0.0602  0.5584 -0.2719
16563TIP3    H171104   6.625   5.351   4.472 -0.7888  1.8647 -0.6350
16563TIP3    H271105   6.720   5.315   4.359  0.8630 -1.2269  1.6804
16564TIP3   OH271106   2.466   3.488  17.087  0.3952  0.0079  0.4609
16564TIP3    H171107   2.506   3.461  17.169  1.3339  0.1740  0.0649
16564TIP3    H271108   2.373   3.498  17.107  0.8225  1.4202  1.8523
16565TIP3   OH271109   1.603   2.181   3.543  0.4113 -0.6048  0.2786
16565TIP3    H171110   1.691   2.142   3.535  1.2126  0.9648  1.1429
16565TIP3    H271111   1.619   2.268   3.579 -1.6432 -0.9317  2.0927
16566TIP3   OH271112   6.519   2.039  13.885  0.1997 -0.3797 -0.0949
16566TIP3    H171113   6.477   2.117  13.923  1.2418 -0.3575  1.0567
16566TIP3    H271114   6.563   2.071  13.807  0.9658  0.2838  0.5942
16567TIP3   OH271115   2.684   6.167   4.712 -0.5233 -0.2477 -0.1950
16567TIP3    H171116   2.743   6.159   4.637  0.0225 -0.2288  0.2246
16567TIP3    H271117   2.725   6.114   4.780 -2.1249 -2.0375 -0.5726
16568TIP3   OH271118   4.791   5.959  10.096 -0.6229 -0.4211 -0.1818
16568TIP3    H171119   4.860   5.923  10.152 -0.2836  0.5488  0.0364
16568TIP3    H271120   4.816   5.934  10.007 -0.3229 -0.5983 -0.0472
16569TIP3   OH271121   2.431   1.345   1.851 -0.0326 -0.1355  0.3734
16569TIP3    H171122   2.472   1.393   1.923  0.2438 -0.1015  0.1920
16569TIP3    H271123   2.353   1.306   1.890  0.3333 -0.4513  0.7923
16570TIP3   OH271124   4.781   4.069  12.216  0.3914  0.2011 -0.0855
16570TIP3    H171125   4.807   4.149  12.262  0.4986  0.1526 -0.0627
16570TIP3    H271126   4.731   4.020  12.282  1.7133 -0.4967  0.4094
16571TIP3   OH271127   1.824   6.137  13.380 -0.8711 -0.5578  0.1213
16571TIP3    H171128   1.843   6.204  13.445 -1.0976 -1.0013  0.6556
16571TIP3    H271129   1.737   6.105  13.403 -0.7404 -1.0758 -0.0894
16572TIP3   OH271130   5.495   6.286  13.601  0.1201 -0.3571  0.4753
16572TIP3    H171131   5.503   6.337  13.682 -0.4030  2.6811 -1.3164
16572TIP3    H271132   5.408   6.309  13.567  0.1490 -1.9526 -0.7365
16573TIP3   OH271133   1.791   3.360   2.877 -0.5802  0.0724 -0.1535
16573TIP3    H171134   1.752   3.303   2.812  0.7173 -0.6710 -0.3084
16573TIP3    H271135   1.850   3.417   2.827 -2.4039  2.0505 -0.0904
16574TIP3   OH271136   3.501   0.530   4.823  0.4892  0.3208 -0.0922
16574TIP3    H171137   3.451   0.607   4.799  0.8058  0.6112  0.1694
16574TIP3    H271138   3.521   0.487   4.740 -0.0540  0.2876 -0.2062
16575TIP3   OH271139   3.703   4.072  11.779  0.3248 -0.2943  0.2728
16575TIP3    H171140   3.625   4.124  11.765 -0.0741 -0.9314  0.1140
16575TIP3    H271141   3.717   4.074  11.874  1.5082  1.8218  0.0815
16576TIP3   OH271142   5.912   3.278   0.718 -0.4740 -0.2450 -0.2533
16576TIP3    H171143   5.903   3.358   0.665 -0.3163 -0.9045 -1.2922
16576TIP3    H271144   5.938   3.310   0.804 -2.4107  0.9558 -0.0991
16577TIP3   OH271145   5.148   1.972   5.355 -0.0121  0.2363 -0.2365
16577TIP3    H171146   5.199   2.046   5.387 -1.8792  2.0819 -1.4368
16577TIP3    H271147   5.088   1.950   5.426  0.2529  0.1190 -0.0461
16578TIP3   OH271148   2.628   1.880   3.992  0.4476 -0.0623 -0.2001
16578TIP3    H171149   2.622   1.869   4.087  1.3549 -2.7021 -0.4126
16578TIP3    H271150   2.721   1.876   3.973  0.4969  3.3190 -0.9349
16579TIP3   OH271151   0.396   4.028   1.360  0.2700  0.2618  0.0660
16579TIP3    H171152   0.460   4.098   1.370  1.2151 -0.4385 -1.0949
16579TIP3    H271153   0.337   4.058   1.291  0.5911 -0.0336 -0.3336
16580TIP3   OH271154   1.374   1.054  11.914 -0.0690  0.1789 -0.0919
16580TIP3    H171155   1.369   1.148  11.932 -0.4066 -0.0409  0.9963
16580TIP3    H271156   1.312   1.040  11.843 -0.4608  0.6889  0.1459
16581TIP3   OH271157   0.701   5.950  13.342  0.2545 -0.2283  0.0947
16581TIP3    H171158   0.771   5.906  13.389  0.2584  0.4585  0.7392
16581TIP3    H271159   0.653   5.998  13.409  0.0847  0.5165 -0.5522
16582TIP3   OH271160   0.920   2.610  13.700  0.8690  0.4847 -0.0962
16582TIP3    H171161   0.997   2.557  13.719 -0.2951 -0.7907  1.1736
16582TIP3    H271162   0.901   2.593  13.607  1.8625  0.5036 -0.3085
16583TIP3   OH271163   2.166   2.692   4.782  0.3729  0.2135 -0.8271
16583TIP3    H171164   2.158   2.787   4.771 -0.0623 -0.0935 -3.7458
16583TIP3    H271165   2.084   2.666   4.824 -1.4702  0.6944 -3.8965
16584TIP3   OH271166   1.079   6.408   5.554  0.0266 -0.1982 -0.9792
16584TIP3    H171167   1.163   6.398   5.597 -1.2874  0.5910  1.8629
16584TIP3    H271168   1.048   6.319   5.540 -0.2299 -0.4716  1.1906
16585TIP3   OH271169   6.278   5.743   1.251  0.1050 -0.4936  0.3919
16585TIP3    H171170   6.215   5.696   1.305  0.5859 -3.2233 -1.3303
16585TIP3    H271171   6.363   5.703   1.271  0.3583 -1.2269 -1.9294
16586TIP3   OH271172   1.838   2.382   0.659 -0.2950  0.2810 -0.2848
16586TIP3    H171173   1.899   2.425   0.718  0.7703 -1.8217  0.1799
16586TIP3    H271174   1.781   2.453   0.628  2.0707  2.1877 -0.3870
16587TIP3   OH271175   1.234   3.446   4.456 -0.1033 -0.4024 -0.0853
16587TIP3    H171176   1.167   3.512   4.473 -0.2824 -0.4487 -0.6117
16587TIP3    H271177   1.232   3.389   4.533 -1.6126 -1.2066 -0.6919
16588TIP3   OH271178   4.619   0.018   4.918  0.4333  0.3063  0.1561
16588TIP3    H171179   4.660  -0.044   4.978 -2.1089 -0.4887  1.1163
16588TIP3    H271180   4.581  -0.036   4.849 -0.5338  0.8834  0.2279
16589TIP3   OH271181   1.599   4.427   3.032  0.5532 -0.1294  0.5448
16589TIP3    H171182   1.627   4.505   2.984  1.2190  0.2515  1.5351
16589TIP3    H271183   1.623   4.354   2.975  1.2382  0.3208  0.2433
16590TIP3   OH271184   2.185   2.736   1.725  0.2286  0.6337  0.3957
16590TIP3    H171185   2.238   2.809   1.694  0.8662  0.7139  1.6515
16590TIP3    H271186   2.095   2.764   1.709  0.5417  0.0165 -2.8100
16591TIP3   OH271187   2.866   2.389  16.521  0.0365  0.4308 -0.0501
16591TIP3    H171188   2.799   2.330  16.486  0.3200 -0.2273  0.5069
16591TIP3    H271189   2.848   2.392  16.615  1.8028 -1.0763  0.3627
16592TIP3   OH271190   5.094   1.716   3.221  0.4667 -0.9929  0.0318
16592TIP3    H171191   5.057   1.666   3.294  0.3124  0.8195  1.2125
16592TIP3    H271192   5.142   1.787   3.262 -0.7779  0.8661 -1.6485
16593TIP3   OH271193   5.832   6.490  12.386 -0.7102  0.4550  0.3472
16593TIP3    H171194   5.847   6.521  12.297  0.6144  2.1148  1.1242
16593TIP3    H271195   5.902   6.426  12.400 -1.8286 -0.9470 -0.3077
16594TIP3   OH271196   4.621   1.114  15.153 -0.3133 -0.9657 -0.3541
16594TIP3    H171197   4.614   1.180  15.084  2.8866 -1.2168 -1.0085
16594TIP3    H271198   4.696   1.141  15.205  0.2128 -3.3249  0.1909
16595TIP3   OH271199   4.734   3.953   4.963  0.1190 -0.0527  0.1219
16595TIP3    H171200   4.735   4.035   4.913 -1.4953  0.3063  0.6625
16595TIP3    H271201   4.815   3.908   4.937  0.8034  1.5108 -0.5052
16596TIP3   OH271202   2.367   3.372   4.269 -0.4683 -0.0842 -0.2653
16596TIP3    H171203   2.299   3.414   4.219  0.8304  0.8050 -1.3109
16596TIP3    H271204   2.341   3.280   4.273 -1.4942  0.1741 -1.0052
16597TIP3   OH271205   5.226   5.287   1.037  0.3884  0.3864 -0.2068
16597TIP3    H171206   5.196   5.302   1.126 -0.5166 -0.6479 -0.3321
16597TIP3    H271207   5.229   5.375   0.998  2.7852  1.0845  1.4396
16598TIP3   OH271208   6.078   5.307   1.405 -0.1558  0.3739  0.5115
16598TIP3    H171209   6.125   5.268   1.478  0.9072  0.5739 -0.0516
16598TIP3    H271210   5.987   5.279   1.417  0.2361 -0.6421  1.2058
16599TIP3   OH271211   4.725   1.928   2.404 -0.6820  0.2186  0.2450
16599TIP3    H171212   4.683   1.844   2.420 -0.9616  0.5823  1.4734
16599TIP3    H271213   4.667   1.973   2.343 -0.5581 -0.4516 -0.3740
16600TIP3   OH271214   3.242   5.049   4.970  0.1833 -0.4223  0.5105
16600TIP3    H171215   3.328   5.024   5.003 -0.4996 -4.0753 -0.2246
16600TIP3    H271216   3.260   5.107   4.895  2.1298 -3.0313 -1.1319
16601TIP3   OH271217   4.182   3.299   7.348 -0.5042  0.9775 -0.2055
16601TIP3    H171218   4.105   3.328   7.298 -1.3189  0.3068  0.6558
16601TIP3    H271219   4.146   3.257   7.426  0.6001 -3.4830 -1.9426
16602TIP3   OH271220   3.405   4.293   4.262  0.7851  0.3379 -0.2407
16602TIP3    H171221   3.423   4.286   4.169 -2.7604 -0.5557 -0.9400
16602TIP3    H271222   3.373   4.206   4.287 -1.3143  1.4518  1.0774
16603TIP3   OH271223   4.075   0.575  16.558  0.2905  0.6412  0.4727
16603TIP3    H171224   4.093   0.603  16.469  0.7253 -2.9897 -0.6794
16603TIP3    H271225   3.997   0.520  16.551 -1.0871  2.2360  2.7379
16604TIP3   OH271226   6.550   3.420  14.154  0.7003 -0.0585  0.2847
16604TIP3    H171227   6.464   3.407  14.194  0.2228  0.0836 -0.6969
16604TIP3    H271228   6.559   3.515  14.146  0.8341 -0.0843  0.1329
16605TIP3   OH271229   6.463   2.230   4.192 -0.0682  0.1925  0.6029
16605TIP3    H171230   6.402   2.303   4.183 -0.2301 -0.1080 -0.8680
16605TIP3    H271231   6.418   2.167   4.247 -1.0145  0.0681 -0.3036
16606TIP3   OH271232   5.705   3.173   0.816  0.1121  0.2636  0.7749
16606TIP3    H171233   5.738   3.085   0.833  0.3735  0.6668  2.3530
16606TIP3    H271234   5.780   3.219   0.779  0.6490  0.4832  2.1104
16607TIP3   OH271235   2.889   1.259   5.838  0.2187 -0.6077  0.1174
16607TIP3    H171236   2.924   1.348   5.832 -0.0762 -0.4716  0.4410
16607TIP3    H271237   2.949   1.207   5.784 -0.9325  0.1860 -2.0063
16608TIP3   OH271238   4.134   2.099   0.665 -0.1191  0.4428  0.4941
16608TIP3    H171239   4.212   2.154   0.668  1.8163 -2.2723  2.4310
16608TIP3    H271240   4.112   2.083   0.757 -1.4105 -0.8951 -0.0228
16609TIP3   OH271241   4.457   1.519  12.373 -0.3194 -0.4773  0.1494
16609TIP3    H171242   4.425   1.497  12.460 -0.5587  0.6277  0.3572
16609TIP3    H271243   4.469   1.614  12.375  2.0186 -0.7419 -0.2594
16610TIP3   OH271244   4.164   4.257   4.783 -1.0924  0.3664  0.4774
16610TIP3    H171245   4.216   4.317   4.729  1.1453 -1.4251  0.5852
16610TIP3    H271246   4.177   4.288   4.872  0.0752 -0.2760  0.5359
16611TIP3   OH271247   3.994   0.302   0.761  0.3490  0.0566 -0.0685
16611TIP3    H171248   4.014   0.375   0.820 -2.7481  0.7008  0.2396
16611TIP3    H271249   3.995   0.341   0.674 -0.9022  0.3705  0.0608
16612TIP3   OH271250   3.144   6.505  11.352 -0.3413  0.0527  0.1033
16612TIP3    H171251   3.133   6.433  11.290  0.4061 -0.2043  0.2574
16612TIP3    H271252   3.238   6.504  11.373 -0.4679  0.5686  0.7102
16613TIP3   OH271253   3.053   3.167  14.709  0.0948  0.4828 -0.1370
16613TIP3    H171254   3.063   3.203  14.797  0.8225 -1.3528  0.5434
16613TIP3    H271255   2.970   3.203  14.678 -2.0985 -1.8150  2.7664
16614TIP3   OH271256   4.746   3.056   0.573 -0.7760 -0.5012  0.0183
16614TIP3    H171257   4.821   3.067   0.514 -0.9073  1.5317  0.1753
16614TIP3    H271258   4.682   3.006   0.522  0.1181 -0.9566 -0.6515
16615TIP3   OH271259   3.778   1.002   1.071  0.7707 -0.1543 -0.1174
16615TIP3    H171260   3.770   0.939   1.143 -0.0527 -1.3296 -1.2161
16615TIP3    H271261   3.690   1.007   1.033  1.2452  0.2575 -1.1836
16616TIP3   OH271262   0.501   0.572   3.087  0.0736  0.3652 -0.2843
16616TIP3    H171263   0.502   0.563   2.992  0.1056 -1.6751 -0.1098
16616TIP3    H271264   0.568   0.510   3.118 -2.1165 -1.3414  1.2151
16617TIP3   OH271265   0.556   3.766  15.033  0.1711 -0.2669 -0.3194
16617TIP3    H171266   0.589   3.851  15.003  1.3213 -0.5219  0.2106
16617TIP3    H271267   0.544   3.716  14.952  0.5783  0.0073 -0.5524
16618TIP3   OH271268   4.512   4.201   4.394  0.6785 -0.0358 -0.2939
16618TIP3    H171269   4.550   4.115   4.372 -0.3446 -0.7341  0.6175
16618TIP3    H271270   4.473   4.231   4.312 -1.5691 -1.8266  0.0593
16619TIP3   OH271271   5.040   0.180  16.255  0.3164 -0.4265  0.1791
16619TIP3    H171272   4.964   0.165  16.311  1.3127  0.8505  1.9315
16619TIP3    H271273   5.113   0.142  16.303  1.2021  0.7297 -0.2340
16620TIP3   OH271274   3.198   1.974   0.801  0.1879 -0.4570 -0.3110
16620TIP3    H171275   3.188   2.069   0.809  2.0710 -0.3844  1.6147
16620TIP3    H271276   3.125   1.947   0.745  0.2311  2.2524 -1.7720
16621TIP3   OH271277   2.943   3.314  12.354  0.2564 -0.2350  0.3067
16621TIP3    H171278   2.867   3.367  12.329  0.1657  0.3302  1.7214
16621TIP3    H271279   2.931   3.231  12.309 -2.1857 -0.8438  2.0444
16622TIP3   OH271280   5.210   4.584   1.284 -0.3870 -0.8302 -0.3898
16622TIP3    H171281   5.180   4.640   1.213  1.7950  1.4784  0.4102
16622TIP3    H271282   5.254   4.644   1.344 -1.1551 -2.8943  2.3365
16623TIP3   OH271283   0.351   1.627  12.243  0.2421 -0.2002 -0.5625
16623TIP3    H171284   0.426   1.684  12.257 -0.2108  0.4033 -0.5588
16623TIP3    H271285   0.386   1.539  12.249  0.1841 -0.0649  4.2356
16624TIP3   OH271286   6.570   2.623   6.279 -0.3638  0.4451  0.6199
16624TIP3    H171287   6.590   2.575   6.359  0.5526  0.5218  0.4422
16624TIP3    H271288   6.535   2.557   6.219  2.4117 -0.3630 -0.2001
16625TIP3   OH271289   6.330   3.747   1.056 -0.4306  0.1924 -0.5978
16625TIP3    H171290   6.318   3.842   1.043  0.6352  0.2766 -0.9675
16625TIP3    H271291   6.243   3.716   1.079 -0.7478  1.3095 -0.2270
16626TIP3   OH271292   6.624   4.152   3.149 -0.6768  0.2320 -0.2245
16626TIP3    H171293   6.674   4.228   3.178  0.1873 -0.3480 -0.1605
16626TIP3    H271294   6.555   4.188   3.093 -0.8894  1.1411  0.6106
16627TIP3   OH271295   1.481   5.420  17.194  0.0347 -0.0472  0.4001
16627TIP3    H171296   1.422   5.494  17.208  0.3208  0.5174 -1.3053
16627TIP3    H271297   1.528   5.412  17.277 -1.8473  0.0144  1.4941
16628TIP3   OH271298   5.414   2.221  13.270  0.0065  0.2519  0.3090
16628TIP3    H171299   5.381   2.131  13.274  0.9908 -0.0833  0.9016
16628TIP3    H271300   5.450   2.229  13.182  0.1363 -0.0059  0.3392
16629TIP3   OH271301   4.748   3.943  13.229 -0.1074 -0.2108 -0.0756
16629TIP3    H171302   4.807   3.921  13.158 -0.1341  0.6558 -0.3640
16629TIP3    H271303   4.792   4.013  13.277 -0.0972 -0.7768  0.7506
16630TIP3   OH271304   4.927   0.847  12.780  0.1122 -0.2499  0.1719
16630TIP3    H171305   4.907   0.789  12.707 -0.7524  2.1538 -1.5429
16630TIP3    H271306   5.016   0.878  12.762 -0.7092  1.6011 -0.7213
16631TIP3   OH271307   0.975   1.551   4.776 -0.1368 -0.5127  0.7430
16631TIP3    H171308   0.905   1.541   4.840  0.5925 -0.4623  1.5562
16631TIP3    H271309   0.993   1.645   4.774  1.5127 -0.7766  2.2809
16632TIP3   OH271310   5.205   6.077  12.053  0.3257 -0.3946 -0.1249
16632TIP3    H171311   5.137   6.137  12.024  1.5336  0.9214 -0.2824
16632TIP3    H271312   5.167   5.990  12.040 -1.2912  0.3078 -0.2609
16633TIP3   OH271313   0.749   2.160   4.390  0.3983  0.5434 -0.0455
16633TIP3    H171314   0.705   2.208   4.460  0.3847 -2.5942  2.2229
16633TIP3    H271315   0.677   2.124   4.337  0.3620  0.8463 -0.2032
16634TIP3   OH271316   3.917   5.328  15.257  0.1371  0.1455 -0.5341
16634TIP3    H171317   3.992   5.291  15.210 -0.6981 -0.2923 -1.5142
16634TIP3    H271318   3.950   5.411  15.291  1.4145 -0.5605 -0.0075
16635TIP3   OH271319   3.813   5.540   5.910 -0.0788  0.3140  0.5338
16635TIP3    H171320   3.793   5.510   5.998 -1.8582  0.1662  0.0938
16635TIP3    H271321   3.904   5.570   5.915 -0.0540 -0.0054  2.3153
16636TIP3   OH271322   3.587   2.363  16.332 -0.0204 -0.3923 -0.0492
16636TIP3    H171323   3.506   2.397  16.370 -0.3953 -0.7344 -0.5396
16636TIP3    H271324   3.656   2.416  16.372 -0.5410  0.4021 -0.1921
16637TIP3   OH271325   4.314   3.761  11.884 -0.3235  0.4127  0.1524
16637TIP3    H171326   4.281   3.701  11.951 -1.1721 -1.4888 -1.8986
16637TIP3    H271327   4.257   3.746  11.808  2.5939  0.1362 -2.0901
16638TIP3   OH271328   0.640   2.496  13.713  0.2430  0.4208 -0.6199
16638TIP3    H171329   0.725   2.453  13.722  0.3923  0.7752 -0.3452
16638TIP3    H271330   0.651   2.558  13.641 -0.1265 -0.3718 -1.3692
16639TIP3   OH271331   1.421   3.560   5.590 -0.1220  0.1762 -0.5554
16639TIP3    H171332   1.509   3.585   5.619  0.1988 -0.3354 -1.0805
16639TIP3    H271333   1.389   3.501   5.658 -0.4839  1.1896  0.1763
16640TIP3   OH271334   2.308   5.868  16.451  0.7356 -0.1812  0.2056
16640TIP3    H171335   2.292   5.863  16.546  0.6176 -2.3487  0.0912
16640TIP3    H271336   2.223   5.850  16.412  0.9748 -0.1247 -0.3356
16641TIP3   OH271337   3.306   6.261   2.520 -0.0266  0.3466  0.4388
16641TIP3    H171338   3.221   6.304   2.530  0.6225  1.5260  1.0467
16641TIP3    H271339   3.369   6.325   2.553  1.0035 -0.9529  1.0495
16642TIP3   OH271340   3.519   3.750  11.486 -0.1478 -0.2201 -0.2686
16642TIP3    H171341   3.585   3.742  11.416 -1.8014  1.6931 -2.1475
16642TIP3    H271342   3.435   3.749  11.439 -1.2680  1.7047  1.6184
16643TIP3   OH271343   3.362   4.041   2.582  0.1242  0.1143 -0.0181
16643TIP3    H171344   3.361   3.948   2.608 -0.8109 -0.2991 -1.4631
16643TIP3    H271345   3.372   4.038   2.487  0.5440  1.5160 -0.0162
16644TIP3   OH271346   1.966   1.796   1.841  0.3029  0.0047  0.3850
16644TIP3    H171347   2.018   1.732   1.792  1.0321  0.7655  0.1471
16644TIP3    H271348   1.970   1.875   1.788  0.2842  0.5521  1.1959
16645TIP3   OH271349   4.934   2.299   4.951  0.2258 -0.0243  0.4222
16645TIP3    H171350   4.940   2.366   4.882  1.2878 -0.3948  0.1464
16645TIP3    H271351   4.952   2.347   5.032  0.4412  0.1332  0.2834
16646TIP3   OH271352   4.312   1.888   3.166 -0.2396  0.1495  0.2585
16646TIP3    H171353   4.307   1.803   3.210  1.4205  0.2260  0.6080
16646TIP3    H271354   4.399   1.889   3.125 -0.3753  1.5534 -0.0127
16647TIP3   OH271355   1.623   6.649  16.080 -0.5438 -0.2360  0.3705
16647TIP3    H171356   1.640   6.564  16.121 -2.3370 -0.9461 -0.3036
16647TIP3    H271357   1.612   6.710  16.154 -0.2922 -0.8002  0.8718
16648TIP3   OH271358   5.066   2.400   5.327  0.1564  0.2161  0.2605
16648TIP3    H171359   5.005   2.388   5.401  0.6764 -0.6063  0.5652
16648TIP3    H271360   5.138   2.339   5.346 -0.1507 -0.6678 -1.3988
16649TIP3   OH271361   1.540   0.729  16.388  0.5330  0.2773  0.4265
16649TIP3    H171362   1.546   0.635  16.407  1.2028  0.2400  0.0578
16649TIP3    H271363   1.560   0.771  16.471 -0.4668  0.0902  0.7643
16650TIP3   OH271364   2.676   4.643   3.707 -0.4974  0.4771 -0.3088
16650TIP3    H171365   2.608   4.629   3.641  0.3560 -2.9780 -0.5307
16650TIP3    H271366   2.752   4.673   3.657 -0.6324  0.3550 -0.5894
16651TIP3   OH271367   6.068   1.122   6.816 -0.8448 -0.4927  0.2990
16651TIP3    H171368   6.011   1.077   6.878 -0.2421 -1.2569  0.3003
16651TIP3    H271369   6.035   1.096   6.730  0.3686 -2.0769  0.2870
16652TIP3   OH271370   5.402   2.248  12.798 -0.1170 -0.1427 -0.7465
16652TIP3    H171371   5.450   2.290  12.727 -1.3713  0.3805 -1.3008
16652TIP3    H271372   5.313   2.238  12.764 -0.0034 -2.7100 -0.4173
16653TIP3   OH271373   1.335   6.006  11.050  0.4503 -0.7091  0.4231
16653TIP3    H171374   1.333   5.912  11.066  0.1424 -0.9197 -0.7707
16653TIP3    H271375   1.379   6.015  10.965 -3.3835 -0.1131 -1.6339
16654TIP3   OH271376   4.109   3.245  13.277  0.3339  0.0075 -0.1498
16654TIP3    H171377   4.057   3.323  13.256 -1.3390 -1.1967 -0.5741
16654TIP3    H271378   4.198   3.267  13.249 -0.2521  1.5258 -0.8600
16655TIP3   OH271379   6.479   6.532  16.899  0.1835 -0.0431 -0.0314
16655TIP3    H171380   6.446   6.443  16.908 -1.8275  0.6919  0.2064
16655TIP3    H271381   6.435   6.567  16.822  0.8937  0.7669 -0.0876
16656TIP3   OH271382   0.232   0.451   3.709  0.3345 -0.5707  0.5294
16656TIP3    H171383   0.242   0.535   3.664 -0.5850 -0.2788  0.8655
16656TIP3    H271384   0.299   0.395   3.669  0.1450 -0.0402 -0.5595
16657TIP3   OH271385   2.610   1.224   1.695  0.1189  0.2393 -0.1475
16657TIP3    H171386   2.593   1.132   1.677  1.5216  0.0855 -0.7526
16657TIP3    H271387   2.528   1.257   1.733 -0.9036 -0.8580 -1.3650
16658TIP3   OH271388   0.800   6.158  15.401  0.8091  0.4622  0.0687
16658TIP3    H171389   0.758   6.152  15.315  0.4335 -1.9108  0.3912
16658TIP3    H271390   0.739   6.209  15.454  0.0992  0.2413 -0.5234
16659TIP3   OH271391   3.016   1.297  12.475  0.2277  0.8631 -0.2542
16659TIP3    H171392   2.978   1.217  12.511  3.0361  0.3491  1.7158
16659TIP3    H271393   3.079   1.326  12.541 -0.8546  4.8412 -0.8419
16660TIP3   OH271394   5.807   1.777   4.120 -0.4417  0.0049  0.7743
16660TIP3    H171395   5.793   1.796   4.027  2.6727  0.9023  0.4431
16660TIP3    H271396   5.831   1.685   4.122 -0.6318 -0.0471  0.7217
16661TIP3   OH271397   5.342   1.045   5.137 -0.2393 -0.0506  0.0657
16661TIP3    H171398   5.293   1.071   5.058 -1.9989  1.2061  1.5443
16661TIP3    H271399   5.327   1.116   5.199  0.2420 -1.5470  1.9316
16662TIP3   OH271400   2.315   4.712   0.680 -0.4763  0.1655  0.2702
16662TIP3    H171401   2.399   4.680   0.714  0.8119  1.1305 -1.8732
16662TIP3    H271402   2.301   4.663   0.599 -1.9856  0.0325  0.6004
16663TIP3   OH271403   2.066   5.838  16.830  0.3181 -0.0455  0.1405
16663TIP3    H171404   2.096   5.777  16.763 -0.8120 -1.4135  0.8571
16663TIP3    H271405   2.136   5.903  16.836  0.6940 -0.2371 -1.9291
16664TIP3   OH271406   3.368   1.340   5.727 -0.0171 -0.4975  0.0948
16664TIP3    H171407   3.278   1.320   5.699 -0.2591  1.6597 -0.7759
16664TIP3    H271408   3.414   1.363   5.647  1.0919 -0.7240  0.6530
16665TIP3   OH271409   6.629   5.329  11.201  0.1830 -0.1681  0.3462
16665TIP3    H171410   6.611   5.366  11.115  0.3904  0.7088  0.6838
16665TIP3    H271411   6.545   5.292  11.229 -0.3168  1.1090  0.5380
16666TIP3   OH271412   3.466   4.655   0.966  0.3385  0.5889  0.4476
16666TIP3    H171413   3.389   4.600   0.954  0.5710  0.2500  0.4723
16666TIP3    H271414   3.432   4.740   0.993  0.1283 -0.3874  3.3543
16667TIP3   OH271415   2.305   5.304   4.666  0.6255 -0.3506 -0.2433
16667TIP3    H171416   2.297   5.393   4.700  1.1757  0.1396 -1.4018
16667TIP3    H271417   2.395   5.279   4.685  0.5789 -0.5223 -0.2491
16668TIP3   OH271418   5.902   0.296   6.208 -0.8891 -0.0290 -0.3361
16668TIP3    H171419   5.824   0.258   6.248  0.8873 -1.7690  1.5920
16668TIP3    H271420   5.948   0.221   6.170 -0.2032  0.9881 -1.5214
16669TIP3   OH271421   1.160   6.748   6.492 -0.0943  0.4586  0.0041
16669TIP3    H171422   1.067   6.740   6.472  0.2528 -1.5585 -1.0222
16669TIP3    H271423   1.182   6.666   6.537  1.9191 -0.6907 -2.9411
16670TIP3   OH271424   2.572   2.751  14.793  0.3580 -0.8672 -0.4340
16670TIP3    H171425   2.594   2.788  14.707 -0.0675  0.0745 -0.1452
16670TIP3    H271426   2.589   2.823  14.855 -2.3631 -0.4808 -0.0809
16671TIP3   OH271427   5.139   0.318  16.679 -0.3601  0.2824 -0.1052
16671TIP3    H171428   5.077   0.252  16.650 -0.3273 -0.0971  0.6763
16671TIP3    H271429   5.155   0.298  16.771  0.6157  0.6206 -0.1892
16672TIP3   OH271430   2.120   6.492  13.008 -0.7613 -0.4180  0.2121
16672TIP3    H171431   2.194   6.440  13.039  0.5482 -0.1772 -2.3776
16672TIP3    H271432   2.103   6.459  12.920 -1.1676  2.2414 -0.7557
16673TIP3   OH271433   5.885   4.279   5.260 -0.2085  0.5436  0.9618
16673TIP3    H171434   5.821   4.244   5.323 -2.0605  1.3648 -0.3998
16673TIP3    H271435   5.867   4.374   5.259  0.7680  0.7201  0.2598
16674TIP3   OH271436   3.190   2.907   3.886 -0.1410 -0.7239  0.5267
16674TIP3    H171437   3.208   2.824   3.930 -0.6273 -0.3875  1.3894
16674TIP3    H271438   3.132   2.954   3.947 -1.9928 -0.8174 -1.0985
16675TIP3   OH271439   4.029   1.653   1.467  0.2321  0.5139 -0.6470
16675TIP3    H171440   3.967   1.635   1.537 -0.4183  1.3843 -0.9946
16675TIP3    H271441   4.110   1.677   1.513 -0.1295  0.8810 -0.1998
16676TIP3   OH271442   5.188   3.181   0.758  0.0431  0.0070  0.3471
16676TIP3    H171443   5.149   3.120   0.821  1.1668 -1.5374 -0.4129
16676TIP3    H271444   5.148   3.156   0.674  0.5638  0.2700  0.0249
16677TIP3   OH271445   0.477   1.725  15.096 -0.1643 -0.4662  0.0775
16677TIP3    H171446   0.401   1.726  15.154 -1.6675 -1.6228 -1.8045
16677TIP3    H271447   0.440   1.712  15.009  2.1560 -0.3237 -0.9602
16678TIP3   OH271448   1.230   5.059  14.189  0.9167 -0.3926 -0.2166
16678TIP3    H171449   1.206   5.148  14.161  0.1799 -0.6507 -0.4160
16678TIP3    H271450   1.307   5.037  14.137  0.9063  0.0082 -0.4006
16679TIP3   OH271451   2.782   2.625   2.356 -0.0215 -0.6056  0.1220
16679TIP3    H171452   2.743   2.632   2.269 -0.0763 -0.2903  0.1724
16679TIP3    H271453   2.725   2.563   2.403  1.2719 -2.5190 -0.7623
16680TIP3   OH271454   3.469   1.270  16.917  0.3708  0.5796  0.1480
16680TIP3    H171455   3.403   1.210  16.884  1.1031  0.1918 -0.6270
16680TIP3    H271456   3.552   1.227  16.899  0.8090  0.5308  2.1543
16681TIP3   OH271457   0.041   4.894   0.620  0.0410 -0.2915  0.4704
16681TIP3    H171458   0.045   4.948   0.541  1.2360 -0.9285  0.0913
16681TIP3    H271459   0.117   4.836   0.614  0.4505  0.0220  2.3574
16682TIP3   OH271460   3.231   0.423   0.996  0.6013 -0.0339 -0.6661
16682TIP3    H171461   3.187   0.436   0.912 -0.6040  1.6754  0.1898
16682TIP3    H271462   3.171   0.367   1.046  0.5374  0.2901 -0.3732
16683TIP3   OH271463   0.548   2.782  12.690  0.1583 -0.8389 -0.2946
16683TIP3    H171464   0.526   2.818  12.605  0.7556 -1.7368 -0.8353
16683TIP3    H271465   0.542   2.688  12.679  0.2454 -0.9656  0.6601
16684TIP3   OH271466   5.335   1.765  12.443  0.1536 -0.1548 -0.1269
16684TIP3    H171467   5.373   1.678  12.428  1.2932  0.2093  0.6172
16684TIP3    H271468   5.321   1.768  12.538 -2.7952 -0.7117 -0.5075
16685TIP3   OH271469   2.542   1.393   4.314  0.1327  0.3285 -0.0900
16685TIP3    H171470   2.602   1.386   4.388  0.9108  3.1918 -0.3935
16685TIP3    H271471   2.464   1.435   4.350  0.6407  2.0393 -0.9090
16686TIP3   OH271472   2.703   6.589  14.995  0.0009 -0.6089  0.0663
16686TIP3    H171473   2.797   6.571  15.000  0.1978  0.5599  0.5826
16686TIP3    H271474   2.662   6.503  15.008  0.9566 -0.8210  1.7787
16687TIP3   OH271475   0.352   5.651   2.847 -0.7402  0.4436 -0.0563
16687TIP3    H171476   0.327   5.572   2.799 -0.4867  1.0462 -1.1785
16687TIP3    H271477   0.289   5.717   2.819 -0.6534  0.7738  0.5182
16688TIP3   OH271478   1.354   0.293  15.863  0.1956  0.0876 -0.2777
16688TIP3    H171479   1.447   0.271  15.869  0.7474  2.6118  1.2850
16688TIP3    H271480   1.336   0.297  15.769  2.1055  1.1468 -0.6297
16689TIP3   OH271481   1.263   3.458   3.109 -0.0836  0.1645  0.3603
16689TIP3    H171482   1.346   3.493   3.139  0.1613  2.3915 -2.6686
16689TIP3    H271483   1.215   3.534   3.077 -1.8153 -1.5411 -1.2567
16690TIP3   OH271484   0.125   5.561   3.055 -0.1293  0.0668 -1.0928
16690TIP3    H171485   0.111   5.655   3.061 -1.6223 -0.1888 -0.3109
16690TIP3    H271486   0.116   5.541   2.962  0.8978  0.7790 -1.3604
16691TIP3   OH271487   0.585   2.653   3.857  0.2578 -0.2211 -0.0922
16691TIP3    H171488   0.660   2.599   3.881 -1.7645 -2.9328  0.3429
16691TIP3    H271489   0.552   2.613   3.777 -0.2710  1.4401 -0.7131
16692TIP3   OH271490   5.349   6.766   2.451 -0.0432  0.0532  0.1109
16692TIP3    H171491   5.311   6.687   2.488 -0.8830  0.2372 -0.3581
16692TIP3    H271492   5.437   6.740   2.424 -0.4190 -0.8007 -0.3124
16693TIP3   OH271493   3.106   6.057   4.324  0.0631  0.4316 -0.0669
16693TIP3    H171494   3.168   5.986   4.308  0.8225  1.0932 -0.0822
16693TIP3    H271495   3.106   6.068   4.420 -1.9163 -1.2333  0.1706
16694TIP3   OH271496   5.659   6.662  13.243 -0.5146 -0.0188 -0.6369
16694TIP3    H171497   5.590   6.602  13.217 -0.9758 -0.0304  0.5810
16694TIP3    H271498   5.670   6.721  13.168 -2.6680  0.7318 -0.3932
16695TIP3   OH271499   0.846   1.403  13.014 -0.5212  0.9182 -0.0977
16695TIP3    H171500   0.799   1.339  12.961  0.4960 -0.8190  1.0358
16695TIP3    H271501   0.930   1.414  12.968  0.2780 -0.4338  0.9870
16696TIP3   OH271502   0.482   2.410   3.062  0.2558  0.6111  0.4049
16696TIP3    H171503   0.523   2.497   3.066  1.0990  0.1728  1.4986
16696TIP3    H271504   0.489   2.385   2.970  0.5350  1.4592  0.1886
16697TIP3   OH271505   2.402   0.257   0.036  0.2102  0.2569  0.4084
16697TIP3    H171506   2.436   0.213  -0.042  1.4255  3.4122 -0.9067
16697TIP3    H271507   2.319   0.296   0.008  0.0675  0.4233  1.0462
16698TIP3   OH271508   1.542   2.659  13.534  0.1107  0.4109  0.0521
16698TIP3    H171509   1.578   2.665  13.622 -2.9355 -0.2122  1.4012
16698TIP3    H271510   1.465   2.604  13.543 -0.8375  1.1628 -2.8332
16699TIP3   OH271511   2.863   6.481   1.028  0.8476  0.5598 -0.3579
16699TIP3    H171512   2.815   6.533   0.963  0.1950 -0.7658 -0.9636
16699TIP3    H271513   2.860   6.533   1.107 -0.7050  0.9885 -0.6756
16700TIP3   OH271514   3.414   4.628  14.755 -0.2585 -0.0300  0.2427
16700TIP3    H171515   3.391   4.684  14.829  0.1138  0.8138 -0.2762
16700TIP3    H271516   3.330   4.597  14.721 -0.5502  1.5043 -0.4594
16701TIP3   OH271517   5.842   2.257  12.780  0.0122  0.3998 -0.1898
16701TIP3    H171518   5.932   2.280  12.755  0.8102 -1.7752  0.6069
16701TIP3    H271519   5.805   2.338  12.815  1.4314  1.4835 -1.1376
16702TIP3   OH271520   3.612   3.819   5.291 -0.8150  0.0372 -0.1404
16702TIP3    H171521   3.628   3.729   5.320  1.5739  0.5044  0.1404
16702TIP3    H271522   3.645   3.872   5.363 -2.9858  1.1558  0.0613
16703TIP3   OH271523   5.402   5.851  12.848  0.0310 -0.3747  0.0820
16703TIP3    H171524   5.407   5.902  12.767 -2.6877  1.3580  0.9271
16703TIP3    H271525   5.412   5.916  12.917 -0.8921 -1.3585  1.1582
16704TIP3   OH271526   0.052   4.084   2.061 -0.4148  0.7269 -0.1960
16704TIP3    H171527  -0.016   4.133   2.107 -0.1540 -0.0332  1.0258
16704TIP3    H271528   0.007   4.005   2.030  0.1938 -0.4210  1.7729
16705TIP3   OH271529   1.862   1.524   5.261 -0.2732  0.6066 -0.5001
16705TIP3    H171530   1.824   1.465   5.196 -0.0946 -1.2382  1.0187
16705TIP3    H271531   1.788   1.578   5.291 -0.9610 -0.4840 -0.1933
16706TIP3   OH271532   3.695   2.363  12.788  0.4196 -0.5940 -0.0222
16706TIP3    H171533   3.688   2.268  12.794 -0.2645 -0.4998  0.8070
16706TIP3    H271534   3.673   2.395  12.876 -1.6784  0.4383 -0.8745
16707TIP3   OH271535   0.590   6.503  12.300  0.0725  0.1820  0.4253
16707TIP3    H171536   0.606   6.523  12.392 -0.3383 -0.4858  0.6466
16707TIP3    H271537   0.538   6.422  12.302 -0.7763  0.7036 -0.3666
16708TIP3   OH271538   0.890   0.932  17.038  0.2532 -0.0250 -0.3801
16708TIP3    H171539   0.813   0.886  17.073  0.6927  1.8691  3.3407
16708TIP3    H271540   0.953   0.862  17.019 -0.8652 -1.3009  0.5132
16709TIP3   OH271541   4.016   4.202  15.268 -0.0539 -0.4332  0.3209
16709TIP3    H171542   4.101   4.161  15.255  0.6191  0.7939  0.7239
16709TIP3    H271543   3.952   4.138  15.236  1.1402 -0.5558 -1.8676
16710TIP3   OH271544   1.403   4.047  11.122  0.2075  0.8743  0.4275
16710TIP3    H171545   1.478   4.003  11.160  0.4331 -0.0310 -0.9968
16710TIP3    H271546   1.439   4.126  11.080  0.1477  1.1900  0.9693
16711TIP3   OH271547   2.822   4.583   4.469  0.4841  0.0481  0.2208
16711TIP3    H171548   2.751   4.591   4.532  1.4358  4.6741  0.9300
16711TIP3    H271549   2.778   4.570   4.385 -1.1612  1.3189  0.8564
16712TIP3   OH271550   6.386   3.269  12.729 -0.1252  0.4394 -0.8723
16712TIP3    H171551   6.387   3.259  12.824  0.2709  0.1134 -0.9141
16712TIP3    H271552   6.401   3.182  12.695 -0.0764  0.5897 -1.2385
16713TIP3   OH271553   6.158   3.899   2.962 -0.8183  0.0130  0.7438
16713TIP3    H171554   6.234   3.843   2.979 -0.5546 -0.1041 -0.7899
16713TIP3    H271555   6.147   3.948   3.044  0.6298 -0.2883  1.1450
16714TIP3   OH271556   3.143   0.545   4.900  0.1464  0.3023  0.4942
16714TIP3    H171557   3.225   0.520   4.857 -0.0052 -0.6045  0.7315
16714TIP3    H271558   3.104   0.610   4.841  0.0491 -0.7636 -0.6311
16715TIP3   OH271559   0.367   2.624  12.154 -0.2732  0.4607  0.2343
16715TIP3    H171560   0.389   2.717  12.144  1.0304  0.2931  1.4154
16715TIP3    H271561   0.273   2.623  12.169  0.0458  1.7983  2.5725
16716TIP3   OH271562   3.577   1.029   4.242  0.2051  0.3748 -0.1898
16716TIP3    H171563   3.614   1.072   4.319  0.4758 -2.1306  1.1182
16716TIP3    H271564   3.639   1.046   4.172  1.1370  0.6976  0.7144
16717TIP3   OH271565   2.613   3.756   3.892 -0.5750  0.1373 -0.2781
16717TIP3    H171566   2.555   3.730   3.821 -0.9194  0.1334  0.0028
16717TIP3    H271567   2.701   3.744   3.857 -0.7414  1.4539 -1.1671
16718TIP3   OH271568   4.534   5.030   5.153 -0.1314 -0.2031  0.1771
16718TIP3    H171569   4.570   5.118   5.162  0.4534 -0.3826 -0.3498
16718TIP3    H271570   4.597   4.974   5.200  0.6814 -0.6066 -1.3669
16719TIP3   OH271571   1.795   1.245   4.048 -0.0050  0.0416 -0.5587
16719TIP3    H171572   1.803   1.289   3.963  0.5168  2.1296  0.5224
16719TIP3    H271573   1.701   1.252   4.069  0.0223  0.3799 -0.5384
16720TIP3   OH271574   3.255   5.610  14.188  0.2738 -0.3126 -0.1070
16720TIP3    H171575   3.262   5.600  14.093 -0.3745  2.9884 -0.5435
16720TIP3    H271576   3.167   5.579  14.209  1.0251 -2.6829 -0.2970
16721TIP3   OH271577   3.365   6.575  12.652 -0.0341 -0.5432  0.0726
16721TIP3    H171578   3.383   6.510  12.720  1.0754  0.0233  0.3313
16721TIP3    H271579   3.288   6.540  12.606 -1.3434 -0.5007  2.1566
16722TIP3   OH271580   3.125   1.336   0.432  0.2601 -0.4699  0.6540
16722TIP3    H171581   3.095   1.425   0.413 -1.6607 -0.9229  1.3719
16722TIP3    H271582   3.215   1.347   0.463  1.6784  0.7747 -3.5813
16723TIP3   OH271583   4.189   1.908   0.243 -0.2488 -0.6349  0.1747
16723TIP3    H171584   4.232   1.869   0.167  0.6920  2.8082 -1.1293
16723TIP3    H271585   4.236   1.872   0.319  1.5410 -0.8789 -1.0281
16724TIP3   OH271586   5.612   6.111   3.239 -0.5377 -0.5926  0.1542
16724TIP3    H171587   5.531   6.062   3.250 -0.6477  0.0298  2.4633
16724TIP3    H271588   5.608   6.179   3.307  1.1096  0.5390 -0.8492
16725TIP3   OH271589   4.406   0.102  13.689 -0.2453  0.4400 -0.1880
16725TIP3    H171590   4.335   0.084  13.628 -0.4913 -0.1134  0.2575
16725TIP3    H271591   4.363   0.144  13.764 -0.0008  0.7607 -0.2279
16726TIP3   OH271592   6.371   0.235   2.384  0.0067  0.2315 -0.2927
16726TIP3    H171593   6.368   0.264   2.475  0.8474 -0.2241 -0.1153
16726TIP3    H271594   6.321   0.302   2.336 -0.0525  0.7137  0.4331
16727TIP3   OH271595   2.663   6.102  13.316 -0.3330 -0.1513 -0.2054
16727TIP3    H171596   2.746   6.148  13.331 -0.8338  0.5898  0.2728
16727TIP3    H271597   2.609   6.164  13.268 -0.8461 -0.4050  0.0410
16728TIP3   OH271598   2.742   5.076   4.640  1.0245 -0.1270 -0.2870
16728TIP3    H171599   2.819   5.103   4.690  1.8344 -1.1427 -0.9596
16728TIP3    H271600   2.726   4.986   4.668 -0.3062  0.2778  0.3059
16729TIP3   OH271601   3.106   2.121   3.251 -0.3960  0.2737 -0.1895
16729TIP3    H171602   3.012   2.107   3.266 -0.4694  1.6370  0.6743
16729TIP3    H271603   3.119   2.095   3.160 -1.2726 -1.5685  0.1630
16730TIP3   OH271604   6.476   4.787  17.129  0.3419 -0.2502 -0.1013
16730TIP3    H171605   6.412   4.765  17.062  2.8396  0.4035 -2.7837
16730TIP3    H271606   6.514   4.703  17.154 -0.2352 -0.4394  0.1653
16731TIP3   OH271607   4.618   0.708   4.217 -0.3148  0.3971  0.3396
16731TIP3    H171608   4.703   0.683   4.253  0.0131  0.8114 -0.1367
16731TIP3    H271609   4.559   0.639   4.245  1.0312 -2.2373 -2.9669
16732TIP3   OH271610   4.557   6.229   4.669 -0.5756 -0.0244  0.0786
16732TIP3    H171611   4.549   6.193   4.581 -0.2037  0.9836 -0.3797
16732TIP3    H271612   4.473   6.211   4.711 -0.9157 -0.1034 -0.6374
16733TIP3   OH271613   2.276   5.973   3.494  0.6875 -0.5320  0.6161
16733TIP3    H171614   2.246   5.884   3.473 -0.1341 -0.2502  0.5708
16733TIP3    H271615   2.268   6.021   3.411 -0.4373  0.0034  1.0239
16734TIP3   OH271616   4.551   3.454  15.084 -0.7630 -0.0195 -0.0110
16734TIP3    H171617   4.626   3.425  15.136  1.2460  0.6638 -2.4621
16734TIP3    H271618   4.508   3.519  15.139  0.2543 -0.6215  1.5334
16735TIP3   OH271619   3.298   2.071   1.506 -0.3322 -0.4075  0.3896
16735TIP3    H171620   3.252   2.118   1.575  0.4637  1.4510 -0.3002
16735TIP3    H271621   3.374   2.126   1.486  0.0846 -1.5039 -1.1471
16736TIP3   OH271622   3.438   4.457   5.726 -0.4367  0.3758 -0.6514
16736TIP3    H171623   3.530   4.460   5.698 -0.1017  2.0147  0.5705
16736TIP3    H271624   3.422   4.365   5.746  0.4934 -0.1715 -2.2785
16737TIP3   OH271625   1.698   0.503  14.475 -0.4783  0.3581  0.7500
16737TIP3    H171626   1.715   0.534  14.386 -2.3603 -0.4688  0.0875
16737TIP3    H271627   1.710   0.408  14.471 -0.4926  0.3235  1.3952
16738TIP3   OH271628   0.246   5.876   0.316  0.5326  0.0119  0.6099
16738TIP3    H171629   0.306   5.950   0.327  0.6333  0.3718 -2.0225
16738TIP3    H271630   0.166   5.904   0.360  2.0333 -0.2481  3.6835
16739TIP3   OH271631   0.840   4.211  15.602 -0.1172  0.0889 -0.2021
16739TIP3    H171632   0.864   4.256  15.522  1.8913  0.6437  0.6834
16739TIP3    H271633   0.868   4.121  15.590 -0.1768  0.0790 -0.2716
16740TIP3   OH271634   2.747   3.905   4.450 -0.3771  0.4650  0.1895
16740TIP3    H171635   2.749   3.941   4.539 -2.4470 -0.2927  0.5776
16740TIP3    H271636   2.795   3.823   4.456  0.9480  1.2371  0.2130
16741TIP3   OH271637   1.343   4.523   6.062 -0.6764 -0.6035 -0.4918
16741TIP3    H171638   1.301   4.579   6.127  1.1740  1.7259 -1.2222
16741TIP3    H271639   1.423   4.571   6.037  1.4406 -3.9699 -0.5108
16742TIP3   OH271640   2.994   2.028  16.686  0.2568  0.7873 -0.4013
16742TIP3    H171641   2.993   1.990  16.774  1.2408  2.1982  0.2455
16742TIP3    H271642   3.086   2.046  16.669  0.1958 -0.4863 -2.1924
16743TIP3   OH271643   5.371   4.632   3.734  0.7966  0.3750  0.3275
16743TIP3    H171644   5.368   4.554   3.679 -0.4869  0.5811  0.0933
16743TIP3    H271645   5.462   4.663   3.727  1.2851 -1.0153  0.3322
16744TIP3   OH271646   1.326   5.476  11.753 -0.8030 -0.5111 -0.0532
16744TIP3    H171647   1.268   5.402  11.735 -0.1880 -0.8937 -0.5076
16744TIP3    H271648   1.274   5.553  11.733 -1.4950 -0.8157  0.5495
16745TIP3   OH271649   0.023   6.724   1.723 -0.5816 -0.1839  0.3557
16745TIP3    H171650   0.102   6.677   1.751 -0.7117 -1.5715 -1.5200
16745TIP3    H271651   0.008   6.788   1.792  1.9384 -0.2001  0.9745
16746TIP3   OH271652   1.304   4.123  13.268  0.2183 -0.9574  0.0796
16746TIP3    H171653   1.226   4.144  13.219 -0.5346  0.1007  1.6855
16746TIP3    H271654   1.272   4.079  13.347  1.1273  0.7809  1.4452
16747TIP3   OH271655   2.582   6.481  11.571  0.0238 -0.5018  0.0991
16747TIP3    H171656   2.529   6.525  11.506  0.3138 -0.2740  0.0167
16747TIP3    H271657   2.669   6.521  11.564  0.4920 -1.5945 -0.4944
16748TIP3   OH271658   4.722   1.032   5.625  0.9189 -0.4181  0.1250
16748TIP3    H171659   4.698   1.120   5.597  0.3682 -1.2400 -2.0679
16748TIP3    H271660   4.728   1.038   5.720 -3.3095  0.9818  0.3890
16749TIP3   OH271661   3.778   2.219   2.748  0.0188  0.2755  0.0368
16749TIP3    H171662   3.811   2.161   2.817 -0.0960 -1.7693 -1.5795
16749TIP3    H271663   3.768   2.163   2.672 -1.2873  2.1861 -1.2586
16750TIP3   OH271664   3.933   6.222  15.023  0.0834 -0.4803 -0.0990
16750TIP3    H171665   3.995   6.244  14.954 -0.5260  0.0853 -0.4615
16750TIP3    H271666   3.857   6.278  15.007 -0.2130 -0.6166  0.8020
16751TIP3   OH271667   6.441   3.597  13.875  0.2045 -0.0615  0.0446
16751TIP3    H171668   6.428   3.675  13.822  2.1606  2.0917  2.5822
16751TIP3    H271669   6.367   3.541  13.853 -1.6142  2.7693 -1.4217
16752TIP3   OH271670   5.443   5.520   4.890 -0.1674 -0.4749 -0.0121
16752TIP3    H171671   5.536   5.541   4.876 -0.3537 -0.1972 -0.8208
16752TIP3    H271672   5.403   5.528   4.803 -1.0026 -0.3302  0.3837
16753TIP3   OH271673   3.373   0.212   3.533 -0.1912  0.1919  0.2276
16753TIP3    H171674   3.331   0.264   3.602 -1.0507  1.4822 -1.2287
16753TIP3    H271675   3.374   0.270   3.457  0.7802 -1.1961 -0.8415
16754TIP3   OH271676   6.152   5.379   5.161  0.3706  0.1031  0.6125
16754TIP3    H171677   6.092   5.308   5.186 -1.4278  0.9625 -1.0948
16754TIP3    H271678   6.191   5.407   5.244 -0.2077 -1.7070  1.5376
16755TIP3   OH271679   5.062   4.004  12.605 -0.4953  0.3649 -0.2940
16755TIP3    H171680   5.077   3.923  12.655 -1.6328 -0.2686 -0.9520
16755TIP3    H271681   5.145   4.052  12.612 -0.5462  0.1653  1.9499
16756TIP3   OH271682   2.571   2.729   2.188 -0.3438  0.1840 -0.4240
16756TIP3    H171683   2.568   2.804   2.129 -0.3945 -0.7019 -1.5540
16756TIP3    H271684   2.523   2.660   2.143  0.4047 -0.7908  0.2308
16757TIP3   OH271685   1.754   5.109  12.593  0.1814  0.8284 -0.7313
16757TIP3    H171686   1.838   5.148  12.616 -1.1923  3.3782  0.1105
16757TIP3    H271687   1.728   5.153  12.512 -0.6526  0.4879 -0.6540
16758TIP3   OH271688   4.086   2.126  12.500 -0.0651 -0.0909  0.4071
16758TIP3    H171689   4.120   2.095  12.584  1.2282  0.0876 -0.0442
16758TIP3    H271690   4.084   2.047  12.445  1.2515  0.2156 -0.0929
16759TIP3   OH271691   0.087   4.460  12.222  0.2992  0.2355  0.8730
16759TIP3    H171692   0.116   4.548  12.199  0.6700  0.4299  2.0421
16759TIP3    H271693   0.167   4.407  12.219  0.3741  0.2930  1.8554
16760TIP3   OH271694   6.018   6.653  11.757  0.2226  0.2036  0.3992
16760TIP3    H171695   5.998   6.562  11.779  0.4035  0.0927  0.1080
16760TIP3    H271696   6.016   6.656  11.662  1.0333  0.3217  0.3845
16761TIP3   OH271697   4.356   3.020  14.717  0.5428 -0.2084  0.2874
16761TIP3    H171698   4.413   3.068  14.656  0.0631  1.2084  0.9292
16761TIP3    H271699   4.277   3.001  14.667  1.8054 -2.7714 -0.8185
16762TIP3   OH271700   3.409   6.424  11.360  0.0323 -0.0319 -0.2946
16762TIP3    H171701   3.411   6.334  11.326 -1.0151  0.3157 -1.3216
16762TIP3    H271702   3.462   6.421  11.439  2.0694 -0.9934 -1.6541
16763TIP3   OH271703   1.970   5.210  14.487  0.1476 -0.1797  0.5005
16763TIP3    H171704   1.936   5.151  14.420  1.2133 -0.6201  0.3353
16763TIP3    H271705   1.892   5.243  14.532 -0.5558 -0.1075 -0.7605
16764TIP3   OH271706   5.932   1.354   4.690 -0.3176  0.4318 -0.8474
16764TIP3    H171707   5.997   1.385   4.753 -0.5262 -1.9000  0.5864
16764TIP3    H271708   5.889   1.433   4.659  1.9479  1.8550 -0.4142
16765TIP3   OH271709   0.144   3.113   6.398 -0.2210 -0.1159 -0.7535
16765TIP3    H171710   0.212   3.122   6.331 -1.0087 -1.9100 -1.8206
16765TIP3    H271711   0.162   3.029   6.439 -0.3907  0.4856  0.5728
16766TIP3   OH271712   0.530   4.451  11.470  0.7245 -0.0197  0.6972
16766TIP3    H171713   0.458   4.458  11.532  0.8390  0.0138  0.8278
16766TIP3    H271714   0.488   4.448  11.384  0.6096  0.8470  0.7172
16767TIP3   OH271715   2.952   0.938  13.449  0.6339  0.5846  0.2989
16767TIP3    H171716   2.870   0.901  13.414  1.0427  0.0168 -0.0717
16767TIP3    H271717   3.015   0.866  13.442  1.4399  1.3562 -0.4132
16768TIP3   OH271718   5.487   0.534  11.848  0.2241  0.2748 -0.3289
16768TIP3    H171719   5.516   0.575  11.930 -0.7566  1.1914 -0.4312
16768TIP3    H271720   5.568   0.523  11.797  0.5446  1.8091 -0.1748
16769TIP3   OH271721   3.831   4.763   0.919 -0.3717  0.2485  0.2905
16769TIP3    H171722   3.876   4.729   0.842 -1.6175 -0.1379 -0.2698
16769TIP3    H271723   3.826   4.688   0.979 -2.0156 -0.2652 -0.4495
16770TIP3   OH271724   1.682   0.695   6.131  0.5433  0.1603 -0.2041
16770TIP3    H171725   1.640   0.610   6.142  1.9898 -0.4366  0.8339
16770TIP3    H271726   1.631   0.755   6.185 -0.2265 -0.1379 -0.6059
16771TIP3   OH271727   1.164   0.925   2.715 -0.5293  0.0876  0.0644
16771TIP3    H171728   1.187   0.999   2.658 -0.5073  0.4197  0.5021
16771TIP3    H271729   1.247   0.899   2.755 -0.5894  0.0320  0.1535
16772TIP3   OH271730   2.365   0.639   3.642 -0.0591 -0.3305 -0.5202
16772TIP3    H171731   2.374   0.609   3.551 -0.4593  0.1357 -0.7104
16772TIP3    H271732   2.273   0.663   3.650 -0.0019 -0.2858 -0.0137
16773TIP3   OH271733   1.853   4.471  17.172 -0.3906 -0.0978 -0.5648
16773TIP3    H171734   1.770   4.447  17.214 -0.2223  1.6002  0.8141
16773TIP3    H271735   1.843   4.564  17.151  1.5310  0.4078  0.5912
16774TIP3   OH271736   2.739   2.868  11.651 -0.6072  0.0156 -0.1212
16774TIP3    H171737   2.677   2.796  11.636  0.1215 -0.8847  1.0133
16774TIP3    H271738   2.806   2.856  11.584  0.3933 -1.4076  1.0847
16775TIP3   OH271739   4.560   5.326   2.130  0.0451 -0.3686 -0.0318
16775TIP3    H171740   4.592   5.330   2.040 -2.4053 -1.7596 -1.0089
16775TIP3    H271741   4.638   5.306   2.183  1.0451 -2.2527 -2.1399
16776TIP3   OH271742   2.875   5.131  11.532 -0.3210  0.2974  0.1021
16776TIP3    H171743   2.843   5.213  11.495 -0.1166  0.3182 -0.0345
16776TIP3    H271744   2.926   5.091  11.461 -1.4590 -0.5485 -0.2454
16777TIP3   OH271745   5.778   6.417  14.999  0.2867  0.0931  0.0459
16777TIP3    H171746   5.823   6.347  14.951  1.4120  1.9845 -1.7237
16777TIP3    H271747   5.848   6.472  15.033 -0.6239  1.2923  0.0020
16778TIP3   OH271748   4.941   1.096  13.226 -0.1017 -0.1181 -0.0259
16778TIP3    H171749   5.019   1.041  13.217 -0.2616 -0.0824 -1.7773
16778TIP3    H271750   4.935   1.143  13.143 -3.3744 -1.9827 -0.9418
16779TIP3   OH271751   1.891   2.272  11.174  0.3258 -0.0902  0.0159
16779TIP3    H171752   1.810   2.227  11.199  1.1590 -1.0319  1.1043
16779TIP3    H271753   1.938   2.207  11.122  0.8537  0.0693  0.2941
16780TIP3   OH271754   5.405   5.059   3.989 -0.5751 -0.2798  1.0205
16780TIP3    H171755   5.371   5.093   3.906 -2.0728 -0.6242  1.4722
16780TIP3    H271756   5.499   5.052   3.975 -0.5115  1.8398  0.1237
16781TIP3   OH271757   3.066   1.634   0.893 -0.1703  0.6369 -0.4095
16781TIP3    H171758   3.117   1.642   0.974  0.0203  1.4019 -0.5973
16781TIP3    H271759   2.996   1.698   0.902 -0.0903  0.7974 -0.8914
16782TIP3   OH271760   6.328   1.464   2.056 -0.6417 -0.2114 -0.4268
16782TIP3    H171761   6.383   1.507   2.121 -0.7414  0.6633 -0.9226
16782TIP3    H271762   6.327   1.372   2.083 -0.2727  0.0580  0.5167
16783TIP3   OH271763   0.926   4.175  13.635  0.0522  0.6567 -0.3252
16783TIP3    H171764   0.907   4.208  13.723  0.1819 -0.0850 -0.0125
16783TIP3    H271765   0.858   4.214  13.579 -0.4572  0.5661  0.2272
16784TIP3   OH271766   5.520   4.901  15.731  0.0647  0.0693  0.3356
16784TIP3    H171767   5.488   4.908  15.821 -1.0092  0.9363 -0.0984
16784TIP3    H271768   5.480   4.976  15.686 -0.2982 -0.9890 -1.1176
16785TIP3   OH271769   1.072   2.636   5.514  0.2198 -0.6462 -0.0041
16785TIP3    H171770   1.034   2.554   5.483 -1.6925  0.4121 -0.5208
16785TIP3    H271771   1.027   2.654   5.597 -0.7054  0.7986 -0.8004
16786TIP3   OH271772   3.479   0.521  14.435 -0.4787  0.2173 -0.1327
16786TIP3    H171773   3.489   0.441  14.383  0.7640  0.1304  0.2273
16786TIP3    H271774   3.406   0.502  14.494 -1.0826 -0.1454 -0.9856
16787TIP3   OH271775   2.635   2.768   0.536 -0.7716 -0.0808  0.3070
16787TIP3    H171776   2.572   2.720   0.482  1.3767 -0.6690 -1.7480
16787TIP3    H271777   2.645   2.852   0.492 -0.0299 -0.0499  0.5233
16788TIP3   OH271778   0.570   1.795   2.866 -0.3845  0.0594 -0.0156
16788TIP3    H171779   0.511   1.857   2.908 -0.0578  0.5624 -0.2921
16788TIP3    H271780   0.566   1.817   2.773 -2.2408 -2.0178 -0.4627
16789TIP3   OH271781   3.525   0.920  14.834 -0.2146 -0.3442  0.0251
16789TIP3    H171782   3.431   0.907  14.840 -0.3154 -0.1729 -1.1169
16789TIP3    H271783   3.543   0.925  14.740  0.8450  0.2219  0.2476
16790TIP3   OH271784   4.422   3.476   1.637  0.0711 -0.5336  0.5375
16790TIP3    H171785   4.405   3.440   1.550  0.0203  0.2279  0.2301
16790TIP3    H271786   4.486   3.416   1.676 -0.5113 -1.3213  0.2801
16791TIP3   OH271787   6.235   1.571  12.397 -0.6541  0.2591 -0.4385
16791TIP3    H171788   6.230   1.545  12.489  0.9543 -0.0732 -0.4413
16791TIP3    H271789   6.224   1.666  12.399 -1.0863  0.1996  0.0589
16792TIP3   OH271790   4.978   2.860   2.331 -0.4046 -0.4115  0.1703
16792TIP3    H171791   4.975   2.766   2.315 -0.1548 -0.3132 -0.4796
16792TIP3    H271792   5.053   2.891   2.279 -1.3746  0.3715 -0.7986
16793TIP3   OH271793   3.717   1.814  13.026 -0.3339  0.1644 -0.2950
16793TIP3    H171794   3.792   1.872  13.036  1.0842 -1.3602 -1.7075
16793TIP3    H271795   3.755   1.727  13.012 -2.3146 -0.4984 -1.9626
16794TIP3   OH271796   3.509   4.021   4.174 -0.7258  0.7442 -0.5998
16794TIP3    H171797   3.482   4.045   4.086 -0.4274  0.3887 -0.7886
16794TIP3    H271798   3.443   3.959   4.204  0.0694 -0.4032 -1.1983
16795TIP3   OH271799   0.983   1.484  12.560 -0.0293  0.4098  0.1274
16795TIP3    H171800   0.937   1.490  12.643  0.4879  0.9062  0.3805
16795TIP3    H271801   1.008   1.392  12.552 -2.6288 -0.2412 -0.8512
16796TIP3   OH271802   0.291   6.360   3.322  0.0302 -0.0614  0.1181
16796TIP3    H171803   0.219   6.376   3.384  0.7151  1.3557  0.5847
16796TIP3    H271804   0.343   6.291   3.363  1.2232  1.7678  1.8404
16797TIP3   OH271805   0.642   4.753  13.743 -0.3818 -0.1477  0.5112
16797TIP3    H171806   0.723   4.710  13.716 -0.0460  1.2225 -0.7605
16797TIP3    H271807   0.573   4.697  13.708  0.0390  0.1098 -0.7493
16798TIP3   OH271808   0.846   0.678  14.785 -0.5178 -0.5748 -0.5337
16798TIP3    H171809   0.867   0.585  14.777 -2.0424 -0.9056 -0.8001
16798TIP3    H271810   0.757   0.686  14.751 -0.6993  0.8526  0.2350
16799TIP3   OH271811   3.750   0.256   1.314  0.2815 -0.2854 -0.4778
16799TIP3    H171812   3.775   0.317   1.244  0.4231 -3.0961 -2.9770
16799TIP3    H271813   3.656   0.268   1.323  0.7761  2.8108  1.6253
16800TIP3   OH271814   5.948   2.077  16.663  0.1619  0.1922 -0.7128
16800TIP3    H171815   5.859   2.086  16.627  0.1754 -1.1776 -1.1188
16800TIP3    H271816   5.934   2.063  16.757 -0.0617  0.0788 -0.7605
16801TIP3   OH271817   6.125   1.916  16.967 -0.0709  0.2424 -0.2124
16801TIP3    H171818   6.060   1.879  16.908  0.2478 -1.1585  0.3080
16801TIP3    H271819   6.205   1.867  16.949  0.1537  0.1311  1.0496
16802TIP3   OH271820   6.705   1.132   4.484 -0.4205 -0.1330  0.4976
16802TIP3    H171821   6.746   1.047   4.500  0.5771  0.1445 -0.5109
16802TIP3    H271822   6.758   1.172   4.415 -0.3380  1.6940  1.5881
16803TIP3   OH271823   0.912   6.363  12.356  0.1491 -0.3983 -0.3276
16803TIP3    H171824   0.902   6.275  12.319  0.4640 -0.6444  0.1755
16803TIP3    H271825   0.835   6.375  12.411 -0.3480 -0.0111 -1.1055
16804TIP3   OH271826   6.507   2.936   4.734  0.0387 -0.0609 -1.0850
16804TIP3    H171827   6.512   2.927   4.639 -0.6893  1.3290 -1.2536
16804TIP3    H271828   6.427   2.985   4.750  0.2933 -0.0585  0.2403
16805TIP3   OH271829   2.494   3.077   5.001  0.1283 -0.3886 -0.1915
16805TIP3    H171830   2.571   3.099   5.053 -0.3775  0.4821  0.1923
16805TIP3    H271831   2.520   3.092   4.911  0.4623 -0.2550 -0.0706
16806TIP3   OH271832   2.629   4.557   4.642 -0.0716  0.5041  0.5888
16806TIP3    H171833   2.535   4.574   4.636 -0.0976  0.8221  1.8657
16806TIP3    H271834   2.635   4.461   4.645 -0.4187  0.5062  1.4938
16807TIP3   OH271835   5.031   0.981  11.226 -0.3220 -0.5039  0.0881
16807TIP3    H171836   5.056   0.963  11.136 -0.3633  0.8705 -0.2103
16807TIP3    H271837   5.090   0.927  11.279  0.7994 -0.0647 -0.7083
16808TIP3   OH271838   0.451   1.629  13.747 -0.2006  0.3559  0.5437
16808TIP3    H171839   0.534   1.584  13.766 -0.0540  0.2189 -0.4014
16808TIP3    H271840   0.468   1.676  13.665 -1.4859 -0.7745 -0.3913
16809TIP3   OH271841   1.131   2.247   5.756  0.2652 -0.0520  0.1503
16809TIP3    H171842   1.073   2.205   5.693 -0.6643  0.4692  0.6515
16809TIP3    H271843   1.131   2.189   5.833 -3.5039  2.3302  2.0911
16810TIP3   OH271844   1.568   1.884   1.430  0.1805  0.1164  0.1505
16810TIP3    H171845   1.658   1.897   1.458 -0.1482  0.0369  1.2552
16810TIP3    H271846   1.528   1.832   1.500 -0.9905  1.0036  0.1557
16811TIP3   OH271847   5.813   1.686  13.341  0.3381 -0.2204 -0.3929
16811TIP3    H171848   5.763   1.688  13.259 -0.7852  0.5651  0.2779
16811TIP3    H271849   5.891   1.634  13.321 -0.7492 -1.4750 -1.4795
16812TIP3   OH271850   2.599   4.447   6.744 -0.0928  0.3497 -0.3573
16812TIP3    H171851   2.602   4.411   6.832  1.3560  1.0479 -0.1059
16812TIP3    H271852   2.632   4.378   6.687  0.9227  0.6156 -0.0988
16813TIP3   OH271853   3.156   5.148  15.163  0.2209  0.2819 -0.0284
16813TIP3    H171854   3.246   5.134  15.134  1.1024 -1.1364  3.1605
16813TIP3    H271855   3.103   5.121  15.088  2.4157 -0.6350 -1.3225
16814TIP3   OH271856   0.524   6.086  12.533  0.2193 -0.3620  0.0487
16814TIP3    H171857   0.599   6.045  12.490 -1.3283 -2.1791 -1.0194
16814TIP3    H271858   0.491   6.018  12.591  0.0534  0.8096  1.3354
16815TIP3   OH271859   5.689   4.993   3.460  0.3876 -0.3382  0.2344
16815TIP3    H171860   5.656   4.972   3.373  0.6565 -0.1720  0.0900
16815TIP3    H271861   5.783   5.006   3.448  0.6256 -1.5323  0.7736
16816TIP3   OH271862   5.297   2.796   2.905  0.1544 -0.7709  0.2653
16816TIP3    H171863   5.308   2.719   2.961  0.0056 -1.3894 -0.5491
16816TIP3    H271864   5.236   2.852   2.953  0.7496 -0.8735  1.1489
16817TIP3   OH271865   5.829   2.175   3.688  0.1928  0.1876  0.1735
16817TIP3    H171866   5.818   2.254   3.741  0.2323  0.8142 -0.7550
16817TIP3    H271867   5.748   2.127   3.700  0.5299 -0.0713  1.4702
16818TIP3   OH271868   0.536   0.806   0.886 -0.1334  0.4583 -0.5587
16818TIP3    H171869   0.497   0.833   0.969 -1.3896 -0.7959 -0.7147
16818TIP3    H271870   0.499   0.867   0.821 -1.0177 -0.0432 -0.5402
16819TIP3   OH271871   5.458   1.251   6.302 -0.6071  0.2978  0.0793
16819TIP3    H171872   5.495   1.265   6.390  0.6582 -0.3415 -0.3346
16819TIP3    H271873   5.373   1.211   6.318 -0.2927 -0.0254  1.0262
16820TIP3   OH271874   4.994   0.642  13.822  0.4845 -0.1637  0.2730
16820TIP3    H171875   4.917   0.680  13.779  0.3765  0.9298  1.3930
16820TIP3    H271876   4.963   0.619  13.910  1.5515  0.7117  0.8847
16821TIP3   OH271877   5.481   0.115  13.831 -0.5919 -0.4000  0.0161
16821TIP3    H171878   5.576   0.127  13.830 -0.5676 -0.5636  0.2945
16821TIP3    H271879   5.448   0.191  13.879 -0.6645  0.0761 -0.7877
16822TIP3   OH271880   0.826   6.685  16.164 -0.2806 -0.2068  0.0481
16822TIP3    H171881   0.798   6.634  16.089 -0.3271  0.8025 -0.6349
16822TIP3    H271882   0.902   6.639  16.198 -0.1874 -0.6029 -0.6930
16823TIP3   OH271883   5.233   1.475   4.380  0.5645  0.1991 -0.0513
16823TIP3    H171884   5.270   1.519   4.456 -1.3345  1.0844  0.3993
16823TIP3    H271885   5.218   1.545   4.316  3.8522 -0.7873 -1.9965
16824TIP3   OH271886   2.249   5.969  13.283  1.0129 -0.8173 -0.2359
16824TIP3    H171887   2.192   5.973  13.360  2.1195  1.2494  0.5044
16824TIP3    H271888   2.193   5.932  13.214  0.3009 -3.6041  1.7625
16825TIP3   OH271889   5.668   4.698  15.955 -0.5366  0.8139  0.5330
16825TIP3    H171890   5.592   4.751  15.980 -0.8814  1.6552 -2.2194
16825TIP3    H271891   5.633   4.608  15.950 -0.9805  0.9698  0.7282
16826TIP3   OH271892   4.658   5.315  12.479 -0.4222 -0.1995 -0.5693
16826TIP3    H171893   4.684   5.224  12.493  0.7944  0.0565 -1.0549
16826TIP3    H271894   4.739   5.365  12.493 -1.1871  0.8453  0.1605
16827TIP3   OH271895   3.074   3.131   5.812 -0.0178  0.4884  0.4026
16827TIP3    H171896   3.136   3.090   5.872 -0.3021  0.8074  0.9168
16827TIP3    H271897   3.004   3.163   5.868 -0.2395  0.8745 -0.0910
16828TIP3   OH271898   3.605   4.367   1.450 -0.1559 -0.0482 -0.3104
16828TIP3    H171899   3.678   4.318   1.412 -0.6940 -0.6545 -0.5846
16828TIP3    H271900   3.565   4.411   1.375 -0.4229 -0.1844 -0.2471
16829TIP3   OH271901   2.564   1.346   3.629  0.3115 -0.3042  0.1214
16829TIP3    H171902   2.513   1.338   3.710  1.2367  0.0935  0.7621
16829TIP3    H271903   2.655   1.346   3.659  0.6491  0.4825 -0.8775
16830TIP3   OH271904   6.427   6.345  10.176 -0.5217 -0.1293  0.2031
16830TIP3    H171905   6.393   6.434  10.180  1.2606  0.6984 -2.0127
16830TIP3    H271906   6.408   6.316  10.086  0.7865 -1.1893  0.2506
16831TIP3   OH271907   1.152   0.982   5.406 -0.2004 -0.4836  0.0661
16831TIP3    H171908   1.196   1.067   5.402 -2.1498  0.5586  0.2964
16831TIP3    H271909   1.195   0.930   5.338 -0.1764  1.2605 -1.3091
16832TIP3   OH271910   2.082   3.632   1.124 -0.4185  0.3147  0.1935
16832TIP3    H171911   2.035   3.560   1.166 -0.2266 -0.6459 -1.2440
16832TIP3    H271912   2.015   3.700   1.112 -0.3819  0.8270  2.4779
16833TIP3   OH271913   1.048   2.237   0.920  0.4852  0.2571  0.0949
16833TIP3    H171914   1.056   2.277   0.833 -0.4046  1.0072  0.3531
16833TIP3    H271915   1.002   2.303   0.972  0.6343 -0.3714  1.0205
16834TIP3   OH271916   3.915   3.257  11.093  0.4510  0.8211  0.5100
16834TIP3    H171917   3.828   3.218  11.089  0.5127  0.4203  2.3901
16834TIP3    H271918   3.945   3.258  11.003 -1.4971  0.9452 -0.1638
16835TIP3   OH271919   6.720   0.610   4.546  0.4105  0.3590 -0.6420
16835TIP3    H171920   6.800   0.605   4.599 -0.7434  1.0801  1.1937
16835TIP3    H271921   6.752   0.633   4.458  2.2625  0.2009 -0.0449
16836TIP3   OH271922   4.804   3.291  14.392  0.0601  0.5700 -0.5717
16836TIP3    H171923   4.782   3.233  14.319  0.1931  0.6137 -0.6463
16836TIP3    H271924   4.897   3.276  14.407  0.1572  0.9706 -0.7702
16837TIP3   OH271925   4.360   1.681   5.451 -0.0804 -0.8326 -0.1446
16837TIP3    H171926   4.420   1.677   5.376  0.0693 -1.0325 -0.0153
16837TIP3    H271927   4.413   1.714   5.523 -0.4135  0.0733 -0.3078
16838TIP3   OH271928   6.357   2.792   1.840 -0.1500 -0.8360  0.3711
16838TIP3    H171929   6.265   2.803   1.818  0.3422  0.2769 -1.2185
16838TIP3    H271930   6.363   2.813   1.933 -1.5944 -1.5150  0.6211
16839TIP3   OH271931   4.025   5.545  13.611  0.5796  0.4895 -0.0613
16839TIP3    H171932   4.048   5.501  13.529 -0.2263 -0.8803  0.4200
16839TIP3    H271933   3.929   5.535  13.617  0.8771 -1.5717  2.2063
16840TIP3   OH271934   3.465   6.530  15.253 -0.0107  0.4046 -0.5146
16840TIP3    H171935   3.479   6.613  15.300 -0.1628  0.7353 -1.0408
16840TIP3    H271936   3.431   6.470  15.319  0.4461  0.6556 -0.0427
16841TIP3   OH271937   6.316   2.801   5.984  0.0649  0.3404 -0.4801
16841TIP3    H171938   6.288   2.757   6.065  0.4159  0.0051 -0.5384
16841TIP3    H271939   6.254   2.874   5.974 -0.9712 -0.5530 -0.7535
16842TIP3   OH271940   0.742   1.617  13.359 -0.1074  0.2137 -0.2274
16842TIP3    H171941   0.789   1.701  13.358 -2.1219  1.3878  1.1179
16842TIP3    H271942   0.795   1.561  13.416  1.7171  0.2577 -1.8176
16843TIP3   OH271943   2.721   2.086  14.617  0.8985  0.1075  0.5789
16843TIP3    H171944   2.682   2.078  14.530 -0.7276  2.1782  1.0845
16843TIP3    H271945   2.809   2.120  14.600  0.4164  0.9679 -0.2295
16844TIP3   OH271946   3.105   3.306  12.036 -0.3698 -0.4847  0.3192
16844TIP3    H171947   3.061   3.329  11.954 -2.8808  1.5073  2.1320
16844TIP3    H271948   3.185   3.359  12.036  0.4507 -1.6605 -1.4996
16845TIP3   OH271949   2.200   1.112  14.370  0.0171  0.0709 -0.7330
16845TIP3    H171950   2.252   1.035  14.394  2.1964  0.6851 -3.2305
16845TIP3    H271951   2.202   1.113  14.274 -1.0784  2.4948 -0.7622
16846TIP3   OH271952   5.086   2.606   6.216 -0.0971  0.3307 -1.0335
16846TIP3    H171953   5.119   2.621   6.128  1.9145  0.6720 -0.2581
16846TIP3    H271954   5.083   2.510   6.225  1.7562  0.2917 -0.7476
16847TIP3   OH271955   4.058   5.707   1.454  0.2922  0.2257  0.0318
16847TIP3    H171956   4.122   5.740   1.517 -0.0224 -0.6459  0.8335
16847TIP3    H271957   4.110   5.667   1.385  0.6315 -0.0847  0.4584
16848TIP3   OH271958   1.385   6.595   4.843 -0.1278 -0.4577  0.4239
16848TIP3    H171959   1.402   6.504   4.816  0.7214 -0.2338  0.1881
16848TIP3    H271960   1.407   6.597   4.936 -0.5933 -0.5989  0.5421
16849TIP3   OH271961   5.081   0.533  13.461 -0.3749 -0.2318  0.3748
16849TIP3    H171962   5.159   0.568  13.504  0.3179  0.2288 -1.2319
16849TIP3    H271963   5.111   0.507  13.374 -1.7263 -1.3052  0.2104
16850TIP3   OH271964   5.864   4.822  11.850 -0.3402  0.1918 -0.1764
16850TIP3    H171965   5.849   4.842  11.942 -0.1289  1.9471 -0.5114
16850TIP3    H271966   5.781   4.841  11.807 -0.5252 -0.8900 -0.3268
16851TIP3   OH271967   4.120   4.392  15.734 -0.9031 -0.2497  0.3352
16851TIP3    H171968   4.058   4.319  15.730  1.0636 -2.0192  0.7225
16851TIP3    H271969   4.174   4.381  15.655  0.0584  0.1603  0.9287
16852TIP3   OH271970   4.724   5.476   4.678 -0.1981 -0.3819  0.1502
16852TIP3    H171971   4.746   5.457   4.769  0.1948  1.0148  0.3556
16852TIP3    H271972   4.629   5.462   4.673 -0.3735  0.4494  1.0053
16853TIP3   OH271973   5.890   2.871   3.769  0.4155  0.0144  0.1736
16853TIP3    H171974   5.977   2.886   3.804  0.9134 -2.2949 -0.0186
16853TIP3    H271975   5.877   2.942   3.705  2.0135  0.5373  0.4247
16854TIP3   OH271976   3.111   3.490   1.524 -0.2997  0.4811  0.4892
16854TIP3    H171977   3.113   3.466   1.616 -0.4265  0.9547  0.6158
16854TIP3    H271978   3.035   3.442   1.489 -0.3177  0.3889  0.6532
16855TIP3   OH271979   4.358   4.652  13.862  0.4237 -0.3401  0.0965
16855TIP3    H171980   4.408   4.648  13.943  2.1018 -1.5658 -0.9660
16855TIP3    H271981   4.276   4.607  13.882  1.1989 -1.4289  0.8478
16856TIP3   OH271982   6.638   5.408   0.775 -0.1527 -0.2213  0.8269
16856TIP3    H171983   6.547   5.433   0.792 -0.4457 -0.9009  0.2830
16856TIP3    H271984   6.642   5.316   0.802 -0.0512 -0.6656 -0.6700
16857TIP3   OH271985   5.624   3.072  15.886  0.1376  0.1988  0.3610
16857TIP3    H171986   5.655   2.982  15.892 -1.5272 -0.3830  0.5825
16857TIP3    H271987   5.697   3.120  15.848  0.6555 -1.4522 -0.8030
16858TIP3   OH271988   1.549   4.787   0.127  0.2788  0.0913 -0.2546
16858TIP3    H171989   1.520   4.700   0.098  0.4682 -0.6040  1.6113
16858TIP3    H271990   1.555   4.838   0.046  1.3022 -1.9651 -1.5088
16859TIP3   OH271991   5.845   4.304  14.194  0.1980 -0.1999  0.2598
16859TIP3    H171992   5.932   4.342  14.205 -0.0747  0.1674  1.2072
16859TIP3    H271993   5.849   4.220  14.239 -0.1682  0.1821  1.0311
16860TIP3   OH271994   1.406   1.652  11.360 -0.2413 -0.1178  0.2544
16860TIP3    H171995   1.359   1.689  11.285  1.1504  1.0286 -0.0738
16860TIP3    H271996   1.461   1.583  11.322  0.2034  0.2311  0.2525
16861TIP3   OH271997   5.986   4.837   2.286  0.3192 -0.3031  0.2622
16861TIP3    H171998   6.061   4.896   2.296 -0.7031  1.5151 -2.3495
16861TIP3    H271999   6.025   4.753   2.262  1.5752  0.3070  0.1150
16862TIP3   OH272000   5.876   1.476  12.422 -0.3769  0.3127  0.6552
16862TIP3    H172001   5.908   1.461  12.511 -2.1332  1.4451  1.5130
16862TIP3    H272002   5.793   1.430  12.418 -0.4761  0.5637 -0.3004
16863TIP3   OH272003   0.817   4.046  13.328  0.1879  0.3350 -0.5856
16863TIP3    H172004   0.830   3.953  13.307 -2.8171  0.2713 -2.4718
16863TIP3    H272005   0.905   4.084  13.323  1.0800 -1.8668 -2.5765
16864TIP3   OH272006   5.984   2.953  16.199  0.6948  0.1249 -0.1789
16864TIP3    H172007   6.007   2.891  16.129  2.0159 -0.9490  1.1777
16864TIP3    H272008   6.022   2.914  16.278  2.0687  2.9546  0.6040
16865TIP3   OH272009   0.912   5.428  11.472  0.0887  0.1110  0.5178
16865TIP3    H172010   0.824   5.457  11.445  1.3736  3.1852 -0.6444
16865TIP3    H272011   0.913   5.334  11.454 -2.0906  0.4850 -1.9603
16866TIP3   OH272012   5.093   5.872   2.032  0.3870 -0.0327  0.4635
16866TIP3    H172013   5.117   5.961   2.058 -1.3751  0.8712 -0.9234
16866TIP3    H272014   5.037   5.841   2.103 -0.7833  0.7756 -0.0997
16867TIP3   OH272015   3.161   5.698  15.765  0.2988  0.2570 -0.0089
16867TIP3    H172016   3.085   5.725  15.714  0.2132  3.4915  1.7259
16867TIP3    H272017   3.236   5.727  15.713  0.3327 -1.0352 -0.7025
16868TIP3   OH272018   3.024   0.588  11.461  0.0961  0.3062 -0.0531
16868TIP3    H172019   3.114   0.618  11.448 -0.6410  1.9520 -1.6433
16868TIP3    H272020   2.971   0.667  11.453 -1.5496 -0.7403  0.2223
16869TIP3   OH272021   0.620   0.811  17.077  0.7516 -0.4178  0.4132
16869TIP3    H172022   0.644   0.775  17.163  1.5182  0.4402  0.5762
16869TIP3    H272023   0.614   0.906  17.092  2.1977 -0.1257 -0.7781
16870TIP3   OH272024   4.850   5.316   4.156 -0.0976  0.3855  0.3147
16870TIP3    H172025   4.892   5.274   4.080  0.1450 -0.0458  0.6857
16870TIP3    H272026   4.908   5.296   4.229 -0.5531  0.4405  0.6926
16871TIP3   OH272027   5.111   2.676   0.272  0.1542 -0.0000 -0.2609
16871TIP3    H172028   5.128   2.608   0.208  0.4670 -0.1414 -0.0312
16871TIP3    H272029   5.184   2.738   0.262 -1.1556  1.3323 -1.8202
16872TIP3   OH272030   0.957   6.528  14.364  0.3391 -0.6599  0.0591
16872TIP3    H172031   0.864   6.507  14.371  0.4608 -1.2000  0.0419
16872TIP3    H272032   0.986   6.483  14.285  0.5458 -0.2403 -0.1054
16873TIP3   OH272033   5.871   1.346  15.290 -0.6594 -0.5963  0.5532
16873TIP3    H172034   5.846   1.293  15.365 -0.7045 -0.3722  0.6973
16873TIP3    H272035   5.929   1.289  15.239 -0.4471 -0.6688  0.8761
16874TIP3   OH272036   2.668   6.507   3.977 -0.0530 -0.1024 -0.3606
16874TIP3    H172037   2.760   6.484   3.967  0.3163  0.3047  1.8649
16874TIP3    H272038   2.633   6.440   4.035 -1.2869 -0.5113 -1.5497
16875TIP3   OH272039   2.729   1.291  14.335 -0.4502 -0.3202  0.1189
16875TIP3    H172040   2.667   1.303  14.263 -2.4309  0.2920  1.8442
16875TIP3    H272041   2.694   1.347  14.405  0.9259 -1.5613  1.8289
16876TIP3   OH272042   0.080   1.842   3.757 -0.5210 -0.0370  0.0929
16876TIP3    H172043   0.030   1.920   3.735  0.8419  0.3713 -1.6858
16876TIP3    H272044   0.166   1.876   3.783  0.2309 -0.9442 -1.1490
16877TIP3   OH272045   6.756   1.262  16.904 -0.0041  0.5981  0.2655
16877TIP3    H172046   6.805   1.339  16.934 -2.7115  1.7205  1.9799
16877TIP3    H272047   6.716   1.289  16.822 -0.6079  0.8770  0.6505
16878TIP3   OH272048   4.674   5.978   6.088 -0.2688  0.5178  0.2604
16878TIP3    H172049   4.641   5.889   6.095 -1.0296  0.7996  0.3826
16878TIP3    H272050   4.752   5.980   6.143 -0.3495 -0.0258  0.3927
16879TIP3   OH272051   0.697   5.140   2.779  0.0012 -0.2174  0.2881
16879TIP3    H172052   0.730   5.218   2.824  1.0483 -0.6678  0.3352
16879TIP3    H272053   0.777   5.093   2.753 -0.6184 -1.6846  0.9927
16880TIP3   OH272054   4.053   3.368   1.349  0.0167  0.0942 -0.0107
16880TIP3    H172055   4.045   3.353   1.443 -2.2789  2.8645  0.3071
16880TIP3    H272056   3.982   3.316   1.310 -0.9477  1.3183  0.0880
16881TIP3   OH272057   0.473   2.115   6.796  0.5212  0.4891 -0.1560
16881TIP3    H172058   0.431   2.195   6.763  1.3327  0.1022 -2.2304
16881TIP3    H272059   0.552   2.107   6.742  1.1772 -0.9431  1.0042
16882TIP3   OH272060   1.603   4.268  11.363  0.1637 -0.3652  0.1820
16882TIP3    H172061   1.675   4.329  11.351 -0.0737  0.0512  0.8149
16882TIP3    H272062   1.558   4.300  11.441 -0.3809 -0.9388  0.1065
16883TIP3   OH272063   2.002   4.838   1.135  0.3496  0.6492 -0.3645
16883TIP3    H172064   1.995   4.744   1.118  1.0626  0.4070  0.6108
16883TIP3    H272065   1.919   4.862   1.175  0.3658  0.3262 -0.1351
16884TIP3   OH272066   3.194   4.582   5.701  0.1032  0.7132 -0.2753
16884TIP3    H172067   3.282   4.551   5.681 -0.7735 -0.6965 -2.0938
16884TIP3    H272068   3.157   4.512   5.756 -0.0982  1.0020 -0.0431
16885TIP3   OH272069   3.959   2.896   6.340 -0.4282  0.3407  0.2094
16885TIP3    H172070   4.014   2.931   6.270  1.0983 -0.8440  0.8030
16885TIP3    H272071   3.936   2.808   6.311  1.2585 -0.6497  1.7173
16886TIP3   OH272072   1.497   2.875   5.503  0.2268  0.0289  0.3311
16886TIP3    H172073   1.423   2.893   5.561 -1.0101 -1.1596 -0.8584
16886TIP3    H272074   1.494   2.945   5.437 -1.4724 -1.5179 -1.2763
16887TIP3   OH272075   2.034   1.967   5.198 -0.3295  0.2878  0.2784
16887TIP3    H172076   2.116   1.986   5.244 -0.2981  0.6804  0.0573
16887TIP3    H272077   2.008   2.050   5.159 -0.6809  0.0963  0.0996
16888TIP3   OH272078   3.742   2.421  10.486  0.2228 -0.0197  0.1104
16888TIP3    H172079   3.667   2.404  10.544  1.0134  0.0279  1.1484
16888TIP3    H272080   3.750   2.516  10.484 -0.4133  0.0206 -0.8682
16889TIP3   OH272081   6.004   0.301   1.362 -0.6385 -0.2123  0.3624
16889TIP3    H172082   6.037   0.389   1.380  0.9991 -0.2507 -2.2503
16889TIP3    H272083   6.050   0.244   1.424 -0.1604  0.4974  0.6545
16890TIP3   OH272084   0.733   5.673  14.990 -0.0815 -0.0357  0.1252
16890TIP3    H172085   0.718   5.748  15.047 -0.0976 -0.5295  0.7863
16890TIP3    H272086   0.827   5.653  15.000 -0.4538 -1.2274  1.3747
16891TIP3   OH272087   5.877   4.476   2.474 -0.4584 -0.7602  0.1284
16891TIP3    H172088   5.878   4.494   2.568  0.6490 -0.7173  0.1083
16891TIP3    H272089   5.853   4.560   2.434 -1.6136 -0.9544  0.4108
16892TIP3   OH272090   1.447   3.591  13.504 -0.4771  0.5050 -0.0775
16892TIP3    H172091   1.508   3.657  13.471 -0.5788 -0.4396 -2.1599
16892TIP3    H272092   1.499   3.510  13.509 -0.8997  0.2681  0.5516
16893TIP3   OH272093   1.286   1.960   0.472 -0.0246 -0.3750  0.2715
16893TIP3    H172094   1.333   1.957   0.555  0.2761 -0.7461  0.0869
16893TIP3    H272095   1.194   1.951   0.498 -0.0268  0.6859  0.6542
16894TIP3   OH272096   5.276   0.425  11.030 -0.9021 -0.3560 -0.2814
16894TIP3    H172097   5.341   0.484  10.990 -1.9764  2.1837  1.5872
16894TIP3    H272098   5.233   0.383  10.955  1.1881 -0.2402 -1.6070
16895TIP3   OH272099   4.643   3.059   0.856 -0.3061 -0.4498 -0.7695
16895TIP3    H172100   4.706   3.101   0.798 -0.1825 -0.0394 -0.3390
16895TIP3    H272101   4.562   3.055   0.805 -1.0598  2.6874  0.1039
16896TIP3   OH272102   1.529   1.220   4.792  0.6317  0.3355  0.0498
16896TIP3    H172103   1.453   1.167   4.815  1.1613 -0.9240 -1.0273
16896TIP3    H272104   1.562   1.252   4.876 -0.6301  0.2526  0.5866
16897TIP3   OH272105   4.001   5.757   5.365 -0.5110  0.1470  0.1329
16897TIP3    H172106   3.999   5.851   5.384  3.0951  0.2653  0.1753
16897TIP3    H272107   3.989   5.716   5.450 -0.5945  0.5563  0.3243
16898TIP3   OH272108   0.229   5.472   4.966 -0.1576  0.3189 -0.1683
16898TIP3    H172109   0.273   5.447   5.047 -0.2206 -0.4236 -0.3578
16898TIP3    H272110   0.220   5.567   4.972  0.5486  0.3630  0.3374
16899TIP3   OH272111   0.274   3.456   0.280  0.2222 -0.0853  0.0045
16899TIP3    H172112   0.339   3.525   0.266  0.8287 -0.7030 -0.2610
16899TIP3    H272113   0.255   3.423   0.192  1.9574 -2.0827  0.3348
16900TIP3   OH272114   1.390   2.165   0.898 -0.0790 -0.0579 -0.1121
16900TIP3    H172115   1.480   2.197   0.886  0.7150 -1.3756  1.9919
16900TIP3    H272116   1.383   2.089   0.840 -0.1058  0.5610 -0.9132
16901TIP3   OH272117   6.666   3.789   1.668  0.5977  0.3812  0.0260
16901TIP3    H172118   6.707   3.873   1.689  0.0429  0.7093 -0.2087
16901TIP3    H272119   6.691   3.732   1.741 -1.0121  1.4255  1.4327
16902TIP3   OH272120   4.979   3.846  16.418 -0.4572 -0.0211 -0.1943
16902TIP3    H172121   4.920   3.783  16.378 -1.9847 -0.1809  2.2006
16902TIP3    H272122   5.036   3.793  16.475 -0.4370  0.5371  0.3131
16903TIP3   OH272123   3.978   5.285   4.948  0.2507  0.6028 -0.2174
16903TIP3    H172124   3.975   5.324   4.861  1.1531  1.4243  0.1098
16903TIP3    H272125   3.887   5.264   4.968  0.0144  0.5984 -1.2715
16904TIP3   OH272126   6.699   3.769   5.135 -0.0629 -0.3013 -0.3750
16904TIP3    H172127   6.678   3.681   5.105  1.1682  0.0434 -2.3566
16904TIP3    H272128   6.708   3.821   5.055  4.4033  0.3982  0.4047
16905TIP3   OH272129   1.797   0.385   0.570  0.0218 -0.3829 -0.7150
16905TIP3    H172130   1.769   0.386   0.479  1.1976  1.4566 -1.0878
16905TIP3    H272131   1.851   0.464   0.579 -2.7294  1.2842  2.3575
16906TIP3   OH272132   2.985   5.283   0.383  0.5665 -0.5437  0.4082
16906TIP3    H172133   2.919   5.219   0.358  0.3868 -0.0146 -0.4816
16906TIP3    H272134   3.060   5.264   0.327  0.2650  0.4606 -0.3597
16907TIP3   OH272135   2.870   3.268   0.779 -0.0114 -0.3435  0.3840
16907TIP3    H172136   2.775   3.274   0.768  0.0776  0.6033  0.0797
16907TIP3    H272137   2.890   3.175   0.766 -0.8445 -0.4753  0.0091
16908TIP3   OH272138   3.469   2.497   5.543 -0.3071  0.1167 -0.5828
16908TIP3    H172139   3.531   2.520   5.613 -0.8604  2.3457 -0.7705
16908TIP3    H272140   3.473   2.571   5.483 -1.1913 -0.9448 -1.9846
16909TIP3   OH272141   5.702   3.931  16.378 -0.3459 -0.2120  0.1914
16909TIP3    H172142   5.672   3.895  16.461 -0.8686  0.7325  0.4183
16909TIP3    H272143   5.625   3.975  16.342  0.4440  1.2377  0.2288
16910TIP3   OH272144   1.247   1.776   4.486  0.4976 -0.0795  0.5170
16910TIP3    H172145   1.215   1.699   4.533 -0.5790 -0.0138 -0.0907
16910TIP3    H272146   1.169   1.812   4.444  1.2334  0.5863 -0.2843
16911TIP3   OH272147   0.060   5.649   0.936 -0.4329  0.0308  0.1466
16911TIP3    H172148   0.055   5.621   0.845 -2.6580  0.7596  0.0108
16911TIP3    H272149   0.150   5.677   0.948  1.2269 -4.6232 -0.4588
16912TIP3   OH272150   4.369   1.236   0.408 -0.5101  0.0475 -0.7574
16912TIP3    H172151   4.381   1.234   0.314  2.3010  1.3439 -0.4812
16912TIP3    H272152   4.405   1.153   0.439 -2.5838 -0.9431 -0.8862
16913TIP3   OH272153   5.138   5.972   5.066  0.1565  0.7207  0.0902
16913TIP3    H172154   5.078   5.964   5.140  0.2063 -0.9776 -0.0401
16913TIP3    H272155   5.217   6.010   5.104  0.1361 -0.0110  0.8817
16914TIP3   OH272156   6.719   3.120  12.355 -0.3135 -0.2386  0.2372
16914TIP3    H172157   6.669   3.047  12.390 -0.0786 -0.9119 -0.8134
16914TIP3    H272158   6.717   3.186  12.424 -0.2497 -1.3603  1.3171
16915TIP3   OH272159   2.751   1.873  14.814  0.2917 -0.1407 -0.5802
16915TIP3    H172160   2.729   1.944  14.754  1.1849 -0.0884 -0.8663
16915TIP3    H272161   2.719   1.902  14.899  0.4971  0.5283 -0.7293
16916TIP3   OH272162   4.239   5.522   2.216 -0.1979  0.2620 -0.3547
16916TIP3    H172163   4.318   5.569   2.244 -0.7323 -0.1341  1.9110
16916TIP3    H272164   4.245   5.436   2.259 -2.2394  0.5278  0.5648
16917TIP3   OH272165   0.806   5.362  11.764 -0.5987  0.0233 -0.2133
16917TIP3    H172166   0.736   5.397  11.819 -0.2679 -0.5385  0.5712
16917TIP3    H272167   0.851   5.440  11.731  2.7174  0.5072  4.8048
16918TIP3   OH272168   1.783   5.313  12.081  0.1001  0.0504  0.0369
16918TIP3    H172169   1.701   5.325  12.032  0.1853 -0.2200 -0.1687
16918TIP3    H272170   1.787   5.390  12.139 -0.6141 -0.2597  0.5068
16919TIP3   OH272171   4.804   2.929  14.201 -0.8756 -0.2472  0.0978
16919TIP3    H172172   4.879   2.967  14.156 -0.7444  0.3143  0.7842
16919TIP3    H272173   4.773   2.860  14.141 -0.4269  0.1779 -0.6402
16920TIP3   OH272174   0.621   5.991   6.376  0.0825 -0.1090  0.0039
16920TIP3    H172175   0.544   6.001   6.432 -0.2307 -3.2342  0.1988
16920TIP3    H272176   0.689   5.956   6.434  0.6969 -0.4350 -0.9015
16921TIP3   OH272177   3.120   5.005   6.350 -0.6846 -0.3558  0.1741
16921TIP3    H172178   3.091   4.950   6.422 -0.7764 -1.3723 -0.6267
16921TIP3    H272179   3.153   4.944   6.284  2.2988  0.6807  0.6151
16922TIP3   OH272180   4.042   0.602  17.029  0.3311 -0.7837 -0.0296
16922TIP3    H172181   4.067   0.525  17.080  0.9382 -0.4110  0.2348
16922TIP3    H272182   4.071   0.582  16.940 -1.0617 -1.5930 -0.3261
16923TIP3   OH272183   0.294   0.392   2.481  0.0461 -0.0264 -0.1447
16923TIP3    H172184   0.329   0.477   2.509 -1.3717  0.2970  0.7055
16923TIP3    H272185   0.329   0.330   2.545 -0.5461  0.2264  0.4306
16924TIP3   OH272186   1.956   4.687   2.165 -0.0709 -1.0890 -0.1625
16924TIP3    H172187   1.942   4.766   2.219  0.5235  0.1511 -1.8006
16924TIP3    H272188   1.877   4.635   2.181  0.8259 -1.5654  3.2354
16925TIP3   OH272189   2.675   0.496   1.717  0.2048 -0.2333 -0.3610
16925TIP3    H172190   2.728   0.537   1.649  0.7400 -1.1952 -0.5254
16925TIP3    H272191   2.673   0.403   1.694 -0.3222 -0.4372  0.4651
16926TIP3   OH272192   1.042   0.348   0.527 -0.2631 -0.2451  0.2657
16926TIP3    H172193   1.111   0.284   0.510 -1.5024 -1.2085 -1.2358
16926TIP3    H272194   1.080   0.431   0.499  0.6807 -0.5841  0.4963
16927TIP3   OH272195   5.411   0.105  15.231  0.3878 -0.2591 -0.3468
16927TIP3    H172196   5.346   0.119  15.300  1.2777  1.6766  0.1340
16927TIP3    H272197   5.371   0.143  15.153  0.4576 -0.0829 -0.2985
16928TIP3   OH272198   4.780   3.309   0.245  0.0763  0.4855  0.6671
16928TIP3    H172199   4.724   3.270   0.178  0.6303 -0.1308  0.5623
16928TIP3    H272200   4.725   3.312   0.323  0.2041 -1.0148  0.8186
16929TIP3   OH272201   6.774   5.933   3.631 -0.7187 -0.0923 -0.4524
16929TIP3    H172202   6.808   5.943   3.720 -1.0354 -1.7839 -0.1130
16929TIP3    H272203   6.719   6.010   3.617  0.4718  0.9133  0.2821
16930TIP3   OH272204   0.968   4.990   0.854 -0.0483  0.3187  0.0022
16930TIP3    H172205   1.051   4.970   0.898  0.8406 -1.3756 -2.3319
16930TIP3    H272206   0.977   5.081   0.826  0.9451  0.2331  0.0012
16931TIP3   OH272207   6.319   4.749   5.433 -0.4754  0.1471 -0.1018
16931TIP3    H172208   6.297   4.822   5.374 -1.1011 -0.4628 -0.6390
16931TIP3    H272209   6.388   4.784   5.489  0.7116  0.5006 -1.7333
16932TIP3   OH272210   3.872   3.348  16.010 -0.3475  0.1659  0.1213
16932TIP3    H172211   3.965   3.369  16.010 -0.5913  1.4173  2.6431
16932TIP3    H272212   3.868   3.255  16.033  0.2563  0.1238  0.0499
16933TIP3   OH272213   0.137   0.384  13.713 -0.0030 -0.1519  0.4652
16933TIP3    H172214   0.111   0.400  13.803 -0.3571  0.6735  0.2257
16933TIP3    H272215   0.092   0.304  13.688 -2.3427  1.2344  0.0727
16934TIP3   OH272216   0.041   2.860  11.010  0.0225 -0.2443 -0.0004
16934TIP3    H172217  -0.003   2.887  10.930  2.1776  1.5520 -0.6208
16934TIP3    H272218   0.021   2.929  11.073  0.6963 -0.1876  0.1576
16935TIP3   OH272219   0.656   5.808  16.852  0.3171  0.4465  0.1489
16935TIP3    H172220   0.693   5.769  16.772  0.2286  2.6433 -1.0239
16935TIP3    H272221   0.565   5.777  16.854  1.3636 -2.7329  1.5385
16936TIP3   OH272222   5.769   6.625  12.776 -0.5144  0.1921  0.5014
16936TIP3    H172223   5.736   6.541  12.806 -0.3758 -0.1268 -0.2159
16936TIP3    H272224   5.698   6.661  12.722  0.3941 -0.6345 -1.2975
16937TIP3   OH272225   4.133   6.010   5.535  0.4470 -0.1873  0.4550
16937TIP3    H172226   4.080   6.045   5.464  0.3050  2.3044  1.7417
16937TIP3    H272227   4.073   6.004   5.609  1.2168 -0.3026  1.0839
16938TIP3   OH272228   2.373   1.485  11.771  0.0063 -0.0340 -0.7592
16938TIP3    H172229   2.355   1.402  11.726  0.4787 -0.1977 -0.6537
16938TIP3    H272230   2.431   1.532  11.711  1.0507 -0.4673 -0.1092
16939TIP3   OH272231   4.860   5.632  14.328 -0.6428  0.6603  0.1450
16939TIP3    H172232   4.879   5.699  14.263  1.1097  0.3726  0.3336
16939TIP3    H272233   4.916   5.654  14.402  0.2652 -1.2480  0.0535
16940TIP3   OH272234   2.172   0.017   5.281 -0.0425 -0.6371 -0.0118
16940TIP3    H172235   2.258   0.047   5.252 -0.2558  0.4002  0.4121
16940TIP3    H272236   2.177   0.016   5.376 -0.4427 -0.7392  0.0103
16941TIP3   OH272237   1.287   4.136   2.004  0.1087  0.4442 -0.7384
16941TIP3    H172238   1.259   4.045   2.011 -0.5732  0.6573 -0.7264
16941TIP3    H272239   1.375   4.130   1.966  0.1459 -0.2266 -0.5616
16942TIP3   OH272240   3.099   2.529   3.369  0.3110  0.1089  0.4500
16942TIP3    H172241   3.176   2.515   3.424  0.0724 -0.7057  0.5782
16942TIP3    H272242   3.028   2.485   3.415  0.2155 -1.0689 -0.7918
16943TIP3   OH272243   4.248   0.281  14.543 -0.9867 -0.5529 -0.1049
16943TIP3    H172244   4.200   0.211  14.499 -1.5370 -0.5718  0.5219
16943TIP3    H272245   4.241   0.260  14.636  2.5150 -2.0300 -0.0960
16944TIP3   OH272246   2.974   2.476   2.631 -0.1596  0.1434  0.2327
16944TIP3    H172247   3.069   2.483   2.640 -0.2779  0.5770  1.1724
16944TIP3    H272248   2.944   2.565   2.614 -0.2756 -0.1821 -1.3696
16945TIP3   OH272249   3.340   4.094   0.820 -0.6617  0.0709 -0.4664
16945TIP3    H172250   3.386   4.170   0.856  0.6570 -0.4820 -0.9637
16945TIP3    H272251   3.359   4.023   0.881 -0.1465 -0.3568 -1.1104
16946TIP3   OH272252   0.559   0.679  14.836  0.0917  0.2949 -0.1573
16946TIP3    H172253   0.515   0.678  14.751  0.7024  1.6370 -0.5082
16946TIP3    H272254   0.564   0.587  14.862  1.7834 -0.3581 -2.5598
16947TIP3   OH272255   3.392   5.499  12.343 -0.0250 -0.3499  0.7885
16947TIP3    H172256   3.393   5.480  12.249 -0.2556 -2.3676  1.1840
16947TIP3    H272257   3.467   5.451  12.378 -0.2625 -0.0459  1.7294
16948TIP3   OH272258   1.845   1.848   1.503  0.3468  0.3973  0.4092
16948TIP3    H172259   1.934   1.812   1.496 -0.0026 -0.9573  2.6598
16948TIP3    H272260   1.854   1.923   1.562 -0.1229 -0.1428  1.1645
16949TIP3   OH272261   2.925   2.274   4.030  0.2281 -0.6431 -0.0008
16949TIP3    H172262   2.939   2.191   3.985 -0.0316 -0.3635 -0.6090
16949TIP3    H272263   3.001   2.328   4.006 -0.4724 -0.0902 -1.0699
16950TIP3   OH272264   0.404   0.152   5.094  0.1239  0.1302 -0.5010
16950TIP3    H172265   0.442   0.075   5.053  0.0974 -0.9990  1.5077
16950TIP3    H272266   0.466   0.175   5.163 -0.7906  0.7743  0.1212
16951TIP3   OH272267   0.244   1.214   0.969 -0.5528  0.3541  0.2506
16951TIP3    H172268   0.187   1.182   0.899 -0.2408 -0.4228  0.3541
16951TIP3    H272269   0.197   1.290   1.004 -1.6051 -0.3685  0.4359
16952TIP3   OH272270   1.204   4.601  13.866  0.0153  0.5662  0.1047
16952TIP3    H172271   1.261   4.636  13.934  0.4281  0.9745 -0.4438
16952TIP3    H272272   1.116   4.629  13.891 -0.0748 -0.8965  1.4717
16953TIP3   OH272273   5.354   6.463   2.132 -0.5332  0.6362  0.1380
16953TIP3    H172274   5.336   6.554   2.154  1.5891  1.0121  0.4028
16953TIP3    H272275   5.408   6.430   2.204  0.1430 -0.3149 -0.7818
16954TIP3   OH272276   6.643   3.688  12.799  0.0303  0.1979 -0.2683
16954TIP3    H172277   6.729   3.727  12.817 -0.9694  1.8295  1.0642
16954TIP3    H272278   6.601   3.682  12.885 -0.9354 -1.2187 -0.8299
16955TIP3   OH272279   5.208   5.375   1.997  0.1017 -0.2729  0.2383
16955TIP3    H172280   5.274   5.441   1.979 -1.2672  0.9111 -0.5055
16955TIP3    H272281   5.126   5.424   2.006 -0.2609 -1.3577  4.0396
16956TIP3   OH272282   3.917   3.998   1.524 -0.3816 -0.1746 -0.5968
16956TIP3    H172283   3.987   4.025   1.583  2.1556  0.8947 -3.8844
16956TIP3    H272284   3.861   4.075   1.516  0.1270  0.1850 -0.7241
16957TIP3   OH272285   1.884   1.733   0.399 -0.6954  0.3201  0.0596
16957TIP3    H172286   1.928   1.684   0.329  0.7398 -0.0188  1.1774
16957TIP3    H272287   1.850   1.811   0.355 -1.3807 -0.7497 -1.3683
16958TIP3   OH272288   1.378   5.809   0.564  0.9477  0.4669  0.2959
16958TIP3    H172289   1.420   5.834   0.481  1.0479  0.3162  0.3005
16958TIP3    H272290   1.353   5.892   0.604  0.4706  0.5199 -0.1081
16959TIP3   OH272291   2.032   2.646  15.889  0.5609 -0.0839 -0.0112
16959TIP3    H172292   2.083   2.566  15.875 -0.2739 -0.6486  0.1386
16959TIP3    H272293   2.002   2.639  15.980  0.9089  0.6500  0.1666
16960TIP3   OH272294   3.890   6.479  12.250 -0.2920 -0.3184 -0.1163
16960TIP3    H172295   3.882   6.480  12.345 -1.1569  0.9081 -0.1958
16960TIP3    H272296   3.807   6.514  12.218  0.9706  1.7280 -1.2672
16961TIP3   OH272297   6.554   1.820  14.356 -0.3016  0.2146 -0.5013
16961TIP3    H172298   6.609   1.789  14.284  2.8587 -2.1580  2.7693
16961TIP3    H272299   6.506   1.742  14.385 -1.0581  0.9996  0.4130
16962TIP3   OH272300   6.703   6.476   2.685 -0.1741  0.1724  0.6662
16962TIP3    H172301   6.652   6.438   2.613  1.0078  0.4979 -0.3572
16962TIP3    H272302   6.648   6.546   2.719 -0.3425  0.6339 -0.5353
16963TIP3   OH272303   1.721   5.175  16.630 -0.0293 -0.0597 -0.2605
16963TIP3    H172304   1.718   5.252  16.573 -0.3498 -1.4920 -2.2483
16963TIP3    H272305   1.810   5.142  16.620 -0.8130 -1.7321 -1.8898
16964TIP3   OH272306   5.293   6.605   0.628  0.4421 -0.1720 -0.0360
16964TIP3    H172307   5.387   6.600   0.645  0.3740 -2.4951 -0.1549
16964TIP3    H272308   5.252   6.611   0.714  0.6141 -1.0718  0.1096
16965TIP3   OH272309   0.230   4.068   4.903 -0.2682 -0.1913  0.6357
16965TIP3    H172310   0.230   3.975   4.924 -0.0551  0.2048  2.4882
16965TIP3    H272311   0.314   4.083   4.858  0.8553 -0.4308  2.5976
16966TIP3   OH272312   3.582   2.838   0.334 -0.0460  0.2125  0.1104
16966TIP3    H172313   3.555   2.865   0.422  2.3525  3.1515  0.0460
16966TIP3    H272314   3.521   2.883   0.276 -0.1316  0.2447  0.2243
16967TIP3   OH272315   1.955   5.251  11.878  0.6788 -0.2083  0.4240
16967TIP3    H172316   1.924   5.160  11.874 -1.4292  0.5098 -0.0663
16967TIP3    H272317   1.894   5.294  11.938  2.3346  0.6431  1.5209
16968TIP3   OH272318   3.199   6.507  14.207 -0.4723 -0.0712  0.1687
16968TIP3    H172319   3.267   6.461  14.158 -0.9949  0.5985 -1.2129
16968TIP3    H272320   3.162   6.440  14.265 -1.3139 -1.4719 -1.9150
16969TIP3   OH272321   3.674   5.235   4.289  0.0898 -0.1851  0.6734
16969TIP3    H172322   3.699   5.288   4.364 -0.2939  0.7137  0.1776
16969TIP3    H272323   3.620   5.293   4.235  1.6434 -0.3095 -1.0688
16970TIP3   OH272324   0.592   5.428   4.479 -0.2924  0.0216  0.2829
16970TIP3    H172325   0.596   5.340   4.516  0.7123  0.6455  1.6998
16970TIP3    H272326   0.544   5.418   4.397 -0.5694 -1.7661  0.6593
16971TIP3   OH272327   3.848   4.212   1.320  0.2987  0.0638 -0.3163
16971TIP3    H172328   3.902   4.273   1.269 -0.7875  0.2839 -1.2304
16971TIP3    H272329   3.802   4.160   1.253 -0.4711 -0.2486  0.4514
16972TIP3   OH272330   2.777   5.720  14.724 -0.4069 -0.4710  0.1950
16972TIP3    H172331   2.870   5.740  14.714 -0.5974 -0.3122 -1.3108
16972TIP3    H272332   2.731   5.789  14.676 -1.1995 -2.0310 -1.3571
16973TIP3   OH272333   1.632   6.745   2.736  0.3659  0.0164 -0.3733
16973TIP3    H172334   1.716   6.792   2.734  0.6081 -0.4593 -1.7777
16973TIP3    H272335   1.655   6.653   2.720 -0.3941 -0.1587 -0.4960
16974TIP3   OH272336   1.925   0.198  15.864  0.6687  0.3680 -0.0254
16974TIP3    H172337   1.881   0.282  15.849  0.4941  0.8899  3.0163
16974TIP3    H272338   2.002   0.200  15.807 -0.1796  1.9082 -1.1486
16975TIP3   OH272339   1.245   0.960  11.352 -0.0571 -0.1052  0.1573
16975TIP3    H172340   1.167   1.008  11.325  2.0528  3.0701 -0.5936
16975TIP3    H272341   1.292   0.943  11.270  0.3440 -1.4678  0.6613
16976TIP3   OH272342   2.527   2.989   0.980  0.0297  0.5050  0.4285
16976TIP3    H172343   2.600   2.953   0.931  0.4055  1.3323  0.3749
16976TIP3    H272344   2.469   3.026   0.914 -0.9271 -1.0338  0.4010
16977TIP3   OH272345   6.770   4.320   1.113  0.3886 -0.1996 -0.7990
16977TIP3    H172346   6.826   4.380   1.063  1.6656  2.1849  3.1764
16977TIP3    H272347   6.696   4.374   1.140  1.7204 -0.1116  3.1460
16978TIP3   OH272348   5.108   1.520  14.317 -0.1425 -0.2831 -0.1359
16978TIP3    H172349   5.092   1.614  14.310  1.4453  0.1084  1.1062
16978TIP3    H272350   5.028   1.480  14.284 -1.1669  1.5085  0.0724
16979TIP3   OH272351   2.705   5.738  15.376  0.1472  0.0438  0.5765
16979TIP3    H172352   2.737   5.826  15.360 -0.8267  0.5293  1.2899
16979TIP3    H272353   2.725   5.722  15.468  0.5101 -0.5682  0.3990
16980TIP3   OH272354   0.844   6.493  15.354  0.3116 -0.2001 -0.2863
16980TIP3    H172355   0.922   6.498  15.409  0.1047  1.5813 -0.1342
16980TIP3    H272356   0.793   6.421  15.392  1.9880 -1.5653 -0.5593
16981TIP3   OH272357   0.181   2.261  16.343 -0.6262  0.4989  0.3826
16981TIP3    H172358   0.127   2.288  16.416 -2.3924 -0.1465 -0.6603
16981TIP3    H272359   0.127   2.200  16.293  1.4685 -1.0667 -0.0594
16982TIP3   OH272360   2.174   3.194   2.543 -0.7710 -0.1794  0.2196
16982TIP3    H172361   2.252   3.139   2.549 -1.7871 -1.6917 -0.3706
16982TIP3    H272362   2.204   3.280   2.575  1.3097 -0.5377 -0.6591
16983TIP3   OH272363   2.563   0.364  16.811  0.1625 -0.5466  0.1231
16983TIP3    H172364   2.517   0.443  16.783 -0.6959 -1.1372 -0.1212
16983TIP3    H272365   2.654   0.392  16.821 -0.5507  1.0624  2.3650
16984TIP3   OH272366   6.324   1.992   0.844  0.4620 -0.0295  0.3500
16984TIP3    H172367   6.336   2.013   0.937  1.0558 -0.5346  0.3866
16984TIP3    H272368   6.338   1.898   0.839 -3.5813 -0.7334  0.4429
16985TIP3   OH272369   1.637   2.495  11.382 -0.4521  0.0763  0.2888
16985TIP3    H172370   1.551   2.532  11.403 -0.1981  0.8637 -0.0608
16985TIP3    H272371   1.621   2.439  11.306 -0.6382  0.2734  0.1839
16986TIP3   OH272372   4.989   3.657   1.832  0.7041  0.0022  0.4409
16986TIP3    H172373   4.949   3.617   1.910 -2.8197 -0.9057 -1.6853
16986TIP3    H272374   5.013   3.582   1.777  1.9019  0.6566  0.0715
16987TIP3   OH272375   5.653   0.526  15.106 -0.5606 -0.3972  0.0362
16987TIP3    H172376   5.697   0.517  15.021  0.9159  0.8891  0.6413
16987TIP3    H272377   5.597   0.603  15.095 -1.2532 -0.9209 -0.1324
16988TIP3   OH272378   0.709   5.459   6.696  0.4069 -0.0799  0.2716
16988TIP3    H172379   0.650   5.427   6.627  0.5028  0.1498  0.0823
16988TIP3    H272380   0.715   5.386   6.757 -1.7369  0.6352  1.3831
16989TIP3   OH272381   0.553   4.918  10.605  0.4316  0.6023  0.1176
16989TIP3    H172382   0.528   4.830  10.633  1.2832  0.5576  0.7706
16989TIP3    H272383   0.647   4.922  10.619  0.9583  0.4779 -3.1441
16990TIP3   OH272384   0.335   6.028   6.215  0.7265  0.0853 -0.4003
16990TIP3    H172385   0.315   6.112   6.255 -1.2928 -0.2961 -0.5542
16990TIP3    H272386   0.330   5.966   6.288  2.2915  0.0978 -0.2702
16991TIP3   OH272387   5.624   0.061   2.577 -0.1221 -0.6775 -0.3249
16991TIP3    H172388   5.623   0.123   2.504  0.0504 -1.0278 -0.6306
16991TIP3    H272389   5.663   0.109   2.649  0.9392 -0.7310 -0.8486
16992TIP3   OH272390   5.002   2.414  14.911  0.0912  0.3903 -0.2068
16992TIP3    H172391   5.034   2.324  14.916 -0.4227  0.2244  0.1549
16992TIP3    H272392   4.921   2.408  14.861 -1.0766  0.3337  1.6361
16993TIP3   OH272393   6.493   0.766   1.004  0.5899  0.0527 -0.4865
16993TIP3    H172394   6.499   0.707   0.928  0.0372  0.0339 -0.5218
16993TIP3    H272395   6.557   0.835   0.986 -0.3871  0.6968 -1.5629
16994TIP3   OH272396   2.635   3.998   3.239 -0.4815  0.5635 -0.0771
16994TIP3    H172397   2.664   3.907   3.244  0.4824  0.8008 -1.1647
16994TIP3    H272398   2.541   3.994   3.257 -0.2640 -0.5176  0.9162
16995TIP3   OH272399   5.870   3.589   0.258  0.8053 -0.3587 -0.5398
16995TIP3    H172400   5.915   3.674   0.249 -0.1095  0.0496 -1.3424
16995TIP3    H272401   5.777   3.610   0.252  0.6122 -1.5902 -2.3419
16996TIP3   OH272402   4.842   2.705   0.311  0.1681 -0.2776 -0.0340
16996TIP3    H172403   4.833   2.633   0.373 -0.5656  0.6121  0.9139
16996TIP3    H272404   4.936   2.721   0.306  0.2385 -0.4011  0.8131
16997TIP3   OH272405   2.135   0.264   5.808  0.3758 -0.1450  0.2916
16997TIP3    H172406   2.115   0.267   5.901 -1.9177 -0.0981 -0.1846
16997TIP3    H272407   2.108   0.349   5.774  0.6809 -0.3577 -0.5195
16998TIP3   OH272408   5.347   6.693  15.907  0.6539  0.2682  0.2523
16998TIP3    H172409   5.401   6.702  15.829  0.6228  0.8782  0.2974
16998TIP3    H272410   5.264   6.659  15.875  0.8999 -0.2243  0.1237
16999TIP3   OH272411   5.852   4.018  14.941 -0.1123 -0.2103  0.8780
16999TIP3    H172412   5.891   4.057  15.019 -1.8295  1.3623  0.9771
16999TIP3    H272413   5.767   3.985  14.970 -0.4866 -0.1938 -0.1745
17000TIP3   OH272414   4.264   5.046   5.169 -0.0943 -0.1931  0.3267
17000TIP3    H172415   4.359   5.060   5.170 -0.2507  0.8787  1.9067
17000TIP3    H272416   4.236   5.066   5.258 -2.0459  1.1389 -0.5609
17001TIP3   OH272417   1.173   3.972   4.339  0.1423  0.2945 -0.4277
17001TIP3    H172418   1.117   3.898   4.314  0.1886  0.3075 -0.5694
17001TIP3    H272419   1.120   4.022   4.402  1.3781 -1.7359  2.3456
17002TIP3   OH272420   2.369   5.121   5.036  0.3950  0.2075 -0.0917
17002TIP3    H172421   2.394   5.122   5.128 -1.9202 -1.4711  0.5912
17002TIP3    H272422   2.446   5.156   4.990  1.2931  1.7549  2.5147
17003TIP3   OH272423   1.077   0.823  14.746 -0.0819  0.3059 -0.1699
17003TIP3    H172424   1.000   0.766  14.752 -0.2432  0.3585 -1.6280
17003TIP3    H272425   1.124   0.808  14.828 -1.0596 -0.5768  0.2390
17004TIP3   OH272426   3.381   3.909   1.024  0.1061  0.1821  0.0367
17004TIP3    H172427   3.382   3.919   1.119 -1.2973 -0.9563  0.1900
17004TIP3    H272428   3.451   3.846   1.006  0.9130  1.0119  0.2253
17005TIP3   OH272429   1.938   6.442   4.856  0.4761 -0.5206  0.1584
17005TIP3    H172430   2.002   6.371   4.846 -0.1895 -1.1641  0.3900
17005TIP3    H272431   1.983   6.520   4.824  0.1917 -1.5631 -2.9418
17006TIP3   OH272432   1.121   5.823   4.307  0.1775  0.1219 -0.0631
17006TIP3    H172433   1.058   5.810   4.377 -0.2646 -2.3193 -0.8496
17006TIP3    H272434   1.078   5.884   4.247 -0.8786 -0.4477  0.0973
17007TIP3   OH272435   6.562   3.550  13.187  0.1805 -0.0274  0.1889
17007TIP3    H172436   6.580   3.457  13.202  1.0994  0.2913  1.1243
17007TIP3    H272437   6.648   3.588  13.167 -0.5049  0.2161 -2.4196
17008TIP3   OH272438   4.721   6.658  16.374  0.2764 -0.3715  0.1006
17008TIP3    H172439   4.724   6.697  16.286  1.2688  1.2058  0.8064
17008TIP3    H272440   4.799   6.603  16.378  1.0676  0.7419  0.4964
17009TIP3   OH272441   5.012   2.952  16.439 -0.4220  0.1253 -0.4621
17009TIP3    H172442   5.062   2.936  16.359 -0.2756  0.9411 -0.5270
17009TIP3    H272443   5.004   2.865  16.479  0.5106 -0.1058 -0.7609
17010TIP3   OH272444   5.897   2.513   5.254  0.2433  0.1928 -0.8088
17010TIP3    H172445   5.964   2.447   5.274  0.8859  1.2275  0.6248
17010TIP3    H272446   5.816   2.476   5.290  0.2473 -0.5693 -1.5565
17011TIP3   OH272447   4.000   0.509  15.648 -0.0896 -0.6623  0.2377
17011TIP3    H172448   3.974   0.570  15.579  3.6801  1.2061  0.3616
17011TIP3    H272449   4.010   0.425  15.603 -1.0025 -0.2285 -0.8022
17012TIP3   OH272450   3.637   3.867   4.508 -0.1120 -0.1613 -0.4070
17012TIP3    H172451   3.678   3.940   4.461 -0.3024  0.1071 -0.1549
17012TIP3    H272452   3.545   3.894   4.519 -0.3128 -0.6637 -0.7803
17013TIP3   OH272453   6.300   0.927   1.982  0.4243 -0.1558  0.0494
17013TIP3    H172454   6.283   0.845   2.029  0.0128 -0.5981 -0.8675
17013TIP3    H272455   6.241   0.925   1.907  0.1142  1.1738  0.2337
17014TIP3   OH272456   6.346   4.403  12.513  0.3819 -0.0804 -0.1427
17014TIP3    H172457   6.437   4.414  12.542  0.0145  1.6083  0.4050
17014TIP3    H272458   6.294   4.452  12.577 -0.8727 -0.5557 -0.7799
17015TIP3   OH272459   6.594   4.048  15.856 -0.0816  0.6344  0.2903
17015TIP3    H172460   6.587   4.009  15.769  0.6272  2.5144 -0.6475
17015TIP3    H272461   6.683   4.027  15.884 -0.9382 -1.6168  1.4064
17016TIP3   OH272462   5.607   4.606   6.332 -0.6124  0.1224 -0.4871
17016TIP3    H172463   5.620   4.512   6.316  0.1616  0.2527 -0.6434
17016TIP3    H272464   5.536   4.609   6.396  0.2700 -0.6342  0.5700
17017TIP3   OH272465   3.465   2.144   4.997 -0.1807  0.9553 -0.5369
17017TIP3    H172466   3.427   2.194   5.069 -0.0009 -0.5917  0.6594
17017TIP3    H272467   3.420   2.060   4.999  1.3580  0.0946 -0.8133
17018TIP3   OH272468   4.879   2.026   4.080  0.0902 -0.2258 -0.1546
17018TIP3    H172469   4.938   2.081   4.027  0.8122 -1.8625 -1.0801
17018TIP3    H272470   4.834   2.088   4.138 -0.0485  1.4926 -2.0537
17019TIP3   OH272471   6.085   1.968   4.735  0.3033  0.2263 -0.4739
17019TIP3    H172472   6.096   1.977   4.830  0.9502  1.5604 -0.6591
17019TIP3    H272473   6.103   2.056   4.701 -2.2771  0.3764 -1.6137
17020TIP3   OH272474   4.982   3.739  12.253 -0.2979 -0.5695 -0.0479
17020TIP3    H172475   5.026   3.673  12.199  2.8393  0.6342  0.9345
17020TIP3    H272476   4.982   3.701  12.342 -0.8450 -0.3394  0.0566
17021TIP3   OH272477   0.031   2.167   1.246  0.1880 -0.2155  0.3797
17021TIP3    H172478   0.013   2.160   1.340  0.8247 -2.7465  0.3378
17021TIP3    H272479   0.104   2.107   1.230 -1.0344 -1.1598 -2.0154
17022TIP3   OH272480   2.409   3.873   0.829 -0.0477 -0.4126  0.1872
17022TIP3    H172481   2.476   3.819   0.871  0.7061  1.0841  0.9307
17022TIP3    H272482   2.404   3.841   0.739  1.4987 -0.6729  0.1932
17023TIP3   OH272483   1.446   2.800   6.278 -0.5807  0.2589 -0.0752
17023TIP3    H172484   1.524   2.753   6.247 -0.0274 -0.2985  2.0875
17023TIP3    H272485   1.448   2.884   6.233  2.1840  0.9042  1.1699
17024TIP3   OH272486   3.439   2.987   4.610  0.3914  0.6605  0.0903
17024TIP3    H172487   3.408   3.076   4.588 -0.3936 -0.5367 -4.1734
17024TIP3    H272488   3.524   2.980   4.566  0.7353 -0.4919  0.9388
17025TIP3   OH272489   0.932   0.875  10.653  0.2264 -0.0917  0.2152
17025TIP3    H172490   0.857   0.841  10.605  1.1942 -0.5006 -1.0402
17025TIP3    H272491   0.992   0.907  10.585  0.5720  1.5305  1.2598
17026TIP3   OH272492   1.392   2.448  13.521 -0.2727  0.2170 -0.3417
17026TIP3    H172493   1.454   2.385  13.484 -1.5417  0.1917 -2.4779
17026TIP3    H272494   1.336   2.395  13.578 -0.7964 -0.4588 -1.4684
17027TIP3   OH272495   4.178   6.249   2.853  0.0039 -0.5272 -0.2745
17027TIP3    H172496   4.145   6.315   2.915  0.2824  0.0913 -0.7834
17027TIP3    H272497   4.265   6.280   2.828 -0.8478  0.2310 -2.4304
17028TIP3   OH272498   4.353   1.171  17.034 -0.0215  0.0466  0.4543
17028TIP3    H172499   4.298   1.225  16.978 -0.1582  0.7422  1.2511
17028TIP3    H272500   4.399   1.233  17.091  1.9198 -0.4928 -0.4853
17029TIP3   OH272501   6.721   3.905   3.110  0.5269 -0.3212 -0.0075
17029TIP3    H172502   6.692   3.994   3.128  2.4250  0.4485 -0.6380
17029TIP3    H272503   6.699   3.891   3.018 -1.4206 -1.1890  0.5575
17030TIP3   OH272504   1.342   2.758  12.990 -0.2218 -0.1157  0.6312
17030TIP3    H172505   1.337   2.829  13.055 -2.3745  1.1113 -0.8424
17030TIP3    H272506   1.257   2.714  12.995 -0.0550 -0.6049 -0.7005
17031TIP3   OH272507   5.353   1.613   1.971 -0.1827  0.0262 -0.0128
17031TIP3    H172508   5.383   1.592   1.883 -0.6492 -0.4281 -0.0678
17031TIP3    H272509   5.273   1.562   1.982 -0.2145  0.2016  0.6172
17032TIP3   OH272510   4.554   4.272   4.100 -0.1940 -0.8285  0.1962
17032TIP3    H172511   4.483   4.310   4.048 -0.9400 -1.6430  0.6026
17032TIP3    H272512   4.573   4.188   4.057  2.2206  0.4540 -1.3797
17033TIP3   OH272513   3.204   4.273   0.702 -0.4685  0.4354  0.1084
17033TIP3    H172514   3.118   4.232   0.690  0.3735 -1.1545 -0.7215
17033TIP3    H272515   3.254   4.209   0.752  1.1709 -0.0216 -2.0297
17034TIP3   OH272516   6.059   6.481   5.959 -0.3215 -0.2292 -0.2811
17034TIP3    H172517   6.103   6.500   5.876  2.3773 -1.1597  0.8558
17034TIP3    H272518   6.112   6.410   5.997 -1.2577  0.4688  2.4090
17035TIP3   OH272519   4.372   4.325   2.420  0.0745 -0.0662  0.1873
17035TIP3    H172520   4.413   4.400   2.378 -0.0574 -0.0262  0.1313
17035TIP3    H272521   4.441   4.288   2.475  0.5405 -0.6596 -0.7601
17036TIP3   OH272522   6.430   4.420  14.483  0.0080 -0.0233  0.3652
17036TIP3    H172523   6.405   4.456  14.397  1.5023 -0.4443 -0.2477
17036TIP3    H272524   6.458   4.330  14.465 -0.5134 -0.4141  1.4286
17037TIP3   OH272525   5.575   2.442   2.087 -0.4780 -0.0496  0.0413
17037TIP3    H172526   5.510   2.491   2.137 -1.2876 -1.9748  0.9346
17037TIP3    H272527   5.584   2.491   2.005 -0.7161  1.9617  1.1866
17038TIP3   OH272528   0.222   6.348   0.159 -0.1342 -0.2968  0.1034
17038TIP3    H172529   0.142   6.368   0.110  0.4923  1.3541 -0.2990
17038TIP3    H272530   0.251   6.433   0.192  1.4236 -0.8856  0.2880
17039TIP3   OH272531   6.661   5.019  13.290 -0.0291 -0.3463 -0.6084
17039TIP3    H172532   6.661   4.930  13.325 -1.0796 -0.3475 -0.6000
17039TIP3    H272533   6.686   5.074  13.364  2.5445 -0.8008 -1.0889
17040TIP3   OH272534   4.592   5.465   5.286  0.7207  0.0832  0.0624
17040TIP3    H172535   4.558   5.404   5.353  0.9573 -0.8783 -0.6833
17040TIP3    H272536   4.659   5.515   5.332  0.4560 -0.1481  0.7134
17041TIP3   OH272537   1.455   2.965   3.348 -0.1080  0.2407 -0.1879
17041TIP3    H172538   1.403   3.044   3.363 -1.0084 -0.3247 -0.2635
17041TIP3    H272539   1.545   2.992   3.361 -0.4918  1.0229  0.9146
17042TIP3   OH272540   1.291   0.344  12.978  0.3966 -0.4413  0.9118
17042TIP3    H172541   1.292   0.368  12.885  1.4264 -0.1648  0.9886
17042TIP3    H272542   1.203   0.368  13.008 -0.8101 -2.7814 -0.5778
17043TIP3   OH272543   3.874   2.746  11.241 -0.6699  0.0164 -0.3611
17043TIP3    H172544   3.927   2.817  11.276 -0.6038 -0.8113  1.2399
17043TIP3    H272545   3.857   2.772  11.150  0.6578  1.3149 -0.2568
17044TIP3   OH272546   0.933   1.144  13.711  0.1993 -0.0093  0.2269
17044TIP3    H172547   0.840   1.163  13.698  0.4257 -1.3141 -3.6711
17044TIP3    H272548   0.934   1.058  13.753 -0.3427  0.4569  1.2279
17045TIP3   OH272549   4.287   1.480  10.868 -0.0460 -0.1826  0.3051
17045TIP3    H172550   4.376   1.514  10.874  0.7245 -2.3406  1.8754
17045TIP3    H272551   4.276   1.428  10.948 -2.7628  0.1547  0.2057
17046TIP3   OH272552   5.620   2.211  16.805 -0.0541 -0.0414 -0.0230
17046TIP3    H172553   5.594   2.302  16.788  1.9056  0.5831  0.0987
17046TIP3    H272554   5.538   2.162  16.807 -1.0155  1.3364 -2.4681
17047TIP3   OH272555   3.798   3.725   5.026  0.2073 -0.3420  0.4570
17047TIP3    H172556   3.888   3.700   5.005  0.5339  0.3115  1.0648
17047TIP3    H272557   3.793   3.718   5.121 -0.0879  0.5719  0.5174
17048TIP3   OH272558   3.506   1.764  16.558 -0.0129  0.0068 -0.5771
17048TIP3    H172559   3.462   1.700  16.614  0.3369  0.0039 -0.3012
17048TIP3    H272560   3.436   1.805  16.508 -0.2208 -0.7385 -0.9029
17049TIP3   OH272561   0.664   2.877  11.174  0.1117  0.0580  0.2787
17049TIP3    H172562   0.656   2.783  11.158  0.5527 -0.2960  2.0666
17049TIP3    H272563   0.639   2.889  11.265  0.6970  1.5905  0.2624
17050TIP3   OH272564   6.703   4.823   2.372 -0.1982 -0.0849  0.2894
17050TIP3    H172565   6.741   4.736   2.386 -1.0370 -0.3044  1.2341
17050TIP3    H272566   6.726   4.845   2.282  1.0464 -0.7730  0.4377
17051TIP3   OH272567   6.413   2.491  13.686 -0.4116 -0.1802 -0.1227
17051TIP3    H172568   6.506   2.479  13.702 -0.3417 -1.3277 -1.3076
17051TIP3    H272569   6.388   2.566  13.741  1.4384  0.8548 -0.6568
17052TIP3   OH272570   1.750   3.685   0.802 -0.1308  0.2714  0.1422
17052TIP3    H172571   1.803   3.631   0.743 -0.7486 -0.7753  0.5172
17052TIP3    H272572   1.712   3.752   0.746  1.2762  0.7965 -0.1938
17053TIP3   OH272573   5.644   5.818   3.465  0.1473 -0.5070 -0.2122
17053TIP3    H172574   5.705   5.794   3.396 -1.6936 -0.3859 -1.9328
17053TIP3    H272575   5.685   5.893   3.508  0.5627  0.4824 -2.2651
17054TIP3   OH272576   5.947   0.068   2.403  0.1278  0.0899 -0.5841
17054TIP3    H172577   5.946   0.163   2.410 -1.4698  0.1887 -1.9343
17054TIP3    H272578   6.039   0.046   2.391  0.4579  1.5018 -0.7258
17055TIP3   OH272579   2.425   3.348  14.333  0.1566  0.2315 -0.0825
17055TIP3    H172580   2.469   3.355  14.249 -0.4899 -1.1840 -0.5659
17055TIP3    H272581   2.405   3.255  14.341  0.0289  0.3905  1.5442
17056TIP3   OH272582   1.283   5.042   1.603  0.7634 -0.1187  1.0454
17056TIP3    H172583   1.301   5.005   1.516 -2.0364  0.2429  0.2548
17056TIP3    H272584   1.256   5.132   1.585  2.6472  0.7646  2.5445
17057TIP3   OH272585   4.094   4.968  15.339  0.2941  0.4253  0.2375
17057TIP3    H172586   4.087   4.992  15.246 -0.3833  2.9642  0.9060
17057TIP3    H272587   4.188   4.967  15.356  0.6322 -3.4297 -1.2501
17058TIP3   OH272588   2.776   2.441  10.294 -0.0467  0.6814  0.2397
17058TIP3    H172589   2.780   2.347  10.280  0.1485  1.1350 -3.3523
17058TIP3    H272590   2.688   2.457  10.328  0.2693 -0.8656  1.8211
17059TIP3   OH272591   1.706   6.244  13.777  0.1303  0.1462 -0.2688
17059TIP3    H172592   1.736   6.153  13.778 -0.5954 -0.0996  0.8301
17059TIP3    H272593   1.739   6.279  13.695 -0.6046 -1.4696 -1.2954
17060TIP3   OH272594   1.774   5.440   2.429  0.0095 -0.3186  0.2066
17060TIP3    H172595   1.789   5.514   2.370 -0.7607 -1.4870 -1.4856
17060TIP3    H272596   1.707   5.388   2.385  0.9144 -2.2985  1.1273
17061TIP3   OH272597   3.795   1.732   3.491 -0.4258  0.4001  0.3486
17061TIP3    H172598   3.704   1.747   3.466  0.1544  0.9958 -1.5612
17061TIP3    H272599   3.844   1.745   3.409  1.2676 -0.8533  1.1407
17062TIP3   OH272600   5.636   0.258   2.352 -0.0684  0.1646  0.4198
17062TIP3    H172601   5.675   0.332   2.305 -1.1626 -0.2932 -1.2324
17062TIP3    H272602   5.545   0.284   2.365 -0.0840 -0.2621  1.1993
17063TIP3   OH272603   6.383   3.824   4.284 -0.0884  0.1373 -0.0473
17063TIP3    H172604   6.470   3.827   4.245  0.1389  0.4767  0.4821
17063TIP3    H272605   6.342   3.747   4.244 -0.6097  1.6248 -2.4583
17064TIP3   OH272606   6.547   3.402  15.897  0.3248 -0.5761  0.6369
17064TIP3    H172607   6.606   3.340  15.940  2.1173 -0.9911 -2.2933
17064TIP3    H272608   6.605   3.466  15.857 -1.3755  0.8543  0.4251
17065TIP3   OH272609   2.323   2.731   1.409  0.6365 -0.6695  0.2693
17065TIP3    H172610   2.301   2.811   1.362  0.8558 -1.4991 -1.2490
17065TIP3    H272611   2.379   2.760   1.482 -0.8741  0.7767  0.8814
17066TIP3   OH272612   5.747   6.214  14.219  0.4037  0.3639  0.5081
17066TIP3    H172613   5.763   6.152  14.148 -2.8000  0.3149 -0.2377
17066TIP3    H272614   5.804   6.289  14.198 -0.7769  0.5396 -2.3667
17067TIP3   OH272615   0.272   1.902   4.986 -0.0652  0.5533 -0.2327
17067TIP3    H172616   0.280   1.927   5.078 -1.7012  1.7077 -0.3907
17067TIP3    H272617   0.182   1.870   4.977  0.6854 -1.4261 -1.0052
17068TIP3   OH272618   4.584   4.772  13.464  0.1645  0.0202  0.0163
17068TIP3    H172619   4.582   4.807  13.553  0.3836  0.4410 -0.1432
17068TIP3    H272620   4.651   4.823  13.420 -1.2926  1.1410 -0.9427
17069TIP3   OH272621   5.288   1.812  12.714  0.2895  0.2122  0.0190
17069TIP3    H172622   5.270   1.776  12.801 -1.4585  0.7117 -0.1109
17069TIP3    H272623   5.216   1.874  12.699  1.4338  1.2915 -1.1331
17070TIP3   OH272624   3.519   1.298  12.368 -0.1184 -0.0292 -0.5640
17070TIP3    H172625   3.441   1.321  12.420 -0.1372  0.1261 -0.6592
17070TIP3    H272626   3.484   1.261  12.287 -0.0906 -0.0886 -0.5484
17071TIP3   OH272627   2.022   6.202  16.948  0.1662 -0.3018 -0.2318
17071TIP3    H172628   2.014   6.288  16.989  0.8074 -0.0148 -0.6919
17071TIP3    H272629   1.996   6.217  16.857  0.1132 -0.6315 -0.2707
17072TIP3   OH272630   6.352   1.991  11.733 -0.4326  0.7213  0.3892
17072TIP3    H172631   6.387   1.902  11.732 -0.3215  0.7673  0.1460
17072TIP3    H272632   6.429   2.047  11.749 -0.6582  0.7023  1.6068
17073TIP3   OH272633   5.552   1.253  11.792 -0.6424  0.3064 -0.3709
17073TIP3    H172634   5.641   1.225  11.774 -0.3854  0.3210  0.8072
17073TIP3    H272635   5.544   1.340  11.752 -0.5600 -0.2739 -1.6367
17074TIP3   OH272636   1.425   4.484  14.590  0.5148  0.4629  0.2581
17074TIP3    H172637   1.376   4.504  14.510  1.1496  1.2947  0.0674
17074TIP3    H272638   1.364   4.505  14.661  0.7448  1.9438  0.0334
17075TIP3   OH272639   2.245   5.162  14.043  0.1255 -0.5560 -0.1201
17075TIP3    H172640   2.182   5.234  14.053  0.3910 -0.3749  0.2412
17075TIP3    H272641   2.228   5.127  13.955  0.7862  0.7072 -0.7656
17076TIP3   OH272642   3.621   0.860   4.837 -0.0263  0.0792  0.2213
17076TIP3    H172643   3.604   0.953   4.851 -1.9025 -0.4111  1.4860
17076TIP3    H272644   3.539   0.826   4.802  0.3141 -1.2754  0.7059
17077TIP3   OH272645   6.678   1.704  16.974 -0.0048  0.1195 -0.1938
17077TIP3    H172646   6.667   1.757  16.895 -0.7145  0.1102 -0.1051
17077TIP3    H272647   6.764   1.664  16.964  0.2545  0.7647 -0.5786
17078TIP3   OH272648   4.955   0.422  11.189 -0.1946 -0.4626  0.3029
17078TIP3    H172649   4.972   0.394  11.099 -1.7793  1.3712 -0.5854
17078TIP3    H272650   4.908   0.348  11.229  0.4324 -1.2387 -0.3733
17079TIP3   OH272651   4.692   2.034  15.480  0.1702  0.1758  0.1592
17079TIP3    H172652   4.646   2.053  15.398 -0.0647 -0.7066  0.0794
17079TIP3    H272653   4.677   2.111  15.534 -0.1274  0.5369 -0.4325
17080TIP3   OH272654   0.063   1.452   3.601 -0.3702 -0.1124  0.0825
17080TIP3    H172655   0.081   1.360   3.621 -1.3078 -0.6050 -1.2821
17080TIP3    H272656   0.149   1.490   3.582 -0.2411 -1.3403 -1.9090
17081TIP3   OH272657   5.237   3.667  14.589  0.2582  0.1304 -0.2936
17081TIP3    H172658   5.245   3.761  14.608 -1.2020 -0.1309  1.7424
17081TIP3    H272659   5.321   3.630  14.615 -0.1918  0.4533  1.7418
17082TIP3   OH272660   1.660   4.658  16.972  0.8304 -0.1396  0.7856
17082TIP3    H172661   1.615   4.617  16.898  1.0976 -0.7140  0.9398
17082TIP3    H272662   1.594   4.664  17.040  0.5397  0.5373  0.4513
17083TIP3   OH272663   4.479   1.307  13.294 -0.5579  0.5335 -0.6546
17083TIP3    H172664   4.492   1.364  13.218 -1.0119 -0.8826 -1.8114
17083TIP3    H272665   4.557   1.251  13.296 -0.4676  0.6763  0.0308
17084TIP3   OH272666   6.093   0.169  13.244  0.1735  1.1482 -0.0930
17084TIP3    H172667   6.129   0.101  13.187  0.0828  0.0539  1.1354
17084TIP3    H272668   6.004   0.139  13.263  0.7197  0.6587  1.8923
17085TIP3   OH272669   1.426   4.967   4.510  0.2058 -0.1040 -0.3020
17085TIP3    H172670   1.344   4.999   4.472  1.1727 -0.4062 -2.7506
17085TIP3    H272671   1.492   4.982   4.442  2.2198  0.1829  1.6263
17086TIP3   OH272672   4.809   0.231  13.128 -0.0115  0.2644 -0.3750
17086TIP3    H172673   4.791   0.264  13.040 -2.4211 -0.9833 -0.4067
17086TIP3    H272674   4.722   0.210  13.163  0.9339  0.5987  2.2486
17087TIP3   OH272675   0.930   1.088   4.473  0.3304  0.0282 -0.5383
17087TIP3    H172676   0.926   1.176   4.437  3.3514  0.6718  0.5851
17087TIP3    H272677   0.985   1.039   4.412  1.0110 -0.3188  0.3508
17088TIP3   OH272678   0.826   2.041  14.619 -0.3815  0.4328 -0.5301
17088TIP3    H172679   0.761   1.982  14.656  0.4295 -0.1267  0.0322
17088TIP3    H272680   0.801   2.128  14.651  0.1514 -0.0125  1.1403
17089TIP3   OH272681   6.394   4.290   3.050  0.1938  0.2089 -0.2798
17089TIP3    H172682   6.387   4.332   2.964  0.6036  0.4417 -0.1964
17089TIP3    H272683   6.314   4.316   3.095 -0.4274 -0.6029 -0.8985
17090TIP3   OH272684   5.516   0.057   3.911  0.0939 -0.2668  0.5273
17090TIP3    H172685   5.570   0.031   3.836 -0.7831  0.1101 -0.2409
17090TIP3    H272686   5.535   0.150   3.923 -1.7134  0.3002 -0.8735
17091TIP3   OH272687   4.219   6.743   0.034 -0.4100 -0.4597  0.1795
17091TIP3    H172688   4.184   6.656   0.014  0.9222 -1.0184  0.1969
17091TIP3    H272689   4.142   6.800   0.038 -1.5387 -2.1011  2.6613
17092TIP3   OH272690   4.913   2.653  10.886  0.0049  0.0418 -0.7387
17092TIP3    H172691   4.834   2.605  10.861  0.4294 -1.4806  0.7638
17092TIP3    H272692   4.889   2.745  10.874 -2.3384 -0.3308  0.5507
17093TIP3   OH272693   5.119   1.987  16.212  0.4173 -0.0758 -0.5150
17093TIP3    H172694   5.060   1.961  16.142  0.2474 -0.1371 -0.3529
17093TIP3    H272695   5.192   2.031  16.168  0.6066 -0.6443 -0.7764
17094TIP3   OH272696   2.596   2.098   3.803 -0.2477 -0.5038 -0.3548
17094TIP3    H172697   2.650   2.021   3.819  0.4186  0.5280  2.7175
17094TIP3    H272698   2.616   2.157   3.876 -0.8083  2.5535 -2.5844
17095TIP3   OH272699   2.793   3.488  16.341 -0.3765 -0.0984  0.0106
17095TIP3    H172700   2.768   3.546  16.412  1.4929  1.9679 -0.9528
17095TIP3    H272701   2.842   3.417  16.383  0.1961  0.7942  0.8554
17096TIP3   OH272702   1.203   5.393   6.022  0.6393  0.8813  0.0967
17096TIP3    H172703   1.237   5.410   6.110 -0.1471  1.1006  0.3663
17096TIP3    H272704   1.259   5.324   5.986  0.3396  0.0870  1.1496
17097TIP3   OH272705   5.972   3.120   3.663  0.0088 -0.0845  0.2580
17097TIP3    H172706   5.930   3.159   3.740 -0.8005  0.4904 -0.4565
17097TIP3    H272707   6.001   3.195   3.611 -0.0389 -0.4558 -0.3096
17098TIP3   OH272708   0.092   3.659   0.381 -0.2608  0.2210  0.3113
17098TIP3    H172709   0.160   3.606   0.340  0.7545  0.7981  1.2264
17098TIP3    H272710   0.052   3.708   0.309  1.5451  1.2723 -0.0136
17099TIP3   OH272711   3.402   4.001   1.797  0.0626 -0.4066 -0.1678
17099TIP3    H172712   3.406   3.916   1.840 -0.8259 -0.4852 -0.2375
17099TIP3    H272713   3.419   3.983   1.705  0.2362 -0.4612 -0.1248
17100TIP3   OH272714   6.689   6.227  14.154  0.1446  0.1394 -0.2362
17100TIP3    H172715   6.635   6.306  14.148 -0.2874 -0.0078  1.4565
17100TIP3    H272716   6.632   6.157  14.124  0.0400  0.2615 -0.3279
17101TIP3   OH272717   6.725   4.483  13.394 -0.0677  0.4385  0.1171
17101TIP3    H172718   6.799   4.528  13.352 -0.0844  1.0506  0.7416
17101TIP3    H272719   6.759   4.456  13.479 -0.8123  1.4641  0.7496
17102TIP3   OH272720   1.267   3.775  13.295 -0.2142 -0.4857  0.3962
17102TIP3    H172721   1.331   3.810  13.357 -0.0114  0.2257 -0.2107
17102TIP3    H272722   1.182   3.794  13.335 -0.0936  0.3096  0.2713
17103TIP3   OH272723   6.034   4.837  13.460 -0.2836  0.4131 -0.0845
17103TIP3    H172724   5.967   4.877  13.516  0.3195  1.3339 -0.0154
17103TIP3    H272725   5.996   4.839  13.372 -1.4100 -1.4111  0.3212
17104TIP3   OH272726   1.981   2.132   3.953  0.1396  0.4005 -1.0836
17104TIP3    H172727   2.075   2.129   3.967 -0.0197  0.6783  0.1417
17104TIP3    H272728   1.943   2.118   4.040 -0.9330  1.5746 -1.3439
17105TIP3   OH272729   5.509   2.889   3.467  0.0982 -0.1871  0.3240
17105TIP3    H172730   5.585   2.933   3.428 -1.5264  1.2609 -1.3469
17105TIP3    H272731   5.451   2.873   3.392 -0.6482 -2.5045  1.3755
17106TIP3   OH272732   5.423   6.156   2.664  0.8819  0.0507 -0.6017
17106TIP3    H172733   5.421   6.076   2.715 -1.9445 -1.5384 -3.0439
17106TIP3    H272734   5.469   6.219   2.719  0.7141 -2.4557  2.5182
17107TIP3   OH272735   5.692   0.710  13.381  0.6803 -0.3559  0.3150
17107TIP3    H172736   5.762   0.678  13.323  0.0639  1.4641 -1.5097
17107TIP3    H272737   5.621   0.734  13.322  0.4038  2.5297  1.6902
17108TIP3   OH272738   0.689   1.246  12.440  0.7373  0.3502 -0.5382
17108TIP3    H172739   0.745   1.170  12.446 -1.4285 -1.3513 -1.1410
17108TIP3    H272740   0.668   1.268  12.531  1.7754  0.5665 -0.3448
17109TIP3   OH272741   5.938   2.427  13.167 -0.4481  0.1671 -0.6813
17109TIP3    H172742   6.015   2.441  13.222 -1.2240  2.2261 -0.0818
17109TIP3    H272743   5.921   2.333  13.173  1.6156 -0.2102 -0.3129
17110TIP3   OH272744   3.661   5.509  14.776 -0.0623 -0.1453  0.0664
17110TIP3    H172745   3.606   5.487  14.851 -0.0110  2.5360  0.9162
17110TIP3    H272746   3.620   5.463  14.703 -0.2128 -2.6761  1.6597
17111TIP3   OH272747   2.391   2.913   3.766 -0.2072 -0.0158 -0.2730
17111TIP3    H172748   2.362   2.823   3.780  2.1935 -1.3999 -3.6054
17111TIP3    H272749   2.477   2.918   3.809  0.0509  0.4387 -0.8310
17112TIP3   OH272750   6.460   6.052  13.314  0.0133 -0.3303 -0.3002
17112TIP3    H172751   6.365   6.047  13.329 -0.0759 -0.8076 -0.9946
17112TIP3    H272752   6.477   6.145  13.301 -0.2681 -0.1750  0.4447
17113TIP3   OH272753   1.477   2.347   0.047  0.2042 -0.6040 -0.3701
17113TIP3    H172754   1.559   2.370   0.002  0.8994 -0.4075  0.9580
17113TIP3    H272755   1.496   2.262   0.088 -0.0129 -0.2020  0.5577
17114TIP3   OH272756   5.774   4.721   2.405  0.3299  0.0856  0.1309
17114TIP3    H172757   5.831   4.782   2.357  1.7379 -1.5722 -0.3438
17114TIP3    H272758   5.773   4.755   2.495  1.7010  0.3971  0.0408
17115TIP3   OH272759   3.481   6.327  13.994 -0.1450  0.3172  0.4039
17115TIP3    H172760   3.409   6.275  14.030  0.4216 -1.1752 -0.5865
17115TIP3    H272761   3.442   6.373  13.919 -0.8384  1.9422  1.7333
17116TIP3   OH272762   1.857   4.745   4.185  0.4257  0.3557 -0.7252
17116TIP3    H172763   1.906   4.821   4.216  1.3699 -0.6197  0.1731
17116TIP3    H272764   1.889   4.731   4.096  1.3085  0.1123 -0.3706
17117TIP3   OH272765   6.109   2.005   1.817 -0.2120  0.1176  0.8313
17117TIP3    H172766   6.016   2.011   1.837 -0.0937  0.1854  1.3621
17117TIP3    H272767   6.116   2.034   1.726 -0.3489  2.6496  1.6058
17118TIP3   OH272768   1.330   5.151   4.251 -0.2440 -0.0524 -0.0384
17118TIP3    H172769   1.423   5.129   4.257 -0.1451  0.9121  2.7268
17118TIP3    H272770   1.290   5.075   4.208  1.6261 -0.9843 -0.1930
17119TIP3   OH272771   3.440   3.642   2.104 -0.2324 -0.4382  0.1317
17119TIP3    H172772   3.412   3.667   2.016  1.1139 -0.1981 -0.2347
17119TIP3    H272773   3.489   3.717   2.137 -1.0314 -0.3836  1.2318
17120TIP3   OH272774   4.146   2.174   3.871  0.1211 -0.1047  0.2603
17120TIP3    H172775   4.235   2.148   3.849  0.3019 -0.6648  1.6351
17120TIP3    H272776   4.157   2.252   3.926 -0.2952  0.7416 -0.8441
17121TIP3   OH272777   4.487   1.630  16.699  0.3097 -0.0021 -0.3053
17121TIP3    H172778   4.423   1.697  16.678  0.2356  0.4183  1.2349
17121TIP3    H272779   4.475   1.613  16.792  1.4527 -0.9615 -0.3187
17122TIP3   OH272780   2.211   6.258   2.404  0.9448 -0.4229 -0.3715
17122TIP3    H172781   2.119   6.231   2.406  1.2632 -1.5993 -1.3411
17122TIP3    H272782   2.208   6.353   2.387 -0.0887 -0.4048 -0.1135
17123TIP3   OH272783   5.077   2.961   0.862  0.2191  0.7371 -0.3364
17123TIP3    H172784   5.046   2.875   0.890 -2.1777  1.4875 -0.5647
17123TIP3    H272785   5.062   2.962   0.767  0.9510  1.1163 -0.4485
17124TIP3   OH272786   2.832   2.971   3.008  0.0271 -0.0247  0.1887
17124TIP3    H172787   2.747   2.932   2.989  1.0495 -2.2050 -0.0941
17124TIP3    H272788   2.894   2.898   3.002  1.9292  1.5230  0.3323
17125TIP3   OH272789   3.309   2.313   6.502  0.0014 -0.4731 -0.0937
17125TIP3    H172790   3.351   2.357   6.576  1.1931 -0.1212 -0.9712
17125TIP3    H272791   3.247   2.377   6.469 -1.0585 -0.8935  1.0339
17126TIP3   OH272792   1.125   6.624  12.848 -0.1131  0.1284  0.0760
17126TIP3    H172793   1.112   6.605  12.941 -1.4365 -0.9498 -0.3191
17126TIP3    H272794   1.053   6.580  12.804  1.4004 -0.7438 -1.6283
17127TIP3   OH272795   4.645   5.150   3.321  0.1835  0.5055 -0.1539
17127TIP3    H172796   4.568   5.100   3.348  0.6440  0.3412  0.8921
17127TIP3    H272797   4.609   5.234   3.292 -0.6036 -0.5013 -2.1430
17128TIP3   OH272798   3.922   0.913  15.276  0.0172  0.3753  0.0916
17128TIP3    H172799   3.949   0.982  15.215  0.1269  1.0373  0.8739
17128TIP3    H272800   3.883   0.960  15.349 -1.5213 -0.4964 -0.1600
17129TIP3   OH272801   2.521   1.417  15.662  0.3125 -0.3537 -0.0136
17129TIP3    H172802   2.443   1.402  15.716  0.7370 -0.8672  0.4549
17129TIP3    H272803   2.486   1.445  15.577 -0.3434  1.7857  0.9087
17130TIP3   OH272804   3.196   4.558   1.140  0.4385  0.6675  0.4512
17130TIP3    H172805   3.191   4.480   1.085 -0.3424  0.6030  0.6162
17130TIP3    H272806   3.114   4.605   1.123  0.3498  0.8216  1.3005
17131TIP3   OH272807   0.036   3.949  16.900 -0.6096  0.6836  0.5688
17131TIP3    H172808  -0.045   3.905  16.926 -0.5301 -0.3067 -0.8060
17131TIP3    H272809   0.063   3.905  16.819  0.0049  2.6060 -0.3160
17132TIP3   OH272810   5.444   0.375   4.566 -0.3613  0.0497 -0.2236
17132TIP3    H172811   5.526   0.396   4.611 -1.3251  1.4942  0.9012
17132TIP3    H272812   5.438   0.279   4.571 -0.5354  0.1946  2.8842
17133TIP3   OH272813   5.605   3.672  11.282  0.1450  0.9155  0.0530
17133TIP3    H172814   5.674   3.628  11.333  0.2899  0.5366 -0.4745
17133TIP3    H272815   5.526   3.663  11.336  0.6654  2.0319  1.0341
17134TIP3   OH272816   3.569   2.215  11.394  0.7378  0.0537 -0.4544
17134TIP3    H172817   3.483   2.174  11.393 -0.8055  3.0306  1.5235
17134TIP3    H272818   3.607   2.194  11.308 -0.9628 -3.2283 -0.4640
17135TIP3   OH272819   4.261   1.825   3.936 -0.2097  0.2616 -0.4071
17135TIP3    H172820   4.315   1.885   3.884 -0.6153  1.2659  0.3106
17135TIP3    H272821   4.293   1.738   3.913 -0.4751  0.6700 -2.4674
17136TIP3   OH272822   1.136   2.598   6.601  0.5361  0.3183 -0.6133
17136TIP3    H172823   1.121   2.544   6.524  2.5008  0.5650 -1.1834
17136TIP3    H272824   1.055   2.589   6.652 -0.3723 -0.6694 -2.1790
17137TIP3   OH272825   0.262   1.259   3.509  0.3808  0.0189 -0.4353
17137TIP3    H172826   0.332   1.203   3.475 -0.4792 -1.1141 -0.3557
17137TIP3    H272827   0.266   1.338   3.455  1.7936  0.0162 -0.3558
17138TIP3   OH272828   3.929   2.125  15.359 -0.2876  0.4541  0.2558
17138TIP3    H172829   4.008   2.099  15.406  0.6151  0.1425 -1.3945
17138TIP3    H272830   3.912   2.214  15.389  0.8595  0.6313  0.4266
17139TIP3   OH272831   1.372   6.063   5.919 -0.5670 -0.0948  0.7831
17139TIP3    H172832   1.448   6.013   5.951 -0.6535 -0.0537  1.0592
17139TIP3    H272833   1.300   6.001   5.924 -0.1547 -0.7873 -1.4957
17140TIP3   OH272834   2.463   4.316   3.600 -0.0190 -0.2311 -0.4512
17140TIP3    H172835   2.471   4.334   3.693  1.8461 -0.2801 -0.5713
17140TIP3    H272836   2.381   4.357   3.574 -0.5982 -0.3015  1.2238
17141TIP3   OH272837   4.209   4.637   5.973  0.8135  0.0363 -0.3105
17141TIP3    H172838   4.163   4.601   6.049  0.0478 -1.1341 -1.3041
17141TIP3    H272839   4.171   4.724   5.961  1.4377  0.4992  1.0695
17142TIP3   OH272840   3.220   2.221  12.336 -0.4140  0.0520 -0.1314
17142TIP3    H172841   3.260   2.141  12.301 -0.6024 -0.2518  0.3486
17142TIP3    H272842   3.280   2.248  12.406 -0.5061  0.1678 -0.0973
17143TIP3   OH272843   0.990   0.037   0.171 -0.6769  0.2494  0.0852
17143TIP3    H172844   0.972   0.130   0.175 -0.8138  0.1927  0.8956
17143TIP3    H272845   1.006   0.019   0.079  2.0768  1.5829  0.2572
17144TIP3   OH272846   1.862   3.934   2.566 -0.4853  0.0382 -0.2024
17144TIP3    H172847   1.864   3.856   2.620  0.8723 -0.7423 -1.3608
17144TIP3    H272848   1.829   3.904   2.481  1.8933  0.3250 -1.2529
17145TIP3   OH272849   2.059   2.585  12.894  0.1863  0.2664 -0.0095
17145TIP3    H172850   2.109   2.595  12.974 -1.3051  0.8913  0.8706
17145TIP3    H272851   1.976   2.544  12.921 -0.7417  1.3900 -1.0438
17146TIP3   OH272852   0.376   6.255  11.344  0.3558 -0.2117  0.0774
17146TIP3    H172853   0.368   6.334  11.398 -2.2118 -0.8819  0.7417
17146TIP3    H272854   0.425   6.194  11.398  0.0636  0.0386  0.6353
17147TIP3   OH272855   5.828   6.668   2.739  0.1272  0.5521  0.5688
17147TIP3    H172856   5.806   6.733   2.672  0.6344 -1.2914 -1.4407
17147TIP3    H272857   5.766   6.685   2.810 -0.6541  2.3326 -0.5042
17148TIP3   OH272858   2.338   1.477  16.198 -0.2874  0.6959 -0.6304
17148TIP3    H172859   2.368   1.389  16.176 -0.8860  0.0960  0.8519
17148TIP3    H272860   2.410   1.534  16.173  1.4562 -0.5486  1.3553
17149TIP3   OH272861   0.098   3.009  13.550  0.2609 -0.3951 -0.5453
17149TIP3    H172862   0.060   2.929  13.587  0.3089 -1.5597 -2.9696
17149TIP3    H272863   0.184   2.981  13.517  0.6099  0.8480 -0.7161
17150TIP3   OH272864   6.702   1.141  15.290  0.2537 -0.0506 -0.0186
17150TIP3    H172865   6.648   1.105  15.219  0.3889  0.4523 -0.3766
17150TIP3    H272866   6.709   1.235  15.270  1.6182 -0.1886 -0.1997
17151TIP3   OH272867   4.628   3.792  13.407  0.4668  0.1022 -0.1153
17151TIP3    H172868   4.684   3.824  13.336  3.5001 -1.9961  1.2499
17151TIP3    H272869   4.651   3.848  13.482  0.1038 -0.1976  0.2193
17152TIP3   OH272870   5.052   4.998   3.463  0.0710  0.1231 -0.1379
17152TIP3    H172871   5.117   4.928   3.460 -0.1437 -0.0857  0.1249
17152TIP3    H272872   4.999   4.979   3.541 -0.8982 -0.2349 -0.8674
17153TIP3   OH272873   6.338   6.473  15.143 -0.4064  0.1930 -0.2135
17153TIP3    H172874   6.294   6.513  15.218 -0.6137  2.3877 -1.4664
17153TIP3    H272875   6.431   6.490  15.159 -0.2637 -1.3109  0.6431
17154TIP3   OH272876   1.997   3.085  16.832 -0.3216 -0.0336 -0.2501
17154TIP3    H172877   2.052   3.094  16.754  0.5774 -0.3020  0.3429
17154TIP3    H272878   2.012   3.166  16.881  0.7301 -0.7316  0.6401
17155TIP3   OH272879   4.496   1.983   0.732 -0.2483  0.4360 -0.4137
17155TIP3    H172880   4.427   2.048   0.745  0.3580  0.8849  0.6629
17155TIP3    H272881   4.565   2.031   0.686  0.5789  0.8253  1.1966
17156TIP3   OH272882   2.895   6.007   5.092 -0.1473  0.3768 -0.2647
17156TIP3    H172883   2.869   6.048   5.174 -1.9373  0.3669 -0.8067
17156TIP3    H272884   2.977   6.050   5.069  0.3951  0.3427  1.5379
17157TIP3   OH272885   5.360   2.623   3.108 -0.2155  0.8328  0.8445
17157TIP3    H172886   5.269   2.648   3.124 -0.2097  1.3616  0.1362
17157TIP3    H272887   5.392   2.591   3.192 -1.1123  0.4693  1.0505
17158TIP3   OH272888   1.943   2.688   4.587  0.3348  0.0393 -0.2262
17158TIP3    H172889   1.908   2.775   4.607 -1.5041 -0.6989 -0.1402
17158TIP3    H272890   2.037   2.696   4.603  0.0239  1.6924  0.9298
17159TIP3   OH272891   5.805   3.632   4.059  0.6221  0.4309  0.0183
17159TIP3    H172892   5.847   3.552   4.093  1.1647 -0.0132 -1.6110
17159TIP3    H272893   5.711   3.614   4.063  0.7506 -0.4814 -0.7177
17160TIP3   OH272894   1.330   5.353  12.762  0.2870 -0.7866  0.3894
17160TIP3    H172895   1.250   5.324  12.719  0.4876  0.1032 -0.6006
17160TIP3    H272896   1.389   5.277  12.757  0.2139 -0.7821 -0.6720
17161TIP3   OH272897   0.107   3.115   0.222  0.1129  0.4295 -0.0875
17161TIP3    H172898   0.066   3.200   0.235 -0.5191 -0.0662  1.2403
17161TIP3    H272899   0.061   3.077   0.148  1.4115  1.8547 -1.6688
17162TIP3   OH272900   0.670   1.937   1.011 -0.8354 -0.1605  0.0754
17162TIP3    H172901   0.684   1.876   0.938 -0.1230  0.0147  0.0601
17162TIP3    H272902   0.661   1.880   1.088  1.7365 -0.2370  0.3570
17163TIP3   OH272903   2.352   2.946  15.602  0.1903  0.0441 -0.3862
17163TIP3    H172904   2.342   2.860  15.560  0.3924 -0.3459  0.3624
17163TIP3    H272905   2.262   2.980  15.606 -0.0527 -0.6558  0.4039
17164TIP3   OH272906   1.144   3.750   3.808 -0.8444  0.3335 -0.1740
17164TIP3    H172907   1.063   3.757   3.859 -1.3338  0.7307 -0.9926
17164TIP3    H272908   1.171   3.658   3.817 -1.9402 -0.0453 -0.7418
17165TIP3   OH272909   4.529   1.035  13.623  0.5066 -0.8201  0.4352
17165TIP3    H172910   4.558   1.033  13.532  0.2321  2.6405  0.1894
17165TIP3    H272911   4.599   0.992  13.671  1.4412 -1.2133 -1.2323
17166TIP3   OH272912   2.058   5.145   5.719  0.2678 -0.4359 -0.3240
17166TIP3    H172913   2.096   5.229   5.693 -0.7356  0.1887  0.2266
17166TIP3    H272914   2.050   5.151   5.814  0.7092 -1.3744 -0.2199
17167TIP3   OH272915   3.514   1.281   0.863  0.4532 -0.3502 -0.1759
17167TIP3    H172916   3.587   1.220   0.852  0.9101  0.6830 -3.5022
17167TIP3    H272917   3.471   1.281   0.778 -1.7868  1.1592  0.9225
17168TIP3   OH272918   0.524   5.707   1.230 -0.1606 -0.1882  0.0584
17168TIP3    H172919   0.614   5.678   1.244 -0.2834 -0.8376 -0.4537
17168TIP3    H272920   0.527   5.802   1.241  0.6325 -0.1803 -0.1857
17169TIP3   OH272921   1.841   1.006  17.107  0.1589 -0.0373  0.0739
17169TIP3    H172922   1.904   1.077  17.094 -0.4509  0.2754 -1.2650
17169TIP3    H272923   1.763   1.050  17.141  0.3033 -0.2825  0.7279
17170TIP3   OH272924   0.747   0.433   2.141 -0.4371 -0.0711 -0.4916
17170TIP3    H172925   0.778   0.471   2.059  1.7780  0.1265  0.4158
17170TIP3    H272926   0.811   0.365   2.162 -2.2180 -1.6542 -0.0809
17171TIP3   OH272927   0.935   1.281  15.160 -0.2100 -0.0964  0.2996
17171TIP3    H172928   0.887   1.334  15.224 -0.5410 -1.3160  1.0721
17171TIP3    H272929   1.024   1.316  15.162 -0.6780  1.1715 -0.0278
17172TIP3   OH272930   5.640   3.162  13.029 -0.2391  0.2750  0.2271
17172TIP3    H172931   5.656   3.068  13.025 -0.3597  0.2502  0.3348
17172TIP3    H272932   5.717   3.201  12.989 -0.4327  0.1077 -0.3129
17173TIP3   OH272933   2.334   1.964   4.772 -0.1625 -0.2402 -0.1893
17173TIP3    H172934   2.298   2.021   4.840 -1.8849 -1.0552 -0.4096
17173TIP3    H272935   2.259   1.940   4.718  0.5877 -2.4884 -0.2749
17174TIP3   OH272936   1.089   6.607  16.268 -0.1628  0.2007 -0.0034
17174TIP3    H172937   1.132   6.542  16.213 -1.2258 -0.8803  0.4279
17174TIP3    H272938   1.162   6.655  16.309  0.6457 -1.2669  0.3307
17175TIP3   OH272939   4.683   5.719   1.467  0.0009 -0.0529 -0.0347
17175TIP3    H172940   4.707   5.759   1.551 -2.8031  0.4973  0.5650
17175TIP3    H272941   4.612   5.658   1.489 -2.4124  1.8011 -2.2538
17176TIP3   OH272942   2.766   4.180   1.844  0.4205  0.2493  0.4415
17176TIP3    H172943   2.857   4.183   1.816  0.4595  2.8352  0.7251
17176TIP3    H272944   2.717   4.171   1.762  0.8479  1.1837  0.0634
17177TIP3   OH272945   1.171   5.240  16.689  0.1075 -0.0424  0.4208
17177TIP3    H172946   1.246   5.268  16.741  0.4959 -0.2339 -0.0278
17177TIP3    H272947   1.101   5.229  16.752  0.9718 -1.7169  1.1356
17178TIP3   OH272948   3.345   5.285  11.144  0.1564 -0.1313  0.5650
17178TIP3    H172949   3.346   5.266  11.050  1.6833 -0.0064  0.5492
17178TIP3    H272950   3.396   5.366  11.152 -0.0743 -0.0753  1.4906
17179TIP3   OH272951   5.430   2.431  13.413 -0.1936 -0.1500 -0.1054
17179TIP3    H172952   5.405   2.354  13.363 -2.5493  0.9285 -0.6497
17179TIP3    H272953   5.486   2.397  13.483  1.2787 -1.9342 -2.1063
17180TIP3   OH272954   1.491   3.117  15.242 -0.2049  0.0648 -0.8004
17180TIP3    H172955   1.523   3.134  15.154  0.0831 -1.3530 -0.9910
17180TIP3    H272956   1.531   3.033  15.266 -0.4806  0.3072  0.5771
17181TIP3   OH272957   0.855   3.152  13.571  0.0329  0.2443  0.1505
17181TIP3    H172958   0.783   3.169  13.632 -0.2745 -1.2550  0.2212
17181TIP3    H272959   0.848   3.059  13.551 -0.5031  0.9079 -3.0106
17182TIP3   OH272960   2.344   1.605   5.988  0.3184 -0.5852 -0.5255
17182TIP3    H172961   2.298   1.566   6.061 -0.0693 -0.6983 -0.8259
17182TIP3    H272962   2.435   1.575   5.997  0.6984  0.9216  0.9720
17183TIP3   OH272963   4.569   4.823  14.491  0.1083 -0.1355 -0.1487
17183TIP3    H172964   4.598   4.731  14.490  2.3466  0.5455 -2.7096
17183TIP3    H272965   4.528   4.836  14.406  0.5626  1.4878 -0.1244
17184TIP3   OH272966   3.803   3.129   5.193  0.3662  0.4267 -0.2309
17184TIP3    H172967   3.798   3.152   5.286 -0.3018  1.9288 -0.6287
17184TIP3    H272968   3.892   3.096   5.182  0.7584  1.1311  0.7406
17185TIP3   OH272969   3.399   0.563   3.009  0.0615  0.1332 -0.0771
17185TIP3    H172970   3.436   0.567   3.097 -1.3935 -0.9887  0.6042
17185TIP3    H272971   3.467   0.522   2.956  0.6037  0.0073  0.7057
17186TIP3   OH272972   5.347   4.102  17.158 -0.3647  0.3979 -0.2469
17186TIP3    H172973   5.439   4.116  17.136  0.1389 -1.6679  0.4607
17186TIP3    H272974   5.319   4.184  17.198  1.3470  0.7960  0.1624
17187TIP3   OH272975   4.222   1.698   3.370  0.2990  0.1563 -0.4241
17187TIP3    H172976   4.202   1.736   3.456 -0.3024 -0.8928 -0.0930
17187TIP3    H272977   4.310   1.661   3.381  0.0557 -0.3491 -0.1185
17188TIP3   OH272978   1.581   2.946   1.947  0.1418 -0.0936  0.1168
17188TIP3    H172979   1.551   2.915   2.032 -1.4027 -0.5200 -0.5673
17188TIP3    H272980   1.528   2.897   1.884  1.7512 -0.3012 -1.1074
17189TIP3   OH272981   2.217   4.572  15.272 -0.0541 -0.8397 -0.0316
17189TIP3    H172982   2.158   4.630  15.321  0.6429  0.5341 -0.7902
17189TIP3    H272983   2.289   4.554  15.332  0.5671  0.4635 -0.3794
17190TIP3   OH272984   6.189   2.582   4.081  0.1255  0.0674  0.3664
17190TIP3    H172985   6.119   2.642   4.107  0.2578 -0.4118  1.8601
17190TIP3    H272986   6.214   2.538   4.162 -0.7418 -2.8234 -0.8814
17191TIP3   OH272987   6.489   3.614   2.276  0.4290  0.1320  0.1607
17191TIP3    H172988   6.434   3.684   2.311 -1.1458 -1.2168  0.4157
17191TIP3    H272989   6.443   3.585   2.197  0.5774 -1.2502  0.5725
17192TIP3   OH272990   4.128   4.208  14.730 -0.3120  0.1130  0.1578
17192TIP3    H172991   4.154   4.258  14.807 -0.1609  0.5437 -0.1734
17192TIP3    H272992   4.144   4.267  14.657 -0.2074 -0.3891 -0.2264
17193TIP3   OH272993   3.313   3.961  14.023  0.7236  0.3010  0.3456
17193TIP3    H172994   3.278   3.929  13.939  1.5881  0.5312 -0.1058
17193TIP3    H272995   3.340   4.051  14.005  0.8875  0.3614  0.8847
17194TIP3   OH272996   0.879   4.640   6.341  0.3675 -0.0784  0.0158
17194TIP3    H172997   0.888   4.570   6.406  0.2644  0.0584  0.1796
17194TIP3    H272998   0.869   4.720   6.393  1.2015  0.1505 -0.1655
17195TIP3   OH272999   4.942   3.661   1.047  0.1745  0.0248  0.0942
17195TIP3    H173000   4.990   3.663   0.964 -0.6746  1.0878 -0.3834
17195TIP3    H273001   4.988   3.724   1.102  0.3016 -0.1467  0.1839
17196TIP3   OH273002   4.185   4.438  16.814  0.1307 -0.1630 -0.1063
17196TIP3    H173003   4.131   4.517  16.811 -0.0278 -0.2010  1.6694
17196TIP3    H273004   4.201   4.423  16.907 -1.3702 -3.2468 -0.2860
17197TIP3   OH273005   4.623   6.382  15.813  0.3537  0.2967  0.1700
17197TIP3    H173006   4.596   6.428  15.734 -0.3182  0.3203  0.4119
17197TIP3    H273007   4.647   6.294  15.783 -3.5906 -0.9654  0.4284
17198TIP3   OH273008   0.255   1.023   0.559 -0.0236  0.3734 -0.0427
17198TIP3    H173009   0.162   1.035   0.580  0.5972  1.2984  2.3410
17198TIP3    H273010   0.280   1.104   0.515 -0.1691  0.4410 -0.0022
17199TIP3   OH273011   5.332   3.193   5.438  0.2820 -0.9284 -0.0784
17199TIP3    H173012   5.342   3.271   5.383  1.0962 -1.1464 -0.2534
17199TIP3    H273013   5.240   3.169   5.430  0.3596 -0.8680 -1.2297
17200TIP3   OH273014   5.875   1.227  15.956  0.1513  0.0922  0.4754
17200TIP3    H173015   5.803   1.291  15.961 -0.6679 -0.6256 -1.5701
17200TIP3    H273016   5.832   1.142  15.960  0.8572 -0.3503 -1.0884
17201TIP3   OH273017   2.881   0.242   3.587 -0.2336  0.4724  0.6809
17201TIP3    H173018   2.818   0.226   3.657 -1.4411  0.4013 -0.3946
17201TIP3    H273019   2.944   0.303   3.624 -3.0109  3.4840  0.6313
17202TIP3   OH273020   2.368   4.253   5.787 -0.5362 -0.4106  0.1634
17202TIP3    H173021   2.282   4.286   5.760 -0.1979 -0.6266 -1.2373
17202TIP3    H273022   2.387   4.299   5.868 -2.2745 -0.8544  0.8456
17203TIP3   OH273023   3.896   2.136   6.418 -0.2994 -0.1679  0.5651
17203TIP3    H173024   3.987   2.132   6.389 -0.3161  0.5491  0.3944
17203TIP3    H273025   3.899   2.110   6.511  0.4579  2.3507  1.2904
17204TIP3   OH273026   1.722   4.551   2.699  0.3814  0.0226  0.0153
17204TIP3    H173027   1.648   4.498   2.668 -0.5361  1.6422 -0.6254
17204TIP3    H273028   1.708   4.559   2.793  0.8151 -1.3236  0.1925
17205TIP3   OH273029   1.966   3.771   4.145  0.2700  0.0266  0.0015
17205TIP3    H173030   1.909   3.831   4.097  0.7913 -0.3688 -1.1302
17205TIP3    H273031   1.986   3.816   4.227 -0.4472  0.8046 -0.2504
17206TIP3   OH273032   4.462   1.645   0.650 -0.1916  0.5398  0.1147
17206TIP3    H173033   4.414   1.567   0.621 -0.6108  0.8161  0.0690
17206TIP3    H273034   4.444   1.710   0.583  1.5912  0.1368 -0.7689
17207TIP3   OH273035   5.669   2.086  16.560  0.1203  0.1256  0.5900
17207TIP3    H173036   5.579   2.089  16.527 -0.2650 -1.7878  1.3698
17207TIP3    H273037   5.664   2.125  16.648  0.0407 -0.0796  0.6755
17208TIP3   OH273038   4.384   5.907  14.914 -0.2646  0.3170 -0.4141
17208TIP3    H173039   4.456   5.881  14.972 -1.6726 -1.2355  0.7220
17208TIP3    H273040   4.332   5.827  14.904 -1.2642  1.1471 -2.0489
17209TIP3   OH273041   1.035   1.447   4.088 -0.2646  0.3974 -0.0756
17209TIP3    H173042   0.961   1.385   4.086  0.3239 -0.3026 -1.0164
17209TIP3    H273043   1.112   1.392   4.075  0.7188  0.7468  3.8710
17210TIP3   OH273044   0.924   5.259   2.663 -0.5354  0.1135 -0.0278
17210TIP3    H173045   0.945   5.168   2.684  0.3988  0.5921  1.1436
17210TIP3    H273046   0.964   5.273   2.577 -0.5875 -0.5385 -0.1644
17211TIP3   OH273047   6.720   3.402   3.503 -0.0238 -0.3266 -0.5270
17211TIP3    H173048   6.799   3.349   3.518  0.1220 -0.0439 -0.2846
17211TIP3    H273049   6.740   3.453   3.425 -1.0840 -2.3752 -2.2000
17212TIP3   OH273050   0.461   5.616   3.863 -0.1325  0.5935  0.1327
17212TIP3    H173051   0.458   5.605   3.768  0.8454 -0.4029  0.2082
17212TIP3    H273052   0.552   5.600   3.887 -0.3858  0.7389  1.2574
17213TIP3   OH273053   5.521   2.339  12.557  0.2036 -0.7740 -0.8285
17213TIP3    H173054   5.538   2.313  12.467 -0.7108  3.1174 -2.2221
17213TIP3    H273055   5.599   2.388  12.583  0.2016 -1.3522  0.2866
17214TIP3   OH273056   0.477   3.516   0.027 -0.5497  0.2011 -0.0085
17214TIP3    H173057   0.530   3.489  -0.048  0.3878  2.5669 -0.2294
17214TIP3    H273058   0.531   3.495   0.103 -1.1509 -1.4205 -0.0108
17215TIP3   OH273059   2.430   5.227  16.861  0.4695 -0.5941  0.3390
17215TIP3    H173060   2.417   5.142  16.902  2.4913 -1.0909  0.0119
17215TIP3    H273061   2.460   5.207  16.773  1.3690  0.4381  0.3951
17216TIP3   OH273062   4.136   4.245  13.878  0.4590  0.0128 -0.1419
17216TIP3    H173063   4.061   4.232  13.936  0.9608  0.2639  0.5707
17216TIP3    H273064   4.179   4.160  13.874  0.0585 -0.1691 -0.6658
17217TIP3   OH273065   0.686   0.315  12.402  0.3370  0.0041  0.4559
17217TIP3    H173066   0.781   0.317  12.396  0.4388 -0.4525  1.8398
17217TIP3    H273067   0.667   0.295  12.494 -1.0601 -1.5297 -0.1315
17218TIP3   OH273068   5.235   1.900  11.695 -0.0141  0.1720  0.2971
17218TIP3    H173069   5.152   1.933  11.660  0.0646  0.9163  0.8161
17218TIP3    H273070   5.302   1.938  11.639  0.0915  1.1013  1.0484
17219TIP3   OH273071   4.298   4.120   3.882 -0.2213 -0.5786 -0.1316
17219TIP3    H173072   4.217   4.122   3.832 -0.7515  0.7479  0.7446
17219TIP3    H273073   4.325   4.212   3.887  1.3700 -1.0126 -0.4834
17220TIP3   OH273074   0.090   5.858  13.707 -0.1809  0.6930 -0.6669
17220TIP3    H173075   0.015   5.884  13.654 -1.2565 -0.3508  0.3071
17220TIP3    H273076   0.146   5.808  13.647 -0.0143  1.9112 -1.5287
17221TIP3   OH273077   4.481   1.018   0.582 -0.0053  0.1701  0.0340
17221TIP3    H173078   4.563   0.975   0.608  1.5376  2.5718 -0.7358
17221TIP3    H273079   4.448   1.059   0.662  0.2333  0.2995  0.0657
17222TIP3   OH273080   2.642   5.356  15.014 -0.0673 -0.2291  0.1443
17222TIP3    H173081   2.720   5.412  15.020 -1.3627  1.5471  0.6336
17222TIP3    H273082   2.611   5.366  14.924  1.1404 -2.1832 -0.5330
17223TIP3   OH273083   0.071   0.680  12.257  0.1620 -0.1755 -0.3501
17223TIP3    H173084  -0.016   0.644  12.237  0.2772 -0.4911 -0.2817
17223TIP3    H273085   0.054   0.749  12.321 -0.0888  0.0808 -0.6896
17224TIP3   OH273086   2.933   4.534  11.402  0.0177 -0.4336 -0.5042
17224TIP3    H173087   2.923   4.628  11.384 -0.3607 -0.3938 -0.1070
17224TIP3    H273088   3.026   4.523  11.422 -0.3135  0.2483  1.5941
17225TIP3   OH273089   4.987   1.731   5.281 -0.1081  0.2721 -0.2652
17225TIP3    H173090   4.988   1.826   5.288 -0.8025  0.1556  1.4471
17225TIP3    H273091   5.025   1.713   5.194  0.2539  2.0806 -0.4904
17226TIP3   OH273092   1.855   3.762   1.046  0.0685  0.1185  0.1830
17226TIP3    H173093   1.802   3.700   1.097  1.5270 -1.8885 -0.6710
17226TIP3    H273094   1.816   3.761   0.959 -1.6863  2.6576  0.8582
17227TIP3   OH273095   2.923   1.351  15.714  0.0375  0.1336 -0.1320
17227TIP3    H173096   2.868   1.272  15.707  0.0180  0.2653 -1.6731
17227TIP3    H273097   2.988   1.341  15.644 -1.2834  2.5062 -1.7542
17228TIP3   OH273098   2.477   5.323   2.126 -0.5733 -0.2586 -0.0627
17228TIP3    H173099   2.473   5.417   2.146 -1.6139 -0.0194 -1.3405
17228TIP3    H273100   2.487   5.281   2.211  0.4574  1.0424  0.4737
17229TIP3   OH273101   1.498   1.544  17.070  0.4900 -0.1928 -0.4931
17229TIP3    H173102   1.446   1.554  16.991 -2.4555  0.6226  1.4992
17229TIP3    H273103   1.551   1.465  17.054  0.0591  0.0500 -3.2938
17230TIP3   OH273104   2.303   3.659   4.483 -0.2602  0.2958  0.3010
17230TIP3    H173105   2.273   3.680   4.572  0.8037 -0.0473  0.7446
17230TIP3    H273106   2.225   3.671   4.428 -1.1694 -0.4313  1.4195
17231TIP3   OH273107   6.428   1.881   6.518  0.2091  0.7682 -0.0493
17231TIP3    H173108   6.354   1.874   6.578 -0.9762  1.6349 -1.3927
17231TIP3    H273109   6.470   1.795   6.522 -1.3894 -0.0182  0.0487
17232TIP3   OH273110   1.233   4.362  10.874 -0.0332  0.2652  0.2361
17232TIP3    H173111   1.211   4.391  10.786  0.1543  1.0189  0.4337
17232TIP3    H273112   1.193   4.276  10.882  0.9986 -0.3400 -1.0141
17233TIP3   OH273113   1.935   4.800  15.633  0.0804  0.0255  0.3181
17233TIP3    H173114   1.891   4.868  15.683  1.3084 -0.2365  1.8162
17233TIP3    H273115   1.995   4.759  15.696  0.5264 -1.3676 -0.9663
17234TIP3   OH273116   2.519   6.763  15.095  0.6234 -0.4495  0.3604
17234TIP3    H173117   2.514   6.847  15.049 -0.9244 -0.8644 -0.2665
17234TIP3    H273118   2.580   6.710  15.044 -0.5977 -0.6838 -0.8728
17235TIP3   OH273119   6.068   0.209   4.051 -0.1438 -1.1089 -0.0886
17235TIP3    H173120   5.988   0.190   4.002 -0.3294  0.8719 -0.5851
17235TIP3    H273121   6.130   0.142   4.023 -1.4080 -2.2152 -0.2511
17236TIP3   OH273122   6.625   2.273  13.302 -0.0101 -0.0881  0.0644
17236TIP3    H173123   6.627   2.200  13.365  0.6903 -1.4238 -1.4551
17236TIP3    H273124   6.532   2.285  13.283 -0.2431  0.4447  1.4680
17237TIP3   OH273125   2.316   1.453   2.659  0.6099 -0.2229  0.4215
17237TIP3    H173126   2.266   1.383   2.619 -1.2807  2.0678 -1.4162
17237TIP3    H273127   2.400   1.451   2.614  0.5131 -1.1784  0.2735
17238TIP3   OH273128   5.904   6.023  13.256 -0.1782 -0.1617 -0.2941
17238TIP3    H173129   5.877   6.020  13.165 -3.6995  0.7092  0.6290
17238TIP3    H273130   5.927   6.115  13.272 -1.0286 -0.0035  0.0566
17239TIP3   OH273131   6.071   3.535   1.388  0.2309  1.0235  0.0535
17239TIP3    H173132   6.124   3.600   1.435 -0.8555  1.2548  0.9675
17239TIP3    H273133   5.981   3.557   1.410 -0.2060  0.0334 -0.7241
17240TIP3   OH273134   2.096   5.487   4.899  0.7171  0.8444  0.3747
17240TIP3    H173135   2.090   5.392   4.911 -0.1342  0.8787  0.2633
17240TIP3    H273136   2.187   5.508   4.918  1.2245 -0.1772 -0.8356
17241TIP3   OH273137   3.478   4.160   5.016 -0.0233  0.3665 -0.3797
17241TIP3    H173138   3.426   4.165   5.097 -2.0843  1.8373 -1.7495
17241TIP3    H273139   3.560   4.119   5.043 -1.7046 -1.6331  1.9482
17242TIP3   OH273140   1.752   3.160   5.070  0.1736 -0.3372 -0.7413
17242TIP3    H173141   1.732   3.096   5.001  0.2111  1.6511 -2.6438
17242TIP3    H273142   1.831   3.204   5.039  0.5878  0.1248  0.9370
17243TIP3   OH273143   4.269   1.365   4.885  0.0947 -0.0721  0.8658
17243TIP3    H173144   4.282   1.303   4.957 -2.8331 -1.0170  0.6452
17243TIP3    H273145   4.212   1.432   4.920  1.0825  1.0960  0.2880
17244TIP3   OH273146   0.152   2.483  14.771 -0.0760  0.1058  0.5107
17244TIP3    H173147   0.101   2.563  14.783 -2.3221 -0.9064 -1.6307
17244TIP3    H273148   0.091   2.412  14.792  1.6819 -1.0848  1.7627
17245TIP3   OH273149   6.432   2.504   1.360  0.2639  0.3493  0.0035
17245TIP3    H173150   6.471   2.417   1.373  0.7629  0.4748 -0.6555
17245TIP3    H273151   6.501   2.565   1.387  0.7288  0.5859 -1.6873
17246TIP3   OH273152   1.087   5.297  11.689 -0.1034 -0.8300  0.2391
17246TIP3    H173153   1.042   5.360  11.632  1.1798 -0.1442 -0.0608
17246TIP3    H273154   1.063   5.211  11.654  0.6073 -0.4230 -1.3432
17247TIP3   OH273155   4.325   3.708   5.522 -0.7504  0.2018  0.0578
17247TIP3    H173156   4.295   3.799   5.522  1.2044  0.8616 -0.4448
17247TIP3    H273157   4.372   3.698   5.440  0.6324 -0.7353  0.9526
17248TIP3   OH273158   1.002   4.192  16.098 -0.2155  0.4939  0.3438
17248TIP3    H173159   0.948   4.147  16.033 -0.8264  2.1385 -0.3125
17248TIP3    H273160   0.945   4.200  16.175  0.9205 -2.5802  1.5884
17249TIP3   OH273161   2.390   1.631  16.697  0.6233  0.8460  0.0892
17249TIP3    H173162   2.411   1.538  16.692 -2.5853  0.1493 -1.6997
17249TIP3    H273163   2.428   1.668  16.617  0.1056  0.6601 -0.2468
17250TIP3   OH273164   3.331   3.257   4.868  0.2330 -0.2846 -0.3726
17250TIP3    H173165   3.245   3.294   4.848 -0.6146 -1.6909  0.5791
17250TIP3    H273166   3.390   3.299   4.806 -0.9392  1.5759 -0.2697
17251TIP3   OH273167   2.011   1.163  12.485  0.3239 -0.3289  1.0723
17251TIP3    H173168   1.976   1.214  12.559 -0.5143  1.2241 -0.3592
17251TIP3    H273169   1.935   1.149  12.428  1.6201  1.5459 -1.2076
17252TIP3   OH273170   4.646   0.037  15.047 -0.2273  0.1546 -0.2815
17252TIP3    H173171   4.667   0.111  15.105  1.7645 -2.4946  2.5542
17252TIP3    H273172   4.731   0.008  15.014 -1.0939 -0.1539 -2.2954
17253TIP3   OH273173   0.914   6.386  12.917 -0.6277  0.1174 -0.5925
17253TIP3    H173174   0.833   6.342  12.890 -1.0342  0.4143  0.1337
17253TIP3    H273175   0.975   6.314  12.936 -1.6646 -0.1851  1.7265
17254TIP3   OH273176   3.216   0.963  11.405  0.0744 -0.4500 -0.3063
17254TIP3    H173177   3.279   1.034  11.402 -0.3121 -0.1494 -1.8377
17254TIP3    H273178   3.131   1.006  11.412 -0.2724 -0.6652 -2.6234
17255TIP3   OH273179   1.069   0.945  12.013  0.3410  0.3624  0.5552
17255TIP3    H173180   1.089   0.990  11.930  1.8797 -1.1072  0.1052
17255TIP3    H273181   1.060   1.016  12.077 -2.4728  1.6410 -1.1515
17256TIP3   OH273182   1.405   1.922  14.414  0.3863 -0.0656 -0.3622
17256TIP3    H173183   1.416   1.985  14.484 -1.2341  1.1306 -1.1479
17256TIP3    H273184   1.471   1.946  14.349 -1.0119  1.5946 -1.1933
17257TIP3   OH273185   1.779   6.578   3.304 -0.0701  0.1480 -0.2404
17257TIP3    H173186   1.767   6.528   3.223 -0.6233  2.2712 -1.4868
17257TIP3    H273187   1.709   6.642   3.304  0.7886  1.1295  1.2129
17258TIP3   OH273188   0.841   0.684  16.664 -0.3507 -0.3170 -0.4162
17258TIP3    H173189   0.870   0.609  16.715  0.4773  0.3894  0.1842
17258TIP3    H273190   0.913   0.700  16.603 -0.5452 -0.0541 -0.5767
17259TIP3   OH273191   5.211   6.359   5.047  0.5362 -0.5109  0.2640
17259TIP3    H173192   5.261   6.400   5.118  1.6699  0.1821 -0.9150
17259TIP3    H273193   5.183   6.433   4.992 -2.0300 -0.8579  1.0289
17260TIP3   OH273194   1.741   5.704  13.137 -0.0537  0.2913 -0.0393
17260TIP3    H173195   1.810   5.754  13.095 -0.5645  0.5847 -0.5325
17260TIP3    H273196   1.689   5.669  13.064 -0.3324 -0.0598  0.3236
17261TIP3   OH273197   2.032   0.308   3.779 -0.1527 -0.1760 -0.0945
17261TIP3    H173198   2.007   0.387   3.731 -0.0726  0.4489  0.8840
17261TIP3    H273199   2.111   0.278   3.735 -0.8416 -0.3867 -1.2156
17262TIP3   OH273200   5.541   4.424   5.610  0.4383 -0.7345  0.0755
17262TIP3    H173201   5.500   4.405   5.694 -0.8784  0.1900 -0.3404
17262TIP3    H273202   5.471   4.413   5.546  1.6856 -2.4503 -1.0321
17263TIP3   OH273203   1.660   0.984   2.224  1.0532 -0.8073  0.3112
17263TIP3    H173204   1.678   1.024   2.139  0.7148 -1.0752  0.1121
17263TIP3    H273205   1.603   0.910   2.204  0.2081 -0.3235  0.8711
17264TIP3   OH273206   2.913   3.801   4.075 -0.0818  0.5387 -0.0295
17264TIP3    H173207   2.875   3.888   4.062 -3.5704 -0.8367  0.3346
17264TIP3    H273208   2.886   3.776   4.164  3.2030  0.1494  0.9302
17265TIP3   OH273209   4.095   1.889  16.927  0.8366 -0.1078  0.1069
17265TIP3    H173210   4.162   1.935  16.977  0.8095  0.4830 -0.4027
17265TIP3    H273211   4.076   1.946  16.853 -0.1252 -0.3296  0.1722
17266TIP3   OH273212   0.022   0.593  14.110 -0.1872 -0.2486 -0.5895
17266TIP3    H173213   0.059   0.678  14.134 -0.7666 -0.0673 -0.3177
17266TIP3    H273214   0.041   0.536  14.185 -1.0731  0.0359 -0.1392
17267TIP3   OH273215   1.420   1.856  13.630  0.2089 -0.0870  0.0144
17267TIP3    H173216   1.390   1.927  13.686  1.0839  0.7626 -0.5794
17267TIP3    H273217   1.514   1.870  13.621  0.5016 -1.7188  0.4449
17268TIP3   OH273218   1.845   5.589  12.611 -0.5905 -0.5414  0.0496
17268TIP3    H173219   1.780   5.652  12.578 -1.6499 -1.1192  0.9660
17268TIP3    H273220   1.796   5.537  12.676  1.1475 -0.0610  1.7892
17269TIP3   OH273221   4.686   6.131   3.285  0.9292 -0.2777 -0.3142
17269TIP3    H173222   4.684   6.072   3.209  1.6383  0.3634 -0.8350
17269TIP3    H273223   4.769   6.112   3.329  1.9343  1.4640 -1.4042
17270TIP3   OH273224   3.252   2.573   6.071 -0.0397 -0.0257 -0.3962
17270TIP3    H173225   3.302   2.650   6.043  0.4765 -0.6276 -1.1750
17270TIP3    H273226   3.188   2.607   6.134 -0.6875  1.2427 -1.7068
17271TIP3   OH273227   6.418   1.154  12.995 -0.2999 -0.0841 -0.0431
17271TIP3    H173228   6.326   1.156  13.023 -0.3625 -0.0535 -0.2511
17271TIP3    H273229   6.424   1.079  12.936 -0.0191 -0.5353  0.5594
17272TIP3   OH273230   5.893   4.412   6.133 -0.3393 -0.4344  0.0753
17272TIP3    H173231   5.963   4.354   6.164 -1.7173 -1.8483  0.6171
17272TIP3    H273232   5.822   4.399   6.196 -0.9804  1.2051 -0.2967
17273TIP3   OH273233   5.170   6.223  11.023  0.4766  0.2396  0.0203
17273TIP3    H173234   5.223   6.160  10.974 -0.2067 -0.6559  0.4178
17273TIP3    H273235   5.098   6.246  10.965 -0.3055 -0.7840  0.5557
17274TIP3   OH273236   3.326   2.862  14.219  0.0829 -1.1368  0.4338
17274TIP3    H173237   3.292   2.773  14.212  0.4457 -1.5084  3.0731
17274TIP3    H273238   3.251   2.914  14.249  0.1808 -0.7627  0.0375
17275TIP3   OH273239   1.303   2.225   3.944 -0.3763  0.0669 -0.2412
17275TIP3    H173240   1.233   2.279   3.906  0.0222  0.7268 -0.0409
17275TIP3    H273241   1.267   2.196   4.028 -0.9818 -0.8141 -0.7917
17276TIP3   OH273242   5.615   0.268  14.762  0.5113  0.3847 -0.3838
17276TIP3    H173243   5.664   0.192  14.794  1.7019  0.3848 -2.1592
17276TIP3    H273244   5.636   0.338  14.824  0.1091 -0.4907  0.7561
17277TIP3   OH273245   2.284   5.947   1.911  0.6768 -0.5884  0.2436
17277TIP3    H173246   2.275   5.878   1.977  0.1239 -1.4363 -0.7162
17277TIP3    H273247   2.294   6.027   1.963 -1.9966 -0.9314  1.3945
17278TIP3   OH273248   3.511   5.908   3.313 -0.1079  0.1401 -0.1819
17278TIP3    H173249   3.552   5.986   3.275 -0.2494 -0.1567 -0.9562
17278TIP3    H273250   3.442   5.884   3.250 -0.8613  0.0990  0.6585
17279TIP3   OH273251   4.627   0.128   2.479  0.1924  0.1010 -0.4314
17279TIP3    H173252   4.552   0.152   2.534 -0.1818 -0.6452 -0.5971
17279TIP3    H273253   4.600   0.152   2.390 -0.2708 -1.0805 -0.6267
17280TIP3   OH273254   2.650   4.345   5.705 -0.5565  0.4548 -0.0137
17280TIP3    H173255   2.642   4.399   5.784 -0.0018 -0.1944  0.5047
17280TIP3    H273256   2.560   4.323   5.682 -0.7108  0.3585  0.6490
17281TIP3   OH273257   3.088   6.284  13.246  0.2579 -0.2200 -0.1710
17281TIP3    H173258   3.155   6.351  13.235 -0.4023  0.4091 -0.3344
17281TIP3    H273259   3.008   6.332  13.265 -0.4935 -0.8806 -1.5805
17282TIP3   OH273260   6.343   4.641   1.382  0.1033 -0.4444 -0.2327
17282TIP3    H173261   6.263   4.679   1.344 -0.3810 -1.1025  0.1257
17282TIP3    H273262   6.402   4.633   1.307 -0.7700 -1.5238 -0.8241
17283TIP3   OH273263   6.003   3.416   4.117 -0.0993 -0.1452 -0.3773
17283TIP3    H173264   6.059   3.339   4.123  1.5901  1.0179 -0.9198
17283TIP3    H273265   6.054   3.486   4.159 -1.2160  0.8872 -0.7196
17284TIP3   OH273266   1.227   2.695   3.482 -0.7454 -0.4428 -0.2541
17284TIP3    H173267   1.145   2.650   3.506 -1.5383  1.7728  1.3665
17284TIP3    H273268   1.206   2.740   3.401 -0.6684 -1.0706 -0.6274
17285TIP3   OH273269   0.863   0.877   3.031  0.6814  0.7915  0.1181
17285TIP3    H173270   0.848   0.907   2.942  2.0219 -0.0447 -0.3980
17285TIP3    H273271   0.793   0.814   3.047  1.7482 -0.7704 -1.1746
17286TIP3   OH273272   2.190   6.518   5.234 -0.0544 -0.3984 -0.2643
17286TIP3    H173273   2.210   6.612   5.232  0.1801 -0.4495 -0.2343
17286TIP3    H273274   2.104   6.514   5.277  0.0613 -0.2198 -0.0096
17287TIP3   OH273275   3.693   0.052  15.124  0.3580 -0.7883 -0.0655
17287TIP3    H173276   3.690   0.064  15.219  2.6638  1.6337 -0.2258
17287TIP3    H273277   3.784   0.028  15.106  0.4191  0.6393 -1.8196
17288TIP3   OH273278   0.674   1.045  12.098 -0.2841 -0.2968 -0.1478
17288TIP3    H173279   0.615   1.050  12.022  0.7259 -0.0813 -0.9238
17288TIP3    H273280   0.759   1.072  12.064 -0.4076  2.6453  1.7261
17289TIP3   OH273281   2.288   6.437  12.699  0.1092 -0.2651 -0.0042
17289TIP3    H173282   2.340   6.392  12.633  0.5120  0.0779  0.0721
17289TIP3    H273283   2.352   6.467  12.764 -0.1877  0.1052  0.1235
17290TIP3   OH273284   4.649   2.439   0.486 -0.1385 -0.0862  0.1104
17290TIP3    H173285   4.614   2.501   0.550 -0.9701  1.0859 -1.4594
17290TIP3    H273286   4.572   2.398   0.448  0.4402 -3.2013  2.1698
17291TIP3   OH273287   6.300   0.432   2.823  0.2298  0.3043  0.1670
17291TIP3    H173288   6.207   0.427   2.802  0.1875 -1.8688  0.7292
17291TIP3    H273289   6.302   0.439   2.919  0.6186  1.7831  0.0593
17292TIP3   OH273290   6.127   5.075  15.760 -0.2706  0.1985 -0.1422
17292TIP3    H173291   6.036   5.085  15.787 -0.1624  1.7430 -0.3027
17292TIP3    H273292   6.144   4.981  15.766 -1.6067  0.0035  0.7489
17293TIP3   OH273293   2.523   5.239  14.219  0.5697 -0.2586  0.1817
17293TIP3    H173294   2.476   5.189  14.286  1.2774 -0.5183  0.4979
17293TIP3    H273295   2.471   5.318  14.207 -0.5802 -1.0961 -0.3561
17294TIP3   OH273296   1.648   5.549   4.388 -0.2275  0.1832 -0.2782
17294TIP3    H173297   1.655   5.629   4.440 -0.2132  0.4091 -0.6220
17294TIP3    H273298   1.554   5.530   4.386 -0.0578 -0.9588  1.5123
17295TIP3   OH273299   2.258   4.568  14.084  0.0669 -0.1150 -0.1175
17295TIP3    H173300   2.188   4.563  14.019 -0.8631 -0.5982  0.9130
17295TIP3    H273301   2.318   4.634  14.049 -0.0015 -0.9563 -1.8636
17296TIP3   OH273302   5.834   0.584   4.224  0.3478  0.5473 -0.2038
17296TIP3    H173303   5.814   0.607   4.133  0.4523  0.8362 -0.1515
17296TIP3    H273304   5.878   0.661   4.260  0.4654  0.3669  0.0409
17297TIP3   OH273305   6.646   1.769   0.085 -0.0225  0.2961 -0.8607
17297TIP3    H173306   6.670   1.846   0.137  3.3677 -2.3308  1.7409
17297TIP3    H273307   6.724   1.753   0.031 -0.4417 -1.6618 -0.8859
17298TIP3   OH273308   0.141   0.006   3.974  0.2242  0.2253 -0.7465
17298TIP3    H173309   0.064  -0.035   4.013  0.4465  0.7761  0.2939
17298TIP3    H273310   0.130  -0.007   3.879 -0.7826 -0.3168 -0.5633
17299TIP3   OH273311   5.937   2.241  11.577  0.5205 -0.1298 -0.6143
17299TIP3    H173312   6.016   2.188  11.581 -0.8850 -2.1423  1.3775
17299TIP3    H273313   5.871   2.183  11.540 -0.0793  1.5266 -2.2260
17300TIP3   OH273314   1.839   4.219  12.603 -0.8333  0.3700  0.2668
17300TIP3    H173315   1.848   4.311  12.625 -1.2250  0.2279  1.0511
17300TIP3    H273316   1.923   4.195  12.563 -1.0926  1.3107 -0.8609
17301TIP3   OH273317   5.261   0.678   4.372  0.2065  0.1798 -0.1523
17301TIP3    H173318   5.188   0.618   4.355  0.3793 -0.3374  0.9005
17301TIP3    H273319   5.303   0.644   4.451  0.7037  1.3231  0.0922
17302TIP3   OH273320   1.966   2.076  17.220 -0.5268  0.3568  0.0096
17302TIP3    H173321   2.006   2.098  17.136  0.7782 -0.9924  0.2497
17302TIP3    H273322   1.913   1.999  17.203 -0.2813  0.0952  0.4117
17303TIP3   OH273323   5.167   6.606  12.875 -0.4070 -0.2059  0.1023
17303TIP3    H173324   5.127   6.541  12.933  1.0382 -1.6837 -0.5214
17303TIP3    H273325   5.094   6.640  12.823 -1.3636 -0.4671  1.2308
17304TIP3   OH273326   6.642   1.334   1.992  1.1368 -0.2902 -0.2034
17304TIP3    H173327   6.709   1.267   1.980  0.0197 -1.5343  0.3446
17304TIP3    H273328   6.603   1.313   2.077 -2.2784 -1.7136 -2.0089
17305TIP3   OH273329   2.103   0.495   0.699  0.7215  0.1245 -0.0630
17305TIP3    H173330   2.075   0.583   0.724 -1.6228  0.0367 -2.1713
17305TIP3    H273331   2.092   0.443   0.779 -5.5976  0.0574 -0.7234
17306TIP3   OH273332   3.850   3.786  15.569  0.0608  0.1634 -0.0751
17306TIP3    H173333   3.896   3.848  15.513 -0.5617  1.4585  0.8042
17306TIP3    H273334   3.760   3.819  15.572  0.0900  0.1605  1.6928
17307TIP3   OH273335   3.088   4.707   0.199 -0.5579 -0.2774  0.5372
17307TIP3    H173336   3.156   4.732   0.262 -0.5980  0.6580  0.2193
17307TIP3    H273337   3.136   4.692   0.117 -0.9734  2.6940 -0.3012
17308TIP3   OH273338   2.868   5.542  11.888 -0.0292 -0.3755  0.5910
17308TIP3    H173339   2.929   5.476  11.919 -0.5661 -1.4626 -0.6096
17308TIP3    H273340   2.806   5.494  11.834 -2.9058  0.4379  3.0219
17309TIP3   OH273341   4.524   0.745  16.971 -0.4610 -0.0840 -0.0625
17309TIP3    H173342   4.433   0.770  16.957  0.4681  2.2514 -2.3887
17309TIP3    H273343   4.567   0.826  16.998  1.4477 -0.5357 -1.6314
17310TIP3   OH273344   5.703   6.783  14.913 -0.6327 -0.0491  0.0967
17310TIP3    H173345   5.610   6.774  14.889 -0.8017  2.4241 -0.3030
17310TIP3    H273346   5.702   6.804  15.006 -0.5581  1.3508 -0.2116
17311TIP3   OH273347   6.233   4.757  12.937  0.2895 -0.1094 -0.0538
17311TIP3    H173348   6.307   4.817  12.937  0.0130  0.2624  1.2718
17311TIP3    H273349   6.235   4.717  13.024 -0.9653 -0.2045 -0.0524
17312TIP3   OH273350   2.539   4.659   5.620  0.1480 -0.0752 -0.1453
17312TIP3    H173351   2.579   4.608   5.690  1.8781  0.9083 -0.3968
17312TIP3    H273352   2.570   4.748   5.634  1.0104  0.0253 -2.4883
17313TIP3   OH273353   3.874   1.303   2.390 -0.3124 -0.1420  0.2850
17313TIP3    H173354   3.890   1.381   2.443  0.3742  0.8129 -1.2898
17313TIP3    H273355   3.960   1.261   2.383 -0.6178 -0.8666  0.8515
17314TIP3   OH273356   4.508   2.103   0.230  0.5200 -0.0983 -1.0065
17314TIP3    H173357   4.553   2.064   0.155  1.8529  1.7862 -1.2197
17314TIP3    H273358   4.519   2.039   0.301  1.6602 -0.6288 -1.6483
17315TIP3   OH273359   4.224   1.635   6.219 -0.4507 -0.2527  0.5771
17315TIP3    H173360   4.253   1.720   6.253 -2.6187  0.1507  1.4991
17315TIP3    H273361   4.241   1.573   6.290 -0.1865 -0.3325  0.4438
17316TIP3   OH273362   0.259   5.549  13.128  0.9479 -0.1739  0.2150
17316TIP3    H173363   0.323   5.572  13.195 -0.4751 -0.0457  1.5492
17316TIP3    H273364   0.197   5.492  13.172  0.2856 -0.5164 -1.1351
17317TIP3   OH273365   3.665   6.764  16.586  0.6255  0.3404 -0.0341
17317TIP3    H173366   3.720   6.841  16.572  0.8687  0.0489 -0.7252
17317TIP3    H273367   3.697   6.726  16.668 -0.8545  2.1110  1.4049
17318TIP3   OH273368   4.150   4.632  11.535 -0.5239 -0.2700  0.3530
17318TIP3    H173369   4.126   4.723  11.552 -2.0624 -0.7653  0.8736
17318TIP3    H273370   4.200   4.606  11.613  1.7618  0.7577 -0.7302
17319TIP3   OH273371   2.139   4.907   3.095 -0.4503  0.1304  0.1745
17319TIP3    H173372   2.219   4.947   3.062 -0.1156 -0.4616  0.2601
17319TIP3    H273373   2.142   4.920   3.190 -0.2499 -0.2573  0.2225
17320TIP3   OH273374   3.033   2.030  15.861  0.5232 -0.8141  0.5523
17320TIP3    H173375   3.081   2.000  15.937 -0.1351 -1.4324  0.7296
17320TIP3    H273376   2.947   2.056  15.895  0.6812  0.1659  0.2230
17321TIP3   OH273377   4.068   4.460   2.936  0.4733  0.1004 -0.5304
17321TIP3    H173378   4.049   4.525   3.004 -1.5197 -1.0323  0.0302
17321TIP3    H273379   4.051   4.506   2.854  2.3230  1.2973 -0.2655
17322TIP3   OH273380   0.169   5.041  12.629  0.5252  0.1517 -0.3317
17322TIP3    H173381   0.187   4.949  12.650  0.7610 -0.0236 -1.2552
17322TIP3    H273382   0.075   5.051  12.640  0.3850 -0.4111 -0.9875
17323TIP3   OH273383   6.580   0.623  12.218 -0.5776 -0.3929 -0.1654
17323TIP3    H173384   6.554   0.531  12.210  1.3907 -1.0033  0.2205
17323TIP3    H273385   6.554   0.662  12.134  1.5353 -2.0946 -1.6956
17324TIP3   OH273386   5.784   5.204   3.188 -0.1188 -0.4418 -0.0717
17324TIP3    H173387   5.762   5.243   3.103 -0.4722 -1.5371 -0.4943
17324TIP3    H273388   5.726   5.247   3.250  0.7473  0.9901 -0.2450
17325TIP3   OH273389   0.303   0.344   2.931 -0.2889  0.1217  0.0937
17325TIP3    H173390   0.341   0.331   2.844 -0.9090 -0.3472 -0.1100
17325TIP3    H273391   0.378   0.365   2.987  0.3080 -1.0261 -0.2562
17326TIP3   OH273392   5.101   2.489   3.393  0.1236  0.5751  0.2910
17326TIP3    H173393   5.118   2.415   3.451  0.2395  0.4061  0.0454
17326TIP3    H273394   5.188   2.517   3.364  0.1315  1.4269  1.1440
17327TIP3   OH273395   0.309   2.051  17.239  0.0170 -0.3027 -0.2493
17327TIP3    H173396   0.331   1.958  17.241 -3.5414 -1.1674  3.3929
17327TIP3    H273397   0.233   2.056  17.181  0.8935  0.5651 -1.3547
17328TIP3   OH273398   6.459   5.561   1.711  0.1229  0.1168  0.1477
17328TIP3    H173399   6.494   5.523   1.792  2.1812  1.6204 -0.0208
17328TIP3    H273400   6.439   5.652   1.734 -1.0900  0.0339 -0.5259
17329TIP3   OH273401   0.512   1.332   0.651  0.3539  0.2612  0.3168
17329TIP3    H173402   0.426   1.356   0.617 -0.2637 -0.4335  1.3727
17329TIP3    H273403   0.554   1.416   0.670  0.5412  0.6574 -1.6833
17330TIP3   OH273404   0.977   6.154  16.598 -0.1140  0.1193 -0.0192
17330TIP3    H173405   1.022   6.238  16.595  2.2476 -1.1365 -1.2710
17330TIP3    H273406   0.894   6.172  16.642  0.3842  3.0719 -0.2230
17331TIP3   OH273407   1.566   1.117   6.440  0.0700 -0.1073 -0.1407
17331TIP3    H173408   1.543   1.164   6.519 -2.7321  0.3836 -1.1964
17331TIP3    H273409   1.486   1.073   6.413  0.8935 -0.1087 -2.8094
17332TIP3   OH273410   0.769   0.116  13.306 -0.0016  0.7978 -0.3979
17332TIP3    H173411   0.713   0.191  13.285 -1.6553  0.3827  2.3383
17332TIP3    H273412   0.750   0.052  13.237 -1.0916  1.5994 -0.8608
17333TIP3   OH273413   5.075   4.161  11.551 -0.1870  0.0674 -0.5188
17333TIP3    H173414   5.135   4.188  11.621 -0.0653 -0.4792 -0.4149
17333TIP3    H273415   5.112   4.080  11.517 -0.6363 -0.0464 -0.7440
17334TIP3   OH273416   6.554   4.173   5.082  0.1348  0.0174 -0.1461
17334TIP3    H173417   6.594   4.228   5.149 -0.8466 -0.6813  1.0334
17334TIP3    H273418   6.463   4.204   5.076  0.0728 -0.2733 -0.7528
17335TIP3   OH273419   2.538   6.072   5.934 -0.3402  0.6098  0.2193
17335TIP3    H173420   2.448   6.051   5.909 -0.0347  3.3095 -3.4644
17335TIP3    H273421   2.537   6.166   5.949  1.8029  0.6100  0.4242
17336TIP3   OH273422   3.866   5.093   5.253 -0.3489  0.4933 -0.2980
17336TIP3    H173423   3.796   5.156   5.234 -0.7927 -0.2163 -1.0574
17336TIP3    H273424   3.870   5.038   5.175 -0.5006 -0.9074  0.6599
17337TIP3   OH273425   4.304   5.921  13.303  0.8806 -0.3629  0.0392
17337TIP3    H173426   4.231   5.958  13.254  0.1481 -0.2612  1.1790
17337TIP3    H273427   4.303   5.828  13.282  2.1325  0.0876 -2.0875
17338TIP3   OH273428   0.688   2.211  15.577 -0.2149 -0.0666  0.4294
17338TIP3    H173429   0.745   2.169  15.513  1.2741 -0.1453  1.7905
17338TIP3    H273430   0.662   2.294  15.535  0.1783 -0.4336 -0.5532
17339TIP3   OH273431   4.508   5.589  13.420 -1.0874 -0.3140 -0.4935
17339TIP3    H173432   4.589   5.621  13.379 -2.5527  0.4639 -2.8653
17339TIP3    H273433   4.471   5.666  13.463 -0.7470 -0.5944  0.3092
17340TIP3   OH273434   2.272   2.135   3.997  0.2000  0.1354  0.1480
17340TIP3    H173435   2.270   2.080   4.075  0.2126 -0.8128 -0.5047
17340TIP3    H273436   2.304   2.076   3.928 -0.0817  0.8840 -0.6242
17341TIP3   OH273437   5.675   2.577  12.666  0.5692  0.2764  0.7227
17341TIP3    H173438   5.758   2.573  12.619  0.7044  1.7061  0.8211
17341TIP3    H273439   5.638   2.662  12.642 -0.2505  0.2066  1.7145
17342TIP3   OH273440   5.291   2.718   1.783 -0.4475  0.1376 -0.2363
17342TIP3    H173441   5.258   2.628   1.793 -3.3174  0.9840 -1.6354
17342TIP3    H273442   5.234   2.770   1.839 -0.5939  1.4858 -1.6351
17343TIP3   OH273443   4.943   6.494  11.893 -0.3547  0.3526 -0.3012
17343TIP3    H173444   5.031   6.522  11.918  1.0348 -1.3247 -2.9970
17343TIP3    H273445   4.905   6.570  11.849 -0.4920  1.2629  1.3518
17344TIP3   OH273446   6.070   1.934   1.444 -0.7087  0.1946 -0.1416
17344TIP3    H173447   5.994   1.920   1.500 -0.8221  0.0016 -0.3395
17344TIP3    H273448   6.052   2.017   1.399 -0.3804  0.6091  0.4838
17345TIP3   OH273449   5.762   5.283  11.772  0.4331 -0.4033  0.0998
17345TIP3    H173450   5.825   5.349  11.741 -0.4903  0.5395  0.2114
17345TIP3    H273451   5.795   5.200  11.737  1.3192  0.1890 -0.4843
17346TIP3   OH273452   2.176   5.407  13.303 -0.1497  0.3342  0.4125
17346TIP3    H173453   2.111   5.422  13.372  1.1089  0.6221  1.5409
17346TIP3    H273454   2.243   5.354  13.345 -1.2097 -2.7913 -1.6413
17347TIP3   OH273455   5.177   0.866  13.407 -0.2386 -0.2100  0.0926
17347TIP3    H173456   5.256   0.851  13.459  0.6168  0.9422 -0.8758
17347TIP3    H273457   5.123   0.923  13.462  0.0167 -0.1997  0.3307
17348TIP3   OH273458   2.367   4.023   4.650  0.0894 -0.1676  0.2838
17348TIP3    H173459   2.375   3.978   4.566  0.0061  0.6807 -0.1819
17348TIP3    H273460   2.424   3.973   4.709  2.1291  0.6982 -0.8855
17349TIP3   OH273461   6.675   3.998   3.966 -0.1759  0.0512 -0.2697
17349TIP3    H173462   6.760   3.980   4.005  0.4720  1.8248 -0.8308
17349TIP3    H273463   6.685   3.972   3.875  0.2354  1.6195 -0.6811
17350TIP3   OH273464   1.840   6.086  15.584 -0.0655  0.5855 -0.0082
17350TIP3    H173465   1.757   6.134  15.573 -1.6519 -2.1274 -0.3534
17350TIP3    H273466   1.843   6.066  15.677 -0.7679 -0.9784 -0.3152
17351TIP3   OH273467   2.336   1.004   0.982  0.0961 -0.6480 -0.1882
17351TIP3    H173468   2.310   1.094   0.999 -1.2107 -0.9699 -0.3849
17351TIP3    H273469   2.428   1.009   0.957 -0.2502  0.7489 -1.2357
17352TIP3   OH273470   3.716   2.136   4.804 -0.3015  0.0304 -0.5405
17352TIP3    H173471   3.665   2.169   4.878  1.8174  0.3622  0.8133
17352TIP3    H273472   3.653   2.129   4.733 -2.5506 -0.8974  1.4458
17353TIP3   OH273473   4.737   5.186  14.105 -0.4754  0.7855  0.3702
17353TIP3    H173474   4.642   5.186  14.102 -0.5187 -0.3445  1.2382
17353TIP3    H273475   4.761   5.093  14.098  0.6616  1.2422 -2.2893
17354TIP3   OH273476   1.006   4.173   3.252 -0.2158 -0.3910 -0.5745
17354TIP3    H173477   1.049   4.090   3.232  1.4884  0.2057  0.5509
17354TIP3    H273478   0.912   4.153   3.245  0.1953 -2.0318 -1.7372
17355TIP3   OH273479   6.727   6.730   0.637  0.0906  0.1134  0.1817
17355TIP3    H173480   6.697   6.749   0.726 -0.4605 -1.7251  0.4284
17355TIP3    H273481   6.810   6.776   0.629 -0.3002  1.0467  1.3358
17356TIP3   OH273482   1.944   0.601  12.310  0.0292  0.0690  0.1679
17356TIP3    H173483   1.981   0.513  12.320 -0.5565 -0.0648  1.2193
17356TIP3    H273484   1.866   0.588  12.256  0.9177  0.2031 -1.1728
17357TIP3   OH273485   0.481   2.522   4.823 -0.3198 -0.2080 -0.6864
17357TIP3    H173486   0.515   2.535   4.911  0.3505 -0.1619 -0.9461
17357TIP3    H273487   0.404   2.467   4.834  0.4447 -1.1850 -0.1867
17358TIP3   OH273488   1.609   1.986   5.530  0.1845  0.1809  0.3724
17358TIP3    H173489   1.690   1.986   5.478 -0.2176 -0.2666 -0.2696
17358TIP3    H273490   1.584   2.078   5.537  0.4979  0.2803  0.1727
17359TIP3   OH273491   1.388   6.586   1.737 -0.1595 -0.3407  0.6182
17359TIP3    H173492   1.409   6.659   1.796 -0.4065  0.0021  0.2843
17359TIP3    H273493   1.363   6.514   1.795 -2.0696  0.5234  0.8902
17360TIP3   OH273494   3.576   1.977   1.025  0.0072 -0.4011  0.8564
17360TIP3    H173495   3.637   2.050   1.021  0.1022 -0.5278  0.0069
17360TIP3    H273496   3.491   2.016   1.007 -0.0459 -0.3807  1.1412
17361TIP3   OH273497   3.398   2.441   1.699 -0.1936 -0.0687 -0.3249
17361TIP3    H173498   3.390   2.490   1.781  0.3846 -1.1502  0.3937
17361TIP3    H273499   3.325   2.379   1.702  0.2578 -0.6047 -0.2708
17362TIP3   OH273500   2.932   1.218  15.339  0.8068 -0.1001  0.3634
17362TIP3    H173501   2.947   1.152  15.407  3.7071 -1.3210 -1.3940
17362TIP3    H273502   2.899   1.169  15.264  1.3436  0.6746 -0.3894
17363TIP3   OH273503   3.066   0.285  13.024 -0.4764 -0.2073 -0.0101
17363TIP3    H173504   3.148   0.280  13.073 -0.8625  0.7982  0.7538
17363TIP3    H273505   3.010   0.342  13.077 -1.2490  0.0789 -1.1238
17364TIP3   OH273506   3.452   1.689   1.987  0.0527  0.0303  0.2725
17364TIP3    H173507   3.415   1.747   1.919  0.6070 -2.0988 -1.9225
17364TIP3    H273508   3.377   1.669   2.044 -0.9006  0.3045 -0.8509
17365TIP3   OH273509   2.312   3.834   3.098  0.7601 -0.1307 -0.6316
17365TIP3    H173510   2.331   3.918   3.055 -0.8937 -0.2280 -1.5720
17365TIP3    H273511   2.284   3.776   3.027  0.0377 -0.9219  0.2865
17366TIP3   OH273512   2.339   0.977   5.145 -0.0473 -0.2719 -0.4852
17366TIP3    H173513   2.400   0.925   5.198  0.2899  0.0569 -0.5455
17366TIP3    H273514   2.312   1.048   5.203  1.3052  0.8167 -1.1462
17367TIP3   OH273515   3.103   1.753  11.605  0.0505  0.2866 -0.0443
17367TIP3    H173516   3.033   1.719  11.661  0.4603  0.3837  0.5166
17367TIP3    H273517   3.059   1.771  11.522 -0.3533 -0.7891 -0.0760
17368TIP3   OH273518   1.145   3.983   3.657 -0.2945  0.1164 -0.1870
17368TIP3    H173519   1.149   3.899   3.704  0.8925  0.3132  0.0835
17368TIP3    H273520   1.065   3.977   3.604 -0.1438 -1.2458 -0.2796
17369TIP3   OH273521   0.888   4.985   3.355  0.4850 -0.0847  0.1831
17369TIP3    H173522   0.894   5.080   3.360  0.5465 -0.1165  0.7543
17369TIP3    H273523   0.840   4.968   3.274 -0.7282  0.4732  0.7771
17370TIP3   OH273524   1.079   3.610   1.620 -0.0570 -0.7216  0.7853
17370TIP3    H173525   1.168   3.577   1.612 -0.2933 -1.2558  0.3053
17370TIP3    H273526   1.078   3.657   1.703  1.1285  0.7101  0.0152
17371TIP3   OH273527   5.861   2.801  12.501 -0.1121  0.2844 -0.3650
17371TIP3    H173528   5.796   2.758  12.446  0.4399 -1.7011  0.5224
17371TIP3    H273529   5.869   2.746  12.578  2.1979  0.8077 -0.1852
17372TIP3   OH273530   4.353   1.479  14.418 -0.1185  0.6413 -0.3062
17372TIP3    H173531   4.318   1.390  14.409  1.2509 -0.6182  5.2258
17372TIP3    H273532   4.282   1.529  14.459  1.1864  0.4514  2.2867
17373TIP3   OH273533   1.287   4.226   0.641  0.7051  0.7447 -0.1835
17373TIP3    H173534   1.251   4.147   0.679 -0.5526  0.0880 -2.5860
17373TIP3    H273535   1.217   4.291   0.650  0.1164  0.3831 -1.9417
17374TIP3   OH273536   1.337   5.184   5.914  0.0495  0.0104 -0.1750
17374TIP3    H173537   1.415   5.227   5.880 -0.7848  1.2904 -0.5237
17374TIP3    H273538   1.363   5.151   6.000  0.7471  1.1622  0.0760
17375TIP3   OH273539   3.359   5.485   6.286  0.0014  0.1216  0.2452
17375TIP3    H173540   3.347   5.436   6.367 -3.3740  1.3785  0.5751
17375TIP3    H273541   3.296   5.556   6.291  2.7825  2.8342 -1.5377
17376TIP3   OH273542   5.346   0.608   6.473 -0.6062  0.2114 -0.1894
17376TIP3    H173543   5.360   0.525   6.520  0.6357  0.7503  0.4232
17376TIP3    H273544   5.434   0.635   6.445 -0.6833  2.4539  1.5727
17377TIP3   OH273545   1.268   2.892   1.483  0.2596 -0.3205 -0.0494
17377TIP3    H173546   1.200   2.848   1.533 -0.6839  0.0685 -0.9539
17377TIP3    H273547   1.221   2.929   1.407  1.1598  1.5008  0.2593
17378TIP3   OH273548   6.220   2.486   5.005  0.1831 -0.1987 -0.2674
17378TIP3    H173549   6.272   2.420   4.959  2.4233  0.3434  1.3818
17378TIP3    H273550   6.202   2.447   5.091 -1.2728  0.0443 -0.4468
17379TIP3   OH273551   4.703   3.281   4.853  0.8267  0.4596 -0.1281
17379TIP3    H173552   4.712   3.366   4.896  0.4054  0.2231  0.4321
17379TIP3    H273553   4.779   3.230   4.883  0.4436  0.2374  0.4789
17380TIP3   OH273554   6.525   3.747  16.145 -0.1499  0.0048 -0.1020
17380TIP3    H173555   6.607   3.730  16.099 -0.0744  0.4477 -0.1274
17380TIP3    H273556   6.457   3.731  16.080 -0.0135  1.3720 -0.5845
17381TIP3   OH273557   5.257   5.353  14.928  0.1393  0.2196 -0.1039
17381TIP3    H173558   5.275   5.273  14.979 -0.1472  0.1469 -0.1147
17381TIP3    H273559   5.289   5.424  14.984 -3.7064  0.4717  2.0169
17382TIP3   OH273560   4.364   4.526   3.625  0.2133  0.0751 -0.0083
17382TIP3    H173561   4.365   4.594   3.693  0.9638  0.6237 -0.5568
17382TIP3    H273562   4.375   4.575   3.543  0.8672 -0.7160 -0.3984
17383TIP3   OH273563   3.153   1.825  14.161  0.0251 -0.3133 -0.3169
17383TIP3    H173564   3.159   1.741  14.206 -1.0351 -0.6957 -0.8735
17383TIP3    H273565   3.156   1.803  14.068 -2.3787  0.0528 -0.5165
17384TIP3   OH273566   6.226   4.813   5.150  0.3577 -0.3376 -0.5043
17384TIP3    H173567   6.203   4.739   5.094  0.0666  0.3919 -1.3567
17384TIP3    H273568   6.155   4.875   5.138  1.3568  0.7363 -0.9816
17385TIP3   OH273569   5.704   5.243   6.478 -0.8086  0.3446  0.2727
17385TIP3    H173570   5.740   5.189   6.408 -1.3212 -0.6219  0.7412
17385TIP3    H273571   5.638   5.187   6.520 -0.4528  0.8765  1.5648
17386TIP3   OH273572   3.193   1.863  13.903  0.1691  0.1445 -0.2849
17386TIP3    H173573   3.145   1.832  13.826 -0.4503  2.4980 -0.8896
17386TIP3    H273574   3.285   1.862  13.875 -0.0507  0.9911 -1.0799
17387TIP3   OH273575   0.461   2.222  14.645  0.1713 -0.1122 -0.5610
17387TIP3    H173576   0.401   2.278  14.596  0.7167  0.7956 -0.1977
17387TIP3    H273577   0.431   2.133  14.627  0.7123  0.1689 -3.0518
17388TIP3   OH273578   4.787   1.320  16.395 -0.2338  0.2322 -0.8478
17388TIP3    H173579   4.872   1.280  16.379  0.4577  1.3416 -0.0307
17388TIP3    H273580   4.767   1.368  16.315  0.1117  0.3190 -0.8809
17389TIP3   OH273581   3.041   3.721   4.712  0.8040 -1.0362 -0.7930
17389TIP3    H173582   2.950   3.712   4.740  0.3117  2.4743 -1.0570
17389TIP3    H273583   3.092   3.704   4.790 -0.1131 -2.1798 -0.4322
17390TIP3   OH273584   0.807   2.254  16.058  0.0432  0.8052  0.2996
17390TIP3    H173585   0.824   2.348  16.049 -1.4058  1.0485 -0.0354
17390TIP3    H273586   0.751   2.247  16.135  1.7887 -0.0059  1.5234
17391TIP3   OH273587   5.919   0.914   2.007  0.2249 -0.3059  0.3933
17391TIP3    H173588   5.918   1.010   2.000  1.7184 -0.1650  1.6643
17391TIP3    H273589   5.969   0.885   1.931  0.7180  0.0033  0.5965
17392TIP3   OH273590   1.466   1.572   5.139 -0.0202  0.1229 -0.0622
17392TIP3    H173591   1.522   1.514   5.192 -0.0989  0.3079  0.2267
17392TIP3    H273592   1.482   1.659   5.175  0.3931  0.3296 -0.7614
17393TIP3   OH273593   6.224   3.935  17.160 -0.1829 -0.1558  0.6075
17393TIP3    H173594   6.171   3.998  17.111 -2.3517 -2.5658 -0.2003
17393TIP3    H273595   6.301   3.921  17.105 -0.8067  0.0248 -0.3275
17394TIP3   OH273596   1.013   2.570  11.997  0.2583  0.0755  0.5915
17394TIP3    H173597   0.991   2.487  12.038 -0.5303  0.7309  1.5018
17394TIP3    H273598   1.107   2.565  11.983 -0.0219 -1.6540 -0.9007
17395TIP3   OH273599   6.751   6.692   0.939 -0.1215  0.5802 -0.0031
17395TIP3    H173600   6.754   6.597   0.938 -2.5361  0.4602 -0.9510
17395TIP3    H273601   6.830   6.719   0.986  0.8037 -1.8569 -0.1084
17396TIP3   OH273602   1.787   4.142  16.504 -0.3020  0.0657 -0.4029
17396TIP3    H173603   1.866   4.105  16.544 -0.6850  1.9556  2.2240
17396TIP3    H273604   1.786   4.233  16.532 -2.1011  0.7523 -2.5183
17397TIP3   OH273605   0.948   5.423  16.839  0.5209 -0.0271 -0.1260
17397TIP3    H173606   0.888   5.443  16.910  2.8699  1.9293  1.3943
17397TIP3    H273607   1.024   5.382  16.881 -0.1172 -3.5134 -2.1215
17398TIP3   OH273608   6.422   4.791  15.617  0.5953  0.2715 -0.6913
17398TIP3    H173609   6.504   4.804  15.569  1.2867 -1.7120 -0.1065
17398TIP3    H273610   6.355   4.830  15.562  1.8038  1.0348 -1.6523
17399TIP3   OH273611   0.253   5.735   4.927 -0.0694 -0.1246  0.9468
17399TIP3    H173612   0.250   5.784   5.009 -2.4510  4.4612 -1.6616
17399TIP3    H273613   0.320   5.779   4.875  0.3441 -2.0063 -0.1384
17400TIP3   OH273614   5.606   5.173   1.868 -0.4540  0.1469  0.5030
17400TIP3    H173615   5.519   5.171   1.908 -0.5544  0.6326  0.3222
17400TIP3    H273616   5.603   5.250   1.810  0.5476  0.9631  1.5200
17401TIP3   OH273617   5.694   2.941   0.451 -0.4537 -0.2530 -0.0428
17401TIP3    H173618   5.707   2.868   0.511 -1.3737  0.7737  1.4400
17401TIP3    H273619   5.762   3.004   0.474 -1.9753  0.9653  1.2488
17402TIP3   OH273620   2.264   0.063   0.475 -0.4325 -0.2849 -0.4859
17402TIP3    H173621   2.239   0.060   0.383 -2.4175  1.0652 -0.0088
17402TIP3    H273622   2.182   0.073   0.523  0.6094 -0.4822  1.4053
17403TIP3   OH273623   1.125   1.853  14.642 -0.5962  0.3751  0.2489
17403TIP3    H173624   1.100   1.782  14.701  0.6496  0.0415  0.3880
17403TIP3    H273625   1.115   1.816  14.554  1.7218 -0.5760  0.3509
17404TIP3   OH273626   3.031   1.293   2.177 -0.0612 -0.0314 -0.5973
17404TIP3    H173627   3.087   1.349   2.123  1.2808 -0.3271  0.4514
17404TIP3    H273628   3.060   1.309   2.266 -0.4393 -1.5532 -0.1859
17405TIP3   OH273629   0.147   2.923   4.395  0.5124 -0.6345 -0.4112
17405TIP3    H173630   0.086   2.861   4.356  1.4870 -1.1153 -1.2006
17405TIP3    H273631   0.229   2.911   4.346  1.3155 -0.1750  0.7737
17406TIP3   OH273632   5.857   1.278   3.621 -0.2240  0.1098  0.1318
17406TIP3    H173633   5.922   1.210   3.638 -1.4750 -1.0539  0.2988
17406TIP3    H273634   5.846   1.277   3.526 -0.6970 -0.3336  0.1940
17407TIP3   OH273635   5.777   3.329   5.616  0.2263 -0.0152  0.8497
17407TIP3    H173636   5.823   3.265   5.562 -0.1588  0.0762  0.4126
17407TIP3    H273637   5.828   3.409   5.608  0.8103 -0.3126  1.5423
17408TIP3   OH273638   5.848   5.904   6.391  0.2577  0.1400 -0.1251
17408TIP3    H173639   5.898   5.972   6.435 -1.2780 -0.3053  2.3763
17408TIP3    H273640   5.831   5.838   6.458 -1.3431 -1.0172 -1.5891
17409TIP3   OH273641   4.661   6.735  13.684  0.2617  0.3149  0.0695
17409TIP3    H173642   4.604   6.809  13.663 -1.4609 -1.6520 -2.5851
17409TIP3    H273643   4.734   6.744  13.622  1.0319  0.8571  1.0539
17410TIP3   OH273644   4.440   6.729   5.790 -0.7627  0.0970  0.2273
17410TIP3    H173645   4.417   6.773   5.872  1.9429 -0.2192  1.2274
17410TIP3    H273646   4.412   6.639   5.803  1.0246 -0.3176  1.4756
17411TIP3   OH273647   2.690   0.780   3.576  0.4122  0.1353  0.5876
17411TIP3    H173648   2.776   0.821   3.586  0.8097 -0.4348 -0.5099
17411TIP3    H273649   2.629   0.854   3.579  1.0761  0.7424 -0.6100
17412TIP3   OH273650   0.676   1.658   1.331 -0.7244  0.1893  0.1274
17412TIP3    H173651   0.754   1.686   1.380  0.1618  1.1398 -1.7911
17412TIP3    H273652   0.606   1.714   1.364 -0.4832 -0.2199  1.3879
17413TIP3   OH273653   5.463   2.339  14.344  0.5507  0.2533  0.0928
17413TIP3    H173654   5.488   2.422  14.304  1.3037  0.2532  0.5468
17413TIP3    H273655   5.424   2.362  14.428 -1.3502  0.2726 -0.7698
17414TIP3   OH273656   6.577   6.210   2.733  0.3091 -0.1433  0.2515
17414TIP3    H173657   6.553   6.220   2.641 -2.4031 -0.2145  0.9145
17414TIP3    H273658   6.628   6.289   2.753  0.3796  0.1780 -1.1442
17415TIP3   OH273659   4.094   5.450   1.638  0.2338  0.0160 -0.4118
17415TIP3    H173660   4.003   5.476   1.648 -0.0617 -1.6478  1.4938
17415TIP3    H273661   4.107   5.381   1.704  3.9085  2.9073  2.1251
17416TIP3   OH273662   1.539   2.083   3.910  0.2368  0.2681  0.0598
17416TIP3    H173663   1.459   2.134   3.902  0.7826  1.0694 -0.3602
17416TIP3    H273664   1.589   2.104   3.832 -0.4265 -2.5432 -1.2095
17417TIP3   OH273665   6.594   0.378   2.279  0.0637  0.2052 -0.3061
17417TIP3    H173666   6.542   0.323   2.337 -2.0587  2.0856 -0.3986
17417TIP3    H273667   6.685   0.354   2.300 -0.6927 -0.4691  2.4613
17418TIP3   OH273668   0.843   2.926   0.722 -0.3145  0.5228 -0.4465
17418TIP3    H173669   0.805   2.847   0.685  0.9269  0.3606 -1.4058
17418TIP3    H273670   0.833   2.915   0.817 -1.1683 -0.2503 -0.6158
17419TIP3   OH273671   4.377   2.814   6.449 -0.3112 -0.4724  0.6067
17419TIP3    H173672   4.329   2.889   6.412 -1.7493 -1.1600  1.0537
17419TIP3    H273673   4.462   2.817   6.405 -0.8669  0.5765 -0.4480
17420TIP3   OH273674   4.952   5.284  13.779  0.0689 -0.2296  0.0474
17420TIP3    H173675   4.976   5.192  13.791 -0.8462 -0.3737  0.8330
17420TIP3    H273676   4.856   5.283  13.772 -0.2101  0.9696  3.0821
17421TIP3   OH273677   2.403   0.124   5.185 -0.1800 -0.0070  1.0835
17421TIP3    H173678   2.431   0.052   5.128 -1.5591 -0.5642  1.0840
17421TIP3    H273679   2.426   0.203   5.138 -1.0157 -0.4622 -0.1205
17422TIP3   OH273680   2.021   0.153  16.322 -0.6796  0.0047 -0.2931
17422TIP3    H173681   2.009   0.067  16.280 -0.1966  0.0092 -0.4381
17422TIP3    H273682   1.948   0.206  16.289 -0.6731 -0.1883 -0.6229
17423TIP3   OH273683   2.266   2.383   4.205  0.1938 -0.0525  0.2514
17423TIP3    H173684   2.259   2.333   4.124  1.9197 -0.7862  0.5408
17423TIP3    H273685   2.354   2.421   4.202  0.3850 -0.3403  1.9265
17424TIP3   OH273686   2.971   4.416  14.111  0.3697 -0.0050 -0.2479
17424TIP3    H173687   3.048   4.439  14.163  0.6753  2.1434 -1.5918
17424TIP3    H273688   2.899   4.462  14.153  0.3315  0.3580 -0.7011
17425TIP3   OH273689   2.755   5.455   1.586 -0.0788 -0.3380 -0.2082
17425TIP3    H173690   2.686   5.521   1.581  0.8084  0.5866 -0.6394
17425TIP3    H273691   2.713   5.373   1.561 -0.3697  0.7359 -3.5840
17426TIP3   OH273692   3.132   5.068   5.222 -0.2045 -0.3244  0.6007
17426TIP3    H173693   3.044   5.084   5.257 -0.6455 -1.1199 -0.1100
17426TIP3    H273694   3.123   5.084   5.128  1.1960  2.7989  0.9167
17427TIP3   OH273695   5.158   1.527  12.620  0.3377  0.3904  0.0507
17427TIP3    H173696   5.064   1.531  12.605  0.0476 -1.8823  0.9286
17427TIP3    H273697   5.195   1.504  12.535 -0.1300 -0.8559  0.1741
17428TIP3   OH273698   4.467   6.391   1.587  0.5627  0.1488  0.0315
17428TIP3    H173699   4.516   6.309   1.600  1.4974  0.8337  0.9696
17428TIP3    H273700   4.442   6.418   1.675 -1.4259 -0.1081 -0.4299
17429TIP3   OH273701   1.919   4.228  16.096  0.2618  0.7795  0.3841
17429TIP3    H173702   1.972   4.151  16.078  0.0002  1.0355 -1.5817
17429TIP3    H273703   1.980   4.302  16.090  0.0950  0.9001  0.1524
17430TIP3   OH273704   6.360   4.080   4.820 -0.0488 -0.1034 -0.1911
17430TIP3    H173705   6.266   4.082   4.837  0.1693 -0.1748  1.0589
17430TIP3    H273706   6.399   4.118   4.898  0.9457  0.2716 -0.8671
17431TIP3   OH273707   6.397   4.437  11.442  0.9292 -0.5502 -0.7678
17431TIP3    H173708   6.462   4.464  11.507  0.5493  3.2513 -1.8846
17431TIP3    H273709   6.329   4.392  11.494  1.3346  1.1426  1.2814
17432TIP3   OH273710   3.567   1.484   1.800 -0.3517  0.1458  0.1068
17432TIP3    H173711   3.537   1.527   1.880  1.4464  1.7554 -0.0450
17432TIP3    H273712   3.569   1.391   1.822  2.3605  0.7618  2.6989
17433TIP3   OH273713   1.548   4.580   4.739 -0.1457 -0.1027 -0.1082
17433TIP3    H173714   1.565   4.673   4.753 -1.0175 -0.1846  1.6174
17433TIP3    H273715   1.498   4.577   4.657 -1.5010  1.0997  0.6565
17434TIP3   OH273716   0.522   1.149   5.594 -0.2554  0.5013 -0.1503
17434TIP3    H173717   0.461   1.169   5.666 -1.2818  0.8527 -1.1071
17434TIP3    H273718   0.588   1.091   5.634 -2.2737 -1.4597  0.4491
17435TIP3   OH273719   1.391   2.028   2.223 -0.6199  0.1603 -0.6532
17435TIP3    H173720   1.317   2.047   2.165 -1.5537 -0.9474  0.1444
17435TIP3    H273721   1.462   2.082   2.189 -1.4327  0.3024 -2.2059
17436TIP3   OH273722   3.539   4.921  14.927  0.3303  0.4005 -0.3378
17436TIP3    H173723   3.604   4.851  14.920 -0.5977 -0.5045  0.0291
17436TIP3    H273724   3.476   4.903  14.857 -1.2939 -0.6212  1.3165
17437TIP3   OH273725   5.258   2.373   0.805 -0.1002  0.6774 -0.7533
17437TIP3    H173726   5.255   2.350   0.712  0.6652 -0.6341 -0.4631
17437TIP3    H273727   5.299   2.297   0.847 -0.7774  1.1043  0.7021
17438TIP3   OH273728   4.550   1.819  15.029  0.3303  0.1443 -0.1124
17438TIP3    H173729   4.599   1.826  14.947 -0.6290 -1.4254 -0.8485
17438TIP3    H273730   4.520   1.908  15.047  0.8191  0.5602 -1.3040
17439TIP3   OH273731   4.516   2.360  12.168  0.3567 -0.2732  0.0243
17439TIP3    H173732   4.471   2.407  12.098 -1.7833 -1.9998  0.1999
17439TIP3    H273733   4.582   2.307  12.122  1.5370  1.4542 -0.3259
17440TIP3   OH273734   3.862   1.558   6.524  0.1374  0.7808 -0.3437
17440TIP3    H173735   3.768   1.575   6.520  0.4718  2.2662 -1.9314
17440TIP3    H273736   3.900   1.639   6.557  0.7742 -0.2397  1.5599
17441TIP3   OH273737   6.596   5.234   2.095 -0.1946  0.3793 -0.1599
17441TIP3    H173738   6.659   5.194   2.155  1.0031  1.4042 -0.6891
17441TIP3    H273739   6.585   5.170   2.025  0.8698  0.5069 -0.4565
17442TIP3   OH273740   6.167   2.112  14.827  0.1431  0.2616 -0.2358
17442TIP3    H173741   6.229   2.058  14.876 -0.5443 -1.6817 -1.4264
17442TIP3    H273742   6.102   2.049  14.795 -2.1486  2.1776  0.5609
17443TIP3   OH273743   2.069   2.180   0.925 -0.1378 -0.1583  0.4872
17443TIP3    H173744   1.984   2.200   0.966 -0.1228  0.6110  0.1510
17443TIP3    H273745   2.047   2.158   0.835 -0.0659 -0.8321  0.6343
17444TIP3   OH273746   6.650   4.059   5.688  0.0323  0.5091  0.2688
17444TIP3    H173747   6.650   4.019   5.775 -0.0422 -0.9584 -0.3929
17444TIP3    H273748   6.600   3.999   5.634  1.9514  0.2832 -1.3041
17445TIP3   OH273749   2.578   1.261  15.927 -0.4294 -0.1352 -0.1293
17445TIP3    H173750   2.615   1.204  15.859  0.2201  0.5057 -0.3123
17445TIP3    H273751   2.504   1.304  15.885 -0.4319 -0.2405 -0.2326
17446TIP3   OH273752   5.220   4.067   4.605 -0.5799 -0.2499 -0.1734
17446TIP3    H173753   5.279   4.137   4.634 -2.2808  2.1819 -2.3531
17446TIP3    H273754   5.133   4.100   4.625 -1.4924 -0.9497 -2.8026
17447TIP3   OH273755   0.871   5.907  14.275 -0.4248 -0.3609 -0.2962
17447TIP3    H173756   0.947   5.859  14.308  0.1515  0.3321 -0.5813
17447TIP3    H273757   0.824   5.936  14.353 -0.2856 -0.6273 -0.1160
17448TIP3   OH273758   2.770   3.343   4.688  0.3090 -0.4376 -0.0497
17448TIP3    H173759   2.863   3.362   4.677  0.2650 -0.2916 -0.1712
17448TIP3    H273760   2.727   3.427   4.676  0.1499 -0.5291 -0.1208
17449TIP3   OH273761   1.788   3.127  16.479 -0.1581 -0.5766  0.0662
17449TIP3    H173762   1.868   3.156  16.434  0.0278  2.8585  2.4271
17449TIP3    H273763   1.817   3.099  16.565 -1.4038  0.0836  0.7198
17450TIP3   OH273764   6.576   4.491  15.843  0.2281 -0.3669  0.5382
17450TIP3    H173765   6.626   4.517  15.765  2.0884 -0.2579  1.7317
17450TIP3    H273766   6.508   4.557  15.851  1.2495  0.7620  0.1111
17451TIP3   OH273767   2.043   1.508  14.374 -0.0720 -0.3321  0.1054
17451TIP3    H173768   2.137   1.526  14.366  0.4380 -2.2169  1.4199
17451TIP3    H273769   2.021   1.537  14.463 -1.3070  2.3763 -1.0388
17452TIP3   OH273770   1.831   4.984  15.798  0.2472  0.6934  0.0560
17452TIP3    H173771   1.908   5.039  15.783 -0.9469  2.3025 -0.3206
17452TIP3    H273772   1.757   5.043  15.789 -0.9822 -0.4508  2.1466
17453TIP3   OH273773   3.117   1.262   2.477 -0.1320 -0.0573  0.3762
17453TIP3    H173774   3.084   1.173   2.489 -1.6548  0.4520  0.0835
17453TIP3    H273775   3.212   1.253   2.482 -0.1585 -2.0263 -1.7102
17454TIP3   OH273776   4.785   5.981  14.739 -0.2970  0.3009  0.0462
17454TIP3    H173777   4.822   5.984  14.650 -1.7596  1.6724 -0.5513
17454TIP3    H273778   4.861   5.977  14.797  0.7600  1.8510 -1.1905
17455TIP3   OH273779   4.778   1.481   6.060  0.0546 -0.2553 -0.3334
17455TIP3    H173780   4.768   1.567   6.018  0.7548  0.0926  0.1894
17455TIP3    H273781   4.709   1.479   6.126 -1.2651 -0.9382 -1.6810
17456TIP3   OH273782   3.205   1.782   5.628  0.2750  0.1927 -0.2947
17456TIP3    H173783   3.148   1.840   5.679 -1.3374 -0.0907 -1.6883
17456TIP3    H273784   3.288   1.780   5.675 -0.3036  2.0624  0.8339
17457TIP3   OH273785   4.847   4.354  14.415  0.5164  0.1027 -0.2049
17457TIP3    H173786   4.931   4.398  14.397  0.5817 -0.3956 -1.1267
17457TIP3    H273787   4.816   4.325  14.329  1.6769 -3.8207  0.5889
17458TIP3   OH273788   1.617   5.639   2.573  0.0601  0.2579 -0.1805
17458TIP3    H173789   1.705   5.603   2.579 -0.8787 -1.8347  1.5354
17458TIP3    H273790   1.595   5.635   2.479  1.6299  0.4620 -0.5607
17459TIP3   OH273791   3.418   0.896  13.392 -0.0361  0.2834 -0.3505
17459TIP3    H173792   3.401   0.988  13.411 -0.8376  0.9245 -3.7878
17459TIP3    H273793   3.406   0.888  13.297 -0.9900 -3.5722 -0.0188
17460TIP3   OH273794   3.618   1.709  11.751  0.6146 -0.0969  0.0617
17460TIP3    H173795   3.668   1.725  11.671  0.5721  1.8883  0.4056
17460TIP3    H273796   3.586   1.796  11.777  0.3346 -0.7700  2.0370
17461TIP3   OH273797   0.243   0.803   0.748  0.2118 -0.7764  0.5043
17461TIP3    H173798   0.271   0.872   0.688 -1.2073 -0.3894  0.2764
17461TIP3    H273799   0.212   0.849   0.826  0.6784 -1.2196  0.9568
17462TIP3   OH273800   3.412   1.183  14.262  0.7493 -0.0315 -0.0678
17462TIP3    H173801   3.389   1.094  14.236  2.6273 -0.0586 -1.7603
17462TIP3    H273802   3.498   1.174  14.304  0.1954  0.7721  1.2959
17463TIP3   OH273803   3.449   5.023  15.568  0.9369 -0.3744  0.0180
17463TIP3    H173804   3.475   4.934  15.547 -1.6363 -1.1599 -0.0142
17463TIP3    H273805   3.504   5.078  15.512  0.0646 -2.0833 -2.6102
17464TIP3   OH273806   5.982   1.907  15.937 -0.3996 -0.8857  0.3648
17464TIP3    H173807   5.890   1.899  15.912  0.1985  0.8984 -2.7329
17464TIP3    H273808   6.026   1.835  15.892  0.2849  0.7667 -1.7408
17465TIP3   OH273809   5.549   4.473  16.547 -0.2834 -0.5577 -0.7131
17465TIP3    H173810   5.543   4.425  16.464 -3.2824  0.8976 -1.4443
17465TIP3    H273811   5.601   4.551  16.525  0.1317 -0.8767 -0.8681
17466TIP3   OH273812   3.892   5.780   2.853  0.2478  0.0709  0.4172
17466TIP3    H173813   3.877   5.857   2.798  0.6200 -0.0079  0.2055
17466TIP3    H273814   3.812   5.771   2.905  0.0193  0.3216  0.1036
17467TIP3   OH273815   2.154   0.861   1.800  0.2048  0.2961 -0.5389
17467TIP3    H173816   2.082   0.924   1.805 -0.2760 -0.2610 -0.3366
17467TIP3    H273817   2.131   0.803   1.728 -1.5253 -2.2732  1.9650
17468TIP3   OH273818   6.730   1.731   4.779 -0.5216  0.0060  0.0200
17468TIP3    H173819   6.750   1.673   4.851  0.4585  0.0100 -0.2380
17468TIP3    H273820   6.768   1.689   4.702 -0.0661  0.8287 -0.2179
17469TIP3   OH273821   3.000   4.167  16.088 -0.2186  0.2907 -0.2772
17469TIP3    H173822   3.074   4.106  16.093  0.9188  1.6984  0.2132
17469TIP3    H273823   2.935   4.129  16.147  0.2143 -0.8234 -0.5030
17470TIP3   OH273824   0.647   1.233  12.925 -0.4050  0.6796 -0.3083
17470TIP3    H173825   0.590   1.239  12.848 -1.3740 -1.3398  0.1993
17470TIP3    H273826   0.588   1.243  12.999 -0.0474 -0.8720  0.2107
17471TIP3   OH273827   1.559   4.440  15.005 -0.3483  0.3500  0.1916
17471TIP3    H173828   1.531   4.444  15.096 -1.7881 -2.0967 -0.0973
17471TIP3    H273829   1.610   4.359  14.999 -0.4282  0.3859 -1.2063
17472TIP3   OH273830   5.027   0.901   4.491 -0.2383  0.0981 -0.5014
17472TIP3    H173831   5.038   0.806   4.493 -1.2268 -0.0552 -1.5234
17472TIP3    H273832   4.937   0.916   4.519 -0.0995  0.7347 -0.3749
17473TIP3   OH273833   2.823   5.686  16.293  0.1270 -0.2631  0.4907
17473TIP3    H173834   2.772   5.751  16.246 -0.7157 -1.5368 -0.3884
17473TIP3    H273835   2.882   5.649  16.227  1.3712  0.3718  1.2362
17474TIP3   OH273836   5.590   2.747   4.310 -0.1817 -0.5293  0.5384
17474TIP3    H173837   5.638   2.695   4.246  0.1781 -0.0143  0.3931
17474TIP3    H273838   5.500   2.748   4.277  0.6132  2.5199 -1.7715
17475TIP3   OH273839   0.265   1.871   1.292  0.1783 -0.4037 -0.2304
17475TIP3    H173840   0.254   1.861   1.198 -3.3589 -0.1344  0.0569
17475TIP3    H273841   0.237   1.786   1.328  0.9893 -0.3228  0.5868
17476TIP3   OH273842   3.337   1.033   2.332 -0.7610  0.2282 -0.2145
17476TIP3    H173843   3.385   0.956   2.362 -0.5681  0.0267 -1.0305
17476TIP3    H273844   3.393   1.107   2.355 -0.3498  0.0364 -0.5979
17477TIP3   OH273845   4.981   4.335   3.403 -0.3971  0.3992  0.1306
17477TIP3    H173846   4.912   4.398   3.424 -0.7103  0.2881 -0.5628
17477TIP3    H273847   4.948   4.252   3.436 -0.6201  0.3371 -0.2465
17478TIP3   OH273848   5.067   2.637  13.678  0.1727  0.2604  0.7068
17478TIP3    H173849   5.132   2.652  13.609  0.3169  0.3321  0.8565
17478TIP3    H273850   5.094   2.554  13.718  1.3626  1.3065  2.0999
17479TIP3   OH273851   0.769   2.123  16.731 -0.3616  0.4073  0.1649
17479TIP3    H173852   0.706   2.188  16.699  0.3886  1.4374  0.7216
17479TIP3    H273853   0.735   2.039  16.702 -1.2861  1.0700 -0.6885
17480TIP3   OH273854   3.816   6.706  11.444 -0.1969  0.0990  0.1623
17480TIP3    H173855   3.756   6.634  11.464  1.2445 -0.5475  2.3408
17480TIP3    H273856   3.833   6.697  11.350 -0.1907 -2.3279  0.3578
17481TIP3   OH273857   0.263   5.147  15.782 -0.3392  0.4741 -0.5247
17481TIP3    H173858   0.307   5.110  15.859 -1.7219 -0.4044 -0.1485
17481TIP3    H273859   0.305   5.103  15.707 -0.7881 -0.5904 -0.1557
17482TIP3   OH273860   0.632   1.730  12.277 -0.2887  0.0349  0.1639
17482TIP3    H173861   0.629   1.680  12.358 -0.6080  1.9859  1.4022
17482TIP3    H273862   0.637   1.822  12.305  0.3016  0.7182 -2.0171
17483TIP3   OH273863   0.029   4.006   0.421 -0.0881  0.1184 -0.1382
17483TIP3    H173864   0.108   4.021   0.473  0.1393  2.0654 -0.9920
17483TIP3    H273865   0.062   3.990   0.332 -0.6598  1.5417 -0.6243
17484TIP3   OH273866   2.111   4.596   0.830  0.1211 -0.1989  0.1855
17484TIP3    H173867   2.167   4.660   0.785  2.9080 -2.0902  0.8344
17484TIP3    H273868   2.066   4.550   0.759  0.1594  0.6321 -0.3932
17485TIP3   OH273869   0.777   0.377   0.592 -0.0339 -0.0521 -0.0330
17485TIP3    H173870   0.779   0.457   0.643  1.0583 -0.1302  0.0531
17485TIP3    H273871   0.869   0.352   0.581 -0.1229  0.7062 -3.2104
17486TIP3   OH273872   6.619   0.888  11.108 -0.2547  0.3322  0.3900
17486TIP3    H173873   6.676   0.813  11.123 -0.0396 -0.1194 -2.4196
17486TIP3    H273874   6.530   0.852  11.114 -0.1582 -0.6566 -2.8848
17487TIP3   OH273875   1.471   3.927   0.111 -0.5753 -0.2171 -0.5739
17487TIP3    H173876   1.377   3.924   0.129 -0.3822  2.5528  1.1180
17487TIP3    H273877   1.477   3.958   0.020 -1.3099 -1.2031 -0.9586
17488TIP3   OH273878   0.032   0.848  13.524 -0.0468  0.1898 -0.1828
17488TIP3    H173879  -0.002   0.937  13.525  0.0035  0.2062  1.6904
17488TIP3    H273880  -0.046   0.793  13.514 -0.1616  0.4187 -0.5359
17489TIP3   OH273881   0.399   2.938   0.691 -0.4519 -0.2880 -0.3490
17489TIP3    H173882   0.444   2.968   0.612 -1.4258 -0.2817 -0.9045
17489TIP3    H273883   0.458   2.873   0.729  0.7449  0.8397 -0.2248
17490TIP3   OH273884   5.817   1.094   4.673 -0.2051 -0.0658 -0.1545
17490TIP3    H173885   5.830   1.039   4.751 -1.8878  0.4486  0.5193
17490TIP3    H273886   5.856   1.178   4.697 -0.7473  0.1015  0.1787
17491TIP3   OH273887   3.840   0.698   4.976  0.0047  0.2340 -0.6227
17491TIP3    H173888   3.828   0.690   5.070 -0.1907 -0.4554 -0.7047
17491TIP3    H273889   3.792   0.777   4.953 -1.3036 -0.4722 -0.3779
17492TIP3   OH273890   0.885   5.727  15.261  0.0253  0.3141 -0.4480
17492TIP3    H173891   0.860   5.735  15.353  0.0086 -1.9492 -0.2328
17492TIP3    H273892   0.842   5.801  15.218 -4.4482 -1.5710  0.4993
17493TIP3   OH273893   3.583   5.193   1.718  0.1140  0.2453 -0.4400
17493TIP3    H173894   3.616   5.109   1.751  0.0808 -0.2238 -1.5780
17493TIP3    H273895   3.506   5.169   1.666 -0.3153  1.0553 -0.1744
17494TIP3   OH273896   3.820   5.484  14.486  0.0059 -0.3260 -0.3871
17494TIP3    H173897   3.838   5.465  14.394 -0.8300  0.9824 -0.8303
17494TIP3    H273898   3.752   5.422  14.511 -0.1277 -0.3471 -0.8000
17495TIP3   OH273899   5.682   4.386  13.783  0.1312  0.1284 -0.0353
17495TIP3    H173900   5.603   4.440  13.775  0.3917  0.3350 -1.2466
17495TIP3    H273901   5.654   4.311  13.836 -1.1789 -0.3688 -1.3869
17496TIP3   OH273902   0.951   3.779  11.711 -0.6222 -0.8347  0.3587
17496TIP3    H173903   0.949   3.801  11.804  0.5763  1.1835 -0.0748
17496TIP3    H273904   1.030   3.727  11.699 -0.0620  0.0436  0.2300
17497TIP3   OH273905   4.819   4.978   5.933  0.1367  0.3649 -0.1234
17497TIP3    H173906   4.761   5.050   5.907 -0.1969  1.0710  2.4229
17497TIP3    H273907   4.899   5.022   5.964  0.8581 -0.4670 -0.7812
17498TIP3   OH273908   1.816   6.020  15.922 -0.1575  1.0402  0.0829
17498TIP3    H173909   1.837   5.929  15.898 -1.2966  0.8031 -0.0574
17498TIP3    H273910   1.776   6.013  16.009  1.2174  1.5793  0.7564
17499TIP3   OH273911   6.308   5.060  14.334  0.3194  0.4998  0.3703
17499TIP3    H173912   6.316   4.966  14.323 -1.0496  0.7072 -3.0964
17499TIP3    H273913   6.215   5.074  14.354  0.2772  1.1785 -0.2687
17500TIP3   OH273914   0.199   2.398  12.973  0.5229 -0.2034  0.2883
17500TIP3    H173915   0.184   2.308  12.944  1.0242 -0.3910  0.5950
17500TIP3    H273916   0.120   2.422  13.021  0.9948 -1.0052  1.4866
17501TIP3   OH273917   3.476   3.353   0.245 -0.6711 -0.2135 -0.6608
17501TIP3    H173918   3.566   3.385   0.248 -0.2840 -1.2883 -0.9132
17501TIP3    H273919   3.430   3.409   0.308  0.4428 -0.5189  0.4509
17502TIP3   OH273920   5.169   3.716  16.534 -0.0223  0.3800 -0.3172
17502TIP3    H173921   5.146   3.625  16.555 -1.5808  0.0202 -3.2498
17502TIP3    H273922   5.261   3.724  16.560 -0.4720 -1.3475  2.0158
17503TIP3   OH273923   3.821   6.596  16.342 -0.1127  0.3360 -0.8955
17503TIP3    H173924   3.905   6.583  16.386 -1.1809 -1.4872  0.7007
17503TIP3    H273925   3.765   6.636  16.408 -0.8524  0.4139 -1.5552
17504TIP3   OH273926   2.285   0.654   5.511 -0.0613  0.4465 -0.9709
17504TIP3    H173927   2.275   0.681   5.602 -1.7320  0.5909 -1.1753
17504TIP3    H273928   2.279   0.558   5.513 -0.1540  0.4533 -0.9395
17505TIP3   OH273929   5.814   2.835   1.970  1.0439  0.1099 -0.5205
17505TIP3    H173930   5.815   2.894   2.046  1.0073  0.6608 -0.9462
17505TIP3    H273931   5.735   2.782   1.982  0.4070  0.9919 -0.7729
17506TIP3   OH273932   4.311   5.947   5.975 -0.8395  0.1550 -0.2985
17506TIP3    H173933   4.246   5.880   5.996 -1.8325  1.8643  2.2426
17506TIP3    H273934   4.264   6.030   5.984  1.1717  1.3435 -0.4271
17507TIP3   OH273935   1.273   1.345   3.934 -0.4461 -0.3578 -1.4143
17507TIP3    H173936   1.230   1.301   3.860 -1.3369 -1.5285 -0.2221
17507TIP3    H273937   1.263   1.438   3.916  2.4667 -0.5561 -4.5880
17508TIP3   OH273938   1.595   3.360  14.359 -0.2524  0.5747 -0.7670
17508TIP3    H173939   1.526   3.403  14.307 -3.0083  0.0670  2.3134
17508TIP3    H273940   1.643   3.433  14.398  0.4229  0.9179 -2.1870
17509TIP3   OH273941   1.844   4.412   9.918 -0.3554 -0.2540 -0.2071
17509TIP3    H173942   1.814   4.502   9.930  0.5141  0.0311 -0.1189
17509TIP3    H273943   1.792   4.361   9.979 -0.4884  0.2686  0.1208
17510TIP3   OH273944   5.355   4.915   3.163 -0.2655 -0.3254  0.1543
17510TIP3    H173945   5.304   4.873   3.232 -1.7690 -0.6842 -1.1645
17510TIP3    H273946   5.326   5.006   3.164  1.0053  0.1007  1.1529
17511TIP3   OH273947   0.066   6.296  16.681 -0.6192  0.6677 -0.0172
17511TIP3    H173948   0.092   6.205  16.691 -2.4657  0.1014 -0.1981
17511TIP3    H273949   0.011   6.314  16.757 -2.6676  0.7327 -1.4868
17512TIP3   OH273950   3.750   6.718   3.842  0.0324  0.5629  0.5490
17512TIP3    H173951   3.799   6.776   3.900 -0.0342  1.4551 -0.2862
17512TIP3    H273952   3.687   6.674   3.899  1.5895 -0.3733  1.5771
17513TIP3   OH273953   1.402   5.361  11.282 -0.6983  0.1365 -0.1775
17513TIP3    H173954   1.358   5.420  11.342  0.1591  1.5296 -0.9005
17513TIP3    H273955   1.433   5.417  11.210  2.2835 -0.7275  0.3388
17514TIP3   OH273956   6.765   4.572  11.307  0.0690 -0.8113  0.3788
17514TIP3    H173957   6.740   4.504  11.244 -1.0494  0.7032 -0.8346
17514TIP3    H273958   6.685   4.620  11.325  1.3544  1.9262 -0.8847
17515TIP3   OH273959   4.747   2.291  13.838  0.3131  0.0437  0.6461
17515TIP3    H173960   4.665   2.257  13.802  0.1506  0.4886  0.5922
17515TIP3    H273961   4.784   2.344  13.768  0.7706 -0.3559  0.5858
17516TIP3   OH273962   0.756   0.760  12.514 -0.1932  0.1260 -0.4730
17516TIP3    H173963   0.778   0.849  12.487 -0.9632  0.4760  0.0185
17516TIP3    H273964   0.669   0.769  12.554 -0.7085 -1.0098 -1.3283
17517TIP3   OH273965   3.718   5.699   3.105 -0.5934  0.5290  0.0945
17517TIP3    H173966   3.739   5.743   3.187 -0.7917 -0.3013  0.5971
17517TIP3    H273967   3.644   5.748   3.070 -1.0529  0.3789  0.8387
17518TIP3   OH273968   6.257   4.148  12.560 -0.0199  0.1296  0.0195
17518TIP3    H173969   6.320   4.217  12.540 -1.0060  1.3385  1.0301
17518TIP3    H273970   6.173   4.194  12.570 -0.3218 -0.9259  2.7453
17519TIP3   OH273971   3.794   2.578  16.968 -0.5944 -0.1020  0.0922
17519TIP3    H173972   3.715   2.599  17.018 -1.3135 -1.2879 -0.5035
17519TIP3    H273973   3.857   2.646  16.992 -0.9182 -0.6485  2.6098
17520TIP3   OH273974   5.286   4.952   1.880  0.0745  0.2652 -0.1979
17520TIP3    H173975   5.353   4.885   1.871 -0.7320 -0.6174  0.3481
17520TIP3    H273976   5.328   5.020   1.933  0.3325 -0.5602  0.6674
17521TIP3   OH273977   0.097   4.274   2.332  0.5533  0.0050 -0.1285
17521TIP3    H173978   0.092   4.184   2.299  0.0013 -0.2749  0.6978
17521TIP3    H273979   0.054   4.270   2.418 -2.0707  1.6144 -1.2829
17522TIP3   OH273980   3.948   1.782   1.855 -0.0438 -0.1374 -0.3054
17522TIP3    H173981   3.983   1.713   1.912 -2.1280 -0.0992  1.0618
17522TIP3    H273982   3.952   1.861   1.909 -0.6720  0.1843 -0.7313
17523TIP3   OH273983   6.233   2.906  11.235  0.1063 -0.8043  0.1335
17523TIP3    H173984   6.277   2.827  11.266  0.5260 -0.1089  1.3048
17523TIP3    H273985   6.155   2.913  11.290  0.2754 -0.1767  0.2922
17524TIP3   OH273986   4.036   6.185   2.454 -0.5550 -0.5127  0.4422
17524TIP3    H173987   4.020   6.208   2.546  1.4225 -1.4802  1.0713
17524TIP3    H273988   4.068   6.095   2.458  0.2378 -0.3147 -1.1260
17525TIP3   OH273989   5.761   6.087   3.010  0.6765 -0.2132  0.0838
17525TIP3    H173990   5.723   6.158   2.958  0.3195  1.0904  2.0633
17525TIP3    H273991   5.735   6.107   3.100 -1.4381 -4.1408  0.4335
17526TIP3   OH273992   5.623   4.464   1.892 -0.0153 -0.1857  0.3486
17526TIP3    H173993   5.682   4.539   1.884  0.3289 -0.3648  1.1381
17526TIP3    H273994   5.538   4.497   1.862  0.2780  0.3296  0.0702
17527TIP3   OH273995   6.133   4.571   5.027  0.3875  0.3645 -0.3311
17527TIP3    H173996   6.159   4.509   5.095  0.0968  1.8196  1.1296
17527TIP3    H273997   6.039   4.554   5.013  0.6945 -0.6870 -1.1850
17528TIP3   OH273998   6.277   4.406   3.724  0.0383  0.7754 -0.1789
17528TIP3    H173999   6.352   4.411   3.783 -1.6236  0.2978  2.0385
17528TIP3    H274000   6.315   4.410   3.636  2.7344 -0.5449  0.8847
17529TIP3   OH274001   2.055   6.147  14.944  0.4899 -0.3059  0.2762
17529TIP3    H174002   2.047   6.095  14.864  2.5304 -0.5610  0.2280
17529TIP3    H274003   2.129   6.110  14.991  0.6722  1.2255  1.2618
17530TIP3   OH274004   0.258   6.067   5.264 -0.7437 -0.5290 -0.1473
17530TIP3    H174005   0.216   6.153   5.269 -0.2127 -0.3474  1.3048
17530TIP3    H274006   0.320   6.074   5.192 -0.1925  0.5205  0.4343
17531TIP3   OH274007   6.511   3.372   0.027 -0.2432 -1.0135 -0.1691
17531TIP3    H174008   6.438   3.431   0.043  0.2882 -0.8169  1.5665
17531TIP3    H274009   6.490   3.294   0.079  0.4331 -1.2371 -0.2355
17532TIP3   OH274010   3.317   0.961  10.857  0.3521 -0.5210  0.4384
17532TIP3    H174011   3.399   1.000  10.826 -0.1859 -0.3497 -0.7691
17532TIP3    H274012   3.281   1.027  10.916  0.2564  0.1281 -0.3328
17533TIP3   OH274013   2.678   6.257   2.334 -0.1209 -0.4524 -0.1370
17533TIP3    H174014   2.587   6.227   2.336  0.2482 -1.5752  0.2379
17533TIP3    H274015   2.704   6.262   2.426 -0.6888  2.7062 -0.0960
17534TIP3   OH274016   3.999   4.071   0.419  0.5669 -0.1522 -0.5296
17534TIP3    H174017   4.083   4.116   0.410 -0.0958  0.9826 -1.1270
17534TIP3    H274018   3.986   4.027   0.335 -0.1580  0.9381 -0.9930
17535TIP3   OH274019   4.761   4.237   2.449 -0.3911  0.3698  0.6932
17535TIP3    H174020   4.776   4.331   2.461  1.9490  0.1778 -0.3030
17535TIP3    H274021   4.848   4.198   2.462 -0.9771 -1.4434 -0.7143
17536TIP3   OH274022   2.363   0.722   1.881  0.4477  0.3065 -0.7393
17536TIP3    H174023   2.292   0.762   1.831 -1.5414 -1.4481  0.6202
17536TIP3    H274024   2.385   0.642   1.832  0.1829 -0.1318 -0.1439
17537TIP3   OH274025   5.688   2.737  13.969 -0.0072  0.1547  0.2294
17537TIP3    H174026   5.759   2.775  14.020  2.5020 -1.4555 -1.9276
17537TIP3    H274027   5.682   2.646  13.999 -2.8837  0.9058  2.1420
17538TIP3   OH274028   2.826   6.442   5.412 -0.7063 -0.5266 -0.3480
17538TIP3    H174029   2.909   6.424   5.368  0.9443 -0.2464  2.5121
17538TIP3    H274030   2.779   6.359   5.409 -0.1077 -0.8437 -1.4869
17539TIP3   OH274031   6.092   5.437  12.024 -0.2861  0.0978  0.5950
17539TIP3    H174032   6.184   5.412  12.016  0.6947  2.9520  2.5021
17539TIP3    H274033   6.068   5.413  12.114 -1.6213 -1.1818 -0.0735
17540TIP3   OH274034   3.508   5.296   3.668 -0.2193 -0.2742 -0.3821
17540TIP3    H174035   3.582   5.239   3.644  1.7736  1.2919  1.7770
17540TIP3    H274036   3.468   5.253   3.743  0.2941  0.3197  0.2403
17541TIP3   OH274037   5.029   2.432   0.393 -0.5456  0.4236 -0.6919
17541TIP3    H174038   5.095   2.386   0.341 -2.2250 -0.8997 -1.6710
17541TIP3    H274039   5.048   2.525   0.378  1.7690  0.0887 -0.0881
17542TIP3   OH274040   2.715   4.756   5.188 -0.0167  0.7089 -0.0240
17542TIP3    H174041   2.702   4.795   5.102  0.2782  0.8651  0.0034
17542TIP3    H274042   2.711   4.829   5.249  0.6014  0.7004  0.0203
17543TIP3   OH274043   2.168   3.531  13.276 -0.3161 -0.0758  0.2657
17543TIP3    H174044   2.112   3.478  13.220 -0.5744  0.5807 -0.1031
17543TIP3    H274045   2.207   3.469  13.338 -0.3665 -0.7350 -0.3627
17544TIP3   OH274046   3.490   1.289   3.732  0.5121  0.0078  0.1656
17544TIP3    H174047   3.494   1.324   3.821  0.4297  1.2526 -0.3094
17544TIP3    H274048   3.541   1.208   3.736 -1.8058 -1.4248  2.0016
17545TIP3   OH274049   5.495   2.449  16.827 -0.4867 -0.0923 -0.0714
17545TIP3    H174050   5.399   2.448  16.826 -0.4916  0.5001 -0.4507
17545TIP3    H274051   5.518   2.537  16.799  0.1898 -0.9052 -2.1502
17546TIP3   OH274052   3.072   3.114   4.416  0.6522 -0.2859  0.2939
17546TIP3    H174053   3.133   3.113   4.490  2.5713 -1.7228 -1.2551
17546TIP3    H274054   3.046   3.022   4.405  0.1271 -0.0347 -0.6201
17547TIP3   OH274055   3.367   6.255   1.165  0.0098 -0.2590 -0.0521
17547TIP3    H174056   3.299   6.192   1.188  0.3402  0.7713  4.0246
17547TIP3    H274057   3.377   6.310   1.242  1.8501  2.9422 -2.4423
17548TIP3   OH274058   1.845   6.407  12.517  0.0820 -0.1723  0.2475
17548TIP3    H174059   1.908   6.354  12.469  0.5561  2.0181 -1.6182
17548TIP3    H274060   1.897   6.479  12.552 -0.9297  0.2011  0.9919
17549TIP3   OH274061   4.352   5.850   2.025  0.0476 -0.3920 -0.1867
17549TIP3    H174062   4.288   5.779   2.029 -1.4397  0.9818  1.2834
17549TIP3    H274063   4.337   5.893   1.941  0.0827 -1.0207 -0.5113
17550TIP3   OH274064   0.586   3.981   1.656  0.2504  0.2915  0.2848
17550TIP3    H174065   0.616   3.891   1.645  0.4114  0.1206  1.9708
17550TIP3    H274066   0.665   4.030   1.680 -0.1223  0.5652  0.9682
17551TIP3   OH274067   1.706   3.709  17.165 -0.0523 -0.4332 -0.3726
17551TIP3    H174068   1.618   3.670  17.167 -0.9552  1.2504 -3.5054
17551TIP3    H274069   1.721   3.737  17.255 -3.1053  0.0028  0.0820
17552TIP3   OH274070   4.605   5.463  16.155  0.1263 -0.6745  0.1653
17552TIP3    H174071   4.573   5.525  16.221 -0.1305 -0.9397  0.2961
17552TIP3    H274072   4.549   5.386  16.167 -0.0474 -0.6550 -0.4938
17553TIP3   OH274073   1.839   0.652  16.522 -0.0737  0.3730 -0.4725
17553TIP3    H174074   1.931   0.648  16.549  0.6335 -0.5168 -2.8566
17553TIP3    H274075   1.836   0.720  16.455 -1.1709  0.3669 -0.4438
17554TIP3   OH274076   3.513   0.997   4.563  0.0650 -0.5091 -0.2499
17554TIP3    H174077   3.482   0.984   4.473 -1.2505 -0.1498  0.1552
17554TIP3    H274078   3.460   0.938   4.616 -1.3065  1.5114  0.6982
17555TIP3   OH274079   2.278   3.224   5.277  0.4030 -0.8310  0.0575
17555TIP3    H174080   2.293   3.277   5.198 -1.1989 -0.4992 -0.0436
17555TIP3    H274081   2.357   3.171   5.285  1.1306  0.0427 -1.0551
17556TIP3   OH274082   0.194   4.688  12.167 -0.0571 -0.5920 -0.0057
17556TIP3    H174083   0.260   4.731  12.113  0.4874  0.5229  1.5024
17556TIP3    H274084   0.138   4.759  12.197  0.6422 -0.9601  2.2333
17557TIP3   OH274085   2.487   3.376   0.133 -0.0092  0.2276  0.3397
17557TIP3    H174086   2.558   3.403   0.191 -0.0489  1.3761 -0.1464
17557TIP3    H274087   2.411   3.427   0.161 -0.5648 -0.7556  0.6440
17558TIP3   OH274088   0.396   2.921   4.258  0.0796  0.0075 -0.2714
17558TIP3    H174089   0.474   2.974   4.239 -0.3373  0.4781 -0.6649
17558TIP3    H274090   0.426   2.831   4.249  0.6612  0.1817 -0.1137
17559TIP3   OH274091   4.794   2.648  12.645 -0.4466 -0.4276 -0.6394
17559TIP3    H174092   4.723   2.594  12.609 -1.4059  0.4984 -0.1667
17559TIP3    H274093   4.848   2.587  12.694 -0.5022 -1.2767 -1.6096
17560TIP3   OH274094   2.755   0.575  15.046 -0.2560  0.5839 -0.1311
17560TIP3    H174095   2.699   0.500  15.067  0.4987  0.4850  1.7251
17560TIP3    H274096   2.843   0.537  15.038  0.1704  1.2812  1.0724
17561TIP3   OH274097   3.503   6.152  14.415 -0.2857 -0.3009  0.5230
17561TIP3    H174098   3.410   6.130  14.418 -0.2777 -0.2237  1.5069
17561TIP3    H274099   3.545   6.089  14.474  0.5866 -1.7594 -1.5745
17562TIP3   OH274100   0.597   6.773  15.449 -0.3029 -0.4078  0.2945
17562TIP3    H174101   0.595   6.705  15.382 -0.8055 -1.5198  1.4262
17562TIP3    H274102   0.679   6.820  15.432 -0.6199 -0.4241 -1.3316
17563TIP3   OH274103   6.650   4.391  14.783  0.4162  0.5116 -0.0242
17563TIP3    H174104   6.656   4.451  14.708 -0.4345  1.1453  0.4054
17563TIP3    H274105   6.739   4.358  14.794  0.6053  0.6019 -1.1623
17564TIP3   OH274106   5.002   0.405  13.201 -0.1842  0.0732 -0.1218
17564TIP3    H174107   4.929   0.343  13.190 -0.2540  0.4022 -1.7488
17564TIP3    H274108   4.960   0.489  13.221 -0.1677 -0.0963  0.6154
17565TIP3   OH274109   0.139   5.952  16.219  0.0590 -0.2172  0.4019
17565TIP3    H174110   0.097   6.021  16.167 -1.1795  0.3230  2.0819
17565TIP3    H274111   0.078   5.878  16.213  0.6719 -0.6836 -0.1724
17566TIP3   OH274112   3.721   6.582   1.216  0.2337  0.1961 -0.1659
17566TIP3    H174113   3.742   6.489   1.207 -1.5037 -0.0851 -1.5580
17566TIP3    H274114   3.762   6.608   1.298  0.5307 -1.8659  0.3605
17567TIP3   OH274115   1.772   5.411   0.470  0.3852  0.2711 -0.0011
17567TIP3    H174116   1.866   5.413   0.455  0.1133  0.6831 -1.7899
17567TIP3    H274117   1.744   5.502   0.457 -0.7975 -0.5011 -3.3987
17568TIP3   OH274118   3.372   2.916  13.102  0.4024  0.3156 -0.2404
17568TIP3    H174119   3.286   2.943  13.069  0.2497 -1.1756 -1.1102
17568TIP3    H274120   3.418   2.998  13.119 -0.2339  1.1574 -2.3677
17569TIP3   OH274121   4.046   1.081  11.798  0.2735 -0.1871  0.0626
17569TIP3    H174122   4.074   1.171  11.817 -1.2273  0.2722  0.1794
17569TIP3    H274123   4.085   1.062  11.713 -0.2469  0.9695 -0.4561
17570TIP3   OH274124   0.665   2.077   6.620  0.5121  0.3626 -0.1036
17570TIP3    H174125   0.736   2.127   6.662  1.0393  0.0321 -0.5936
17570TIP3    H274126   0.695   2.064   6.530  1.0848 -2.1516  0.4256
17571TIP3   OH274127   2.660   4.223  11.731 -0.3691 -0.0025  0.3305
17571TIP3    H174128   2.754   4.212  11.744  0.1795  0.1495 -3.0553
17571TIP3    H274129   2.627   4.133  11.723 -0.4165 -0.0412  0.9716
17572TIP3   OH274130   1.858   0.657  16.929  0.0006  0.1245 -0.2780
17572TIP3    H174131   1.824   0.690  17.012 -0.5962 -0.0584 -0.4475
17572TIP3    H274132   1.792   0.682  16.864  1.2128  1.6659 -0.9527
17573TIP3   OH274133   6.182   6.213  14.881  0.0739  0.2839  0.1312
17573TIP3    H174134   6.102   6.205  14.934 -0.1299  1.3039 -0.0074
17573TIP3    H274135   6.224   6.128  14.889 -0.7310 -0.0762  0.6946
17574TIP3   OH274136   1.643   5.380  14.474  0.5154  0.4426  0.4046
17574TIP3    H174137   1.687   5.447  14.527 -1.1779 -0.4580  3.0246
17574TIP3    H274138   1.550   5.398  14.484  0.1269  0.2215 -2.3137
17575TIP3   OH274139   4.677   2.106  12.624 -0.1860 -0.5017 -0.4543
17575TIP3    H174140   4.742   2.144  12.566 -0.3582  1.1689  0.4067
17575TIP3    H274141   4.601   2.090  12.568 -0.6451  1.8543 -0.5773
17576TIP3   OH274142   4.530   6.558   1.349  0.0274 -0.7839  0.8483
17576TIP3    H174143   4.592   6.562   1.422 -0.1241 -1.1908  1.0000
17576TIP3    H274144   4.474   6.483   1.369 -2.5039  1.4036  2.3007
17577TIP3   OH274145   4.735   5.566   2.062 -0.6744  0.3422 -0.1489
17577TIP3    H174146   4.731   5.490   2.003 -1.2863 -0.8273  1.3515
17577TIP3    H274147   4.651   5.565   2.107  0.8845 -0.5610  2.8707
17578TIP3   OH274148   4.948   2.212   0.554  0.0071 -0.1460 -0.7935
17578TIP3    H174149   4.971   2.291   0.506 -0.1090  0.3401 -0.0590
17578TIP3    H274150   4.964   2.235   0.646  1.8017 -1.5791 -0.7093
17579TIP3   OH274151   6.070   2.362   0.626  0.2684 -0.2869 -0.1951
17579TIP3    H174152   6.158   2.399   0.631  0.5049 -1.0029  1.0147
17579TIP3    H274153   6.083   2.267   0.628 -0.4816 -0.4060 -0.8503
17580TIP3   OH274154   6.780   2.720  13.003  0.1370  0.1274 -0.3769
17580TIP3    H174155   6.843   2.777  13.046 -1.7025  2.5877 -0.7998
17580TIP3    H274156   6.712   2.704  13.069 -0.3357  0.0536 -0.8725
17581TIP3   OH274157   4.123   6.381  13.077  0.4916 -0.2569  0.6963
17581TIP3    H174158   4.070   6.454  13.047  1.0486 -0.1199  0.0301
17581TIP3    H274159   4.173   6.417  13.151  0.8286  0.0721  0.3173
17582TIP3   OH274160   4.372   2.341   5.427  0.4272  0.7283  0.0503
17582TIP3    H174161   4.298   2.350   5.368 -0.3720  0.4111  0.9847
17582TIP3    H274162   4.409   2.430   5.434  0.0077  0.9240 -0.2534
17583TIP3   OH274163   0.617   2.594   2.624 -0.5216  1.0815 -0.0329
17583TIP3    H174164   0.533   2.603   2.578 -0.3532 -1.0990 -0.8390
17583TIP3    H274165   0.595   2.544   2.703 -0.1870  1.6057  0.3898
17584TIP3   OH274166   3.867   2.608  11.877 -0.6265  0.7952 -0.5551
17584TIP3    H174167   3.877   2.547  11.804 -2.1792  1.3845 -1.2836
17584TIP3    H274168   3.773   2.619  11.887 -0.4410  0.5920  1.6746
17585TIP3   OH274169   1.347   0.307  15.594  0.6117  0.2776  0.3635
17585TIP3    H174170   1.327   0.395  15.562  0.8534 -0.2461 -1.2529
17585TIP3    H274171   1.311   0.248  15.527 -1.1472 -0.9146  2.2773
17586TIP3   OH274172   0.689   5.869   5.636 -0.0050 -0.1489  0.3352
17586TIP3    H174173   0.678   5.776   5.659 -1.3402 -0.9203 -3.1800
17586TIP3    H274174   0.779   5.876   5.606 -0.1564 -0.4831 -0.1950
17587TIP3   OH274175   0.382   2.526   2.449  0.4051 -0.0812 -0.2948
17587TIP3    H174176   0.365   2.501   2.358 -0.3897  0.1047 -0.1966
17587TIP3    H274177   0.388   2.621   2.447  1.2722 -0.1330 -0.3007
17588TIP3   OH274178   2.990   3.389  17.226  0.5278 -0.1056 -0.0235
17588TIP3    H174179   3.026   3.366  17.140  0.8932 -0.5381  0.2435
17588TIP3    H274180   2.914   3.443  17.206  3.0477  3.4153 -0.5504
17589TIP3   OH274181   5.448   0.947  12.709  0.9026  0.2449 -0.0685
17589TIP3    H174182   5.394   0.871  12.688  2.2924 -0.5163 -0.9688
17589TIP3    H274183   5.512   0.951  12.638  0.9812  2.1315  0.0954
17590TIP3   OH274184   3.650   0.671   2.174  0.0962 -0.0622 -0.3516
17590TIP3    H174185   3.575   0.664   2.115 -1.8860 -0.8963  2.1491
17590TIP3    H274186   3.719   0.620   2.131 -1.5880 -1.4560 -1.5033
17591TIP3   OH274187   0.597   2.721  11.954 -0.7470 -0.0001 -0.8061
17591TIP3    H174188   0.532   2.680  12.012 -0.8948 -0.7822 -1.5250
17591TIP3    H274189   0.600   2.665  11.877 -1.4981  1.7345 -2.1301
17592TIP3   OH274190   3.459   3.501   2.673  0.6180  0.2551  0.8820
17592TIP3    H174191   3.544   3.516   2.632  0.5747  0.8325  1.0010
17592TIP3    H274192   3.402   3.477   2.600  0.9940 -0.5871  0.8669
17593TIP3   OH274193   5.728   3.477  13.053  0.3528 -0.5533 -0.8837
17593TIP3    H174194   5.754   3.454  13.143 -2.0828 -0.5111 -0.1497
17593TIP3    H274195   5.684   3.561  13.062 -2.2183 -1.7628 -1.7101
17594TIP3   OH274196   4.297   5.440  17.144 -0.1695 -0.3145  0.0365
17594TIP3    H174197   4.389   5.464  17.152 -0.3994  1.0595 -1.2033
17594TIP3    H274198   4.262   5.450  17.232  1.2196 -2.4904  0.8922
17595TIP3   OH274199   0.586   4.112  13.457 -0.1089  0.0429 -0.0146
17595TIP3    H174200   0.677   4.098  13.431 -0.1141  0.7031 -0.3966
17595TIP3    H274201   0.546   4.159  13.383 -0.6443  0.1381  0.3286
17596TIP3   OH274202   3.693   3.912  11.121 -0.2386 -0.0045 -0.1071
17596TIP3    H174203   3.752   3.985  11.100 -0.4316 -0.1090 -1.0718
17596TIP3    H274204   3.605   3.950  11.115 -0.2741  0.1842  1.4632
17597TIP3   OH274205   5.664   4.884   3.213 -0.3186 -0.2961  0.0528
17597TIP3    H174206   5.576   4.919   3.203 -0.7576 -1.3752  0.0410
17597TIP3    H274207   5.651   4.798   3.255  0.6182 -1.0519 -1.1849
17598TIP3   OH274208   6.009   4.223  11.894  0.2886 -0.2685  0.6814
17598TIP3    H174209   5.914   4.237  11.894  0.3483  0.2985  2.5727
17598TIP3    H274210   6.026   4.173  11.815 -1.3677  1.1991 -0.6525
17599TIP3   OH274211   2.633   2.066  14.270  0.5828 -0.1462 -0.4813
17599TIP3    H174212   2.594   2.121  14.202  0.4985 -0.0174 -0.3299
17599TIP3    H274213   2.721   2.046  14.236  0.7283  0.3328 -0.4029
17600TIP3   OH274214   1.915   5.935   6.749  0.2968 -0.0945  0.5769
17600TIP3    H174215   1.906   5.981   6.666  1.6739  0.4832  0.7416
17600TIP3    H274216   1.825   5.921   6.779 -0.1893  0.0851 -0.7919
17601TIP3   OH274217   0.736   2.303  11.325 -0.1225 -0.4595 -0.3091
17601TIP3    H174218   0.665   2.282  11.385 -0.6119 -0.4680 -0.8819
17601TIP3    H274219   0.692   2.322  11.242  0.6036 -1.4909 -0.9491
17602TIP3   OH274220   0.282   0.125  15.163  0.2356 -0.1508 -0.3567
17602TIP3    H174221   0.249   0.183  15.094 -1.3488  0.0118  0.5204
17602TIP3    H274222   0.309   0.184  15.233  3.2672 -0.2277 -1.3823
17603TIP3   OH274223   1.805   0.085   1.619  0.0822 -0.0757  0.3750
17603TIP3    H174224   1.854   0.072   1.538 -0.1499 -2.7157  0.6052
17603TIP3    H274225   1.719   0.116   1.591  0.7278  1.1332 -0.2499
17604TIP3   OH274226   3.269   2.618   4.317 -0.4773 -0.4512 -0.5902
17604TIP3    H174227   3.255   2.526   4.293  0.6707 -0.6900 -0.3776
17604TIP3    H274228   3.224   2.628   4.400 -2.5127 -0.2244 -1.6782
17605TIP3   OH274229   4.232   0.419   3.658  0.9174 -0.7115 -0.3845
17605TIP3    H174230   4.298   0.449   3.595 -0.6303 -0.4256 -1.8748
17605TIP3    H274231   4.190   0.345   3.616  0.4424 -1.0525  0.6710
17606TIP3   OH274232   4.283   0.579   0.556  0.1675 -0.0950 -0.0270
17606TIP3    H174233   4.358   0.557   0.612  0.0550 -0.5679 -0.0619
17606TIP3    H274234   4.247   0.494   0.529 -1.6430  0.1185  1.6572
17607TIP3   OH274235   0.802   4.182  12.182  0.0027 -0.0351  0.3523
17607TIP3    H174236   0.782   4.170  12.275 -0.3912 -2.3965 -0.0148
17607TIP3    H274237   0.766   4.269  12.161 -1.3540 -0.1647  2.0202
17608TIP3   OH274238   4.492   1.479  11.347  0.2567 -0.2840 -0.0390
17608TIP3    H174239   4.557   1.465  11.416 -0.8989 -0.9940  0.9282
17608TIP3    H274240   4.520   1.559  11.303  1.2921 -0.1121  0.9288
17609TIP3   OH274241   5.676   5.178   4.289 -0.3355  0.0133  0.1280
17609TIP3    H174242   5.624   5.216   4.219 -1.2171  0.2398  0.9012
17609TIP3    H274243   5.682   5.247   4.355  0.9895  0.0123  0.0382
17610TIP3   OH274244   4.978   4.737   2.462 -0.0440  0.2721  0.0071
17610TIP3    H174245   4.885   4.720   2.444 -0.3788  2.5340 -0.5460
17610TIP3    H274246   4.979   4.823   2.504  1.7373 -0.1566  0.8741
17611TIP3   OH274247   4.749   5.794   1.724  0.2329 -0.2032  0.3589
17611TIP3    H174248   4.762   5.837   1.808 -0.5022 -1.3628  1.0767
17611TIP3    H274249   4.791   5.709   1.734 -0.8316 -0.7862 -0.0584
17612TIP3   OH274250   6.332   4.787  14.237  0.2584 -0.0803 -0.0832
17612TIP3    H174251   6.424   4.764  14.253  0.5301  0.5268 -0.7100
17612TIP3    H274252   6.319   4.768  14.144 -0.0587  0.4607 -0.1507
17613TIP3   OH274253   6.281   4.639   4.793  0.0019 -0.0890  0.3534
17613TIP3    H174254   6.309   4.563   4.741  0.5468  0.8890 -0.8212
17613TIP3    H274255   6.235   4.601   4.868 -1.6850 -1.5101 -1.3360
17614TIP3   OH274256   5.766   6.141  14.491  0.4319  0.0399 -0.1484
17614TIP3    H174257   5.750   6.142  14.397  0.8618 -0.6094 -0.2316
17614TIP3    H274258   5.717   6.216  14.525 -2.6288 -1.7536 -0.4194
17615TIP3   OH274259   1.670   1.188  16.301 -0.2929 -0.5439  1.0333
17615TIP3    H174260   1.688   1.108  16.251 -0.2121  0.7076 -1.0072
17615TIP3    H274261   1.756   1.230  16.309 -0.5288 -0.0763  1.0802
17616TIP3   OH274262   3.816   5.754   2.530 -0.0821  0.3207 -0.0406
17616TIP3    H174263   3.758   5.698   2.581 -1.1903  1.0359 -0.4923
17616TIP3    H274264   3.775   5.758   2.443  1.3155 -0.1718 -0.7236
17617TIP3   OH274265   2.810   3.225  16.874 -0.4596 -0.4054 -0.6124
17617TIP3    H174266   2.779   3.304  16.831 -1.6936  1.0543  2.7832
17617TIP3    H274267   2.731   3.171  16.883 -0.1167 -0.9009 -0.5527
17618TIP3   OH274268   3.662   3.287   3.454 -0.3900  0.1224  0.2402
17618TIP3    H174269   3.607   3.210   3.470 -0.6961  0.0756 -1.0105
17618TIP3    H274270   3.636   3.318   3.368 -0.0103  1.4266  0.5783
17619TIP3   OH274271   1.671   2.979   1.609 -0.0001  1.1548 -0.1228
17619TIP3    H174272   1.630   3.006   1.691 -0.2096  2.4365 -0.6331
17619TIP3    H274273   1.761   2.959   1.632 -0.3902  0.2827  0.6477
17620TIP3   OH274274   2.398   4.248  12.742  0.3487 -0.1706  0.1692
17620TIP3    H174275   2.322   4.295  12.708  1.0396 -0.3357 -1.6877
17620TIP3    H274276   2.372   4.220  12.830 -2.5472 -2.0064 -1.1742
17621TIP3   OH274277   4.728   6.765  16.110  0.0317  0.6873 -0.2303
17621TIP3    H174278   4.750   6.848  16.068  0.2680  1.4693  1.3839
17621TIP3    H274279   4.778   6.700  16.061 -0.0710  1.5115 -1.4472
17622TIP3   OH274280   3.577   1.960  11.898 -0.7160  0.0499  0.7701
17622TIP3    H174281   3.564   2.016  11.822  1.0975  0.5297  0.8033
17622TIP3    H274282   3.671   1.946  11.902 -0.9163 -0.9954  2.2079
17623TIP3   OH274283   6.154   0.323  17.093  0.5314  0.3011 -0.0272
17623TIP3    H174284   6.068   0.329  17.052  0.5063 -2.4703 -0.4514
17623TIP3    H274285   6.215   0.350  17.024  0.1777 -0.2825 -0.5742
17624TIP3   OH274286   6.654   0.725   3.191 -0.2150  0.1026 -0.3433
17624TIP3    H174287   6.710   0.739   3.114  0.1480  0.1634 -0.0680
17624TIP3    H274288   6.619   0.812   3.211 -0.2884  0.0916 -0.4239
17625TIP3   OH274289   6.695   6.084  11.800 -0.0285  0.5566 -0.8457
17625TIP3    H174290   6.640   6.025  11.748  0.6496 -1.1635  0.3523
17625TIP3    H274291   6.660   6.076  11.889  0.3168  1.6700 -0.6083
17626TIP3   OH274292   2.719   1.929  13.885  0.4563 -1.1090 -0.1336
17626TIP3    H174293   2.766   1.933  13.969  1.2294  1.3877 -0.6367
17626TIP3    H274294   2.775   1.877  13.828  0.2178 -2.3145  0.7196
17627TIP3   OH274295   6.623   4.278  15.993 -0.3007  0.0240 -0.2675
17627TIP3    H174296   6.641   4.360  15.946 -0.1790 -0.7104 -1.5163
17627TIP3    H274297   6.606   4.214  15.924  0.7091 -1.2733  0.6684
17628TIP3   OH274298   0.598   6.362  15.481  0.3370  0.2000 -0.0544
17628TIP3    H174299   0.546   6.422  15.428 -0.1743  0.7275  1.0290
17628TIP3    H274300   0.561   6.369  15.569  0.5338 -1.3992  0.1709
17629TIP3   OH274301   1.808   5.153  12.963  0.1885 -0.2322  0.0532
17629TIP3    H174302   1.848   5.183  13.044 -0.1082 -1.6025  0.7181
17629TIP3    H274303   1.794   5.233  12.913  1.9950  0.4504  0.5959
17630TIP3   OH274304   2.663   0.938  13.139 -0.1454  0.6188  0.2708
17630TIP3    H174305   2.602   0.951  13.212 -0.4085  2.7577 -0.2785
17630TIP3    H274306   2.643   1.009  13.078  1.3812  0.0185 -0.9752
17631TIP3   OH274307   3.363   1.536  13.106 -0.2959 -0.0489 -0.3075
17631TIP3    H174308   3.412   1.484  13.169  0.3176 -0.4288 -1.0942
17631TIP3    H274309   3.277   1.547  13.146  0.6880  1.3783  1.4760
17632TIP3   OH274310   0.176   5.745  17.188  0.1211  0.2965  0.0489
17632TIP3    H174311   0.132   5.823  17.153  1.5338  0.6714 -0.9494
17632TIP3    H274312   0.266   5.774  17.204  1.1725 -1.5978 -2.0672
17633TIP3   OH274313   0.734   0.041   3.624  0.2654  0.1349  0.0593
17633TIP3    H174314   0.766   0.045   3.715 -0.0183  2.1167  0.0900
17633TIP3    H274315   0.723   0.133   3.599 -0.1124 -0.4215 -1.8290
17634TIP3   OH274316   0.623   3.541  13.343 -0.2519 -0.1838 -0.1097
17634TIP3    H174317   0.555   3.529  13.276  1.4126  1.7710 -2.2262
17634TIP3    H274318   0.682   3.467  13.331  0.3417  0.4547 -1.2052
17635TIP3   OH274319   0.569   0.258   0.743  0.1921 -0.0549 -0.1273
17635TIP3    H174320   0.550   0.201   0.668  2.5985 -0.3533 -0.5413
17635TIP3    H274321   0.653   0.298   0.723  0.8026  0.0100  2.3344
17636TIP3   OH274322   0.315   6.333  13.831  0.1804 -0.5799  0.3332
17636TIP3    H174323   0.272   6.347  13.915  0.4716 -0.1023  0.4082
17636TIP3    H274324   0.378   6.405  13.825 -0.7000  0.0902 -0.8558
17637TIP3   OH274325   4.675   2.263  14.988 -0.6886  0.0240 -0.2600
17637TIP3    H174326   4.618   2.243  15.062 -1.7303  0.4027 -0.9464
17637TIP3    H274327   4.660   2.357  14.972  0.0566  0.1019 -0.5082
17638TIP3   OH274328   3.566   3.737  12.566  0.0665 -0.0660 -0.0603
17638TIP3    H174329   3.563   3.677  12.492  0.3953  0.3069 -0.3830
17638TIP3    H274330   3.628   3.805  12.539  1.4142 -0.7606  1.1909
17639TIP3   OH274331   4.188   2.876  11.306  0.2204 -0.3454  0.5288
17639TIP3    H174332   4.232   2.792  11.310 -0.3455 -0.5917  2.1303
17639TIP3    H274333   4.242   2.930  11.249  2.2110 -0.8464  1.9091
17640TIP3   OH274334   2.944   5.500   4.525  0.4963  0.2331 -0.1045
17640TIP3    H174335   2.889   5.423   4.510  0.9185  0.3049 -2.2508
17640TIP3    H274336   2.894   5.573   4.489  0.7041  0.7537  0.6514
17641TIP3   OH274337   2.676   4.904  13.049 -0.6853  0.6274  0.6642
17641TIP3    H174338   2.737   4.961  13.097 -1.0877  1.6053  0.0280
17641TIP3    H274339   2.628   4.963  12.991 -1.4899 -0.2885  0.3766
17642TIP3   OH274340   2.727   3.459  14.435 -0.1987  0.0814 -0.3524
17642TIP3    H174341   2.661   3.481  14.368  0.1596  0.2077 -0.6662
17642TIP3    H274342   2.783   3.536  14.439 -0.2354  0.0817  0.1157
17643TIP3   OH274343   0.347   5.254   3.652 -0.1735  0.2248  0.7454
17643TIP3    H174344   0.316   5.219   3.569  0.3829 -1.7523  1.3516
17643TIP3    H274345   0.413   5.192   3.681 -0.1756  1.0427  2.5516
17644TIP3   OH274346   6.458   3.714  16.687 -0.4279  0.7311 -0.2195
17644TIP3    H174347   6.449   3.779  16.618  0.6178 -0.1149 -1.1656
17644TIP3    H274348   6.465   3.630  16.640  0.6994  0.1964  0.8919
17645TIP3   OH274349   5.483   0.870  11.876 -0.7169 -0.2179 -0.8615
17645TIP3    H174350   5.513   0.876  11.786 -0.2199  1.7036 -0.5907
17645TIP3    H274351   5.536   0.800  11.915 -0.9135 -1.0281 -2.0278
17646TIP3   OH274352   2.177   3.674   0.751 -0.5351 -0.6018  0.3682
17646TIP3    H174353   2.147   3.626   0.828 -1.1507 -1.1346 -0.1911
17646TIP3    H274354   2.262   3.711   0.776 -0.8140 -0.6333  1.3473
17647TIP3   OH274355   1.340   0.456   5.892  0.0109 -0.9655 -0.1254
17647TIP3    H174356   1.301   0.457   5.980 -0.5907 -0.1219 -0.4030
17647TIP3    H274357   1.434   0.458   5.908 -0.0965 -0.6689  0.4945
17648TIP3   OH274358   0.375   2.110  13.309 -0.5557 -0.2914 -0.3368
17648TIP3    H174359   0.295   2.061  13.289 -1.2100  0.8743 -0.6075
17648TIP3    H274360   0.378   2.180  13.244  0.6629 -0.2857 -0.2899
17649TIP3   OH274361   3.805   3.504   2.283  0.4090 -1.0330 -0.1945
17649TIP3    H174362   3.856   3.505   2.364 -0.6949  1.7379  0.5121
17649TIP3    H274363   3.861   3.549   2.219 -0.3236  0.2924  0.0798
17650TIP3   OH274364   3.785   0.581   5.216  0.4220  0.3560  0.1568
17650TIP3    H174365   3.788   0.580   5.311  0.4345 -1.5053  0.1540
17650TIP3    H274366   3.703   0.537   5.194 -0.7057  2.8125 -0.6616
17651TIP3   OH274367   3.172   6.582   5.487 -0.5466  0.5471  0.1717
17651TIP3    H174368   3.132   6.515   5.432 -0.6883 -0.1547  1.1137
17651TIP3    H274369   3.266   6.562   5.484 -0.4549  1.0858 -0.5742
17652TIP3   OH274370   6.003   1.198  16.244 -0.1283 -0.3460 -0.0204
17652TIP3    H174371   5.963   1.182  16.159 -0.4342  0.1925  0.0159
17652TIP3    H274372   5.938   1.166  16.307 -0.2145 -0.0869  0.0246
17653TIP3   OH274373   2.008   2.753  16.517  0.0349  0.2776  0.2179
17653TIP3    H174374   1.958   2.792  16.445 -0.0316 -0.9181 -0.3996
17653TIP3    H274375   2.023   2.663  16.490  2.4605  0.5961  0.4508
17654TIP3   OH274376   5.163   1.318  13.522  0.2854  0.0791  0.2558
17654TIP3    H174377   5.083   1.270  13.546 -0.7863  0.3411 -2.5726
17654TIP3    H274378   5.228   1.291  13.587 -1.9028 -0.7209  2.1627
17655TIP3   OH274379   4.144   0.054   3.812  0.3876 -0.2191  0.6736
17655TIP3    H174380   4.129   0.144   3.783  0.2810 -0.2719  0.5689
17655TIP3    H274381   4.196   0.015   3.742 -0.4412 -0.5493  0.2376
17656TIP3   OH274382   1.439   6.653  10.949 -0.1389 -0.1911 -0.1944
17656TIP3    H174383   1.511   6.612  10.997  0.4067 -0.6136 -1.3613
17656TIP3    H274384   1.480   6.723  10.899 -0.7761  0.5302  0.2806
17657TIP3   OH274385   1.311   2.796  15.121  0.0692  0.1202 -0.0282
17657TIP3    H174386   1.322   2.718  15.067 -0.4865  0.0912 -0.1037
17657TIP3    H274387   1.381   2.791  15.185  2.0745  1.2609 -2.0543
17658TIP3   OH274388   2.939   4.341   1.015 -0.0298 -0.4649  0.1858
17658TIP3    H174389   2.865   4.288   1.045 -1.3911  0.3293 -1.6591
17658TIP3    H274390   2.950   4.317   0.923 -0.5379  2.2325 -0.6323
17659TIP3   OH274391   3.794   4.052  15.829 -0.0358  0.5671 -0.4288
17659TIP3    H174392   3.769   4.073  15.739  0.5054  1.5138 -0.3709
17659TIP3    H274393   3.746   3.972  15.850  0.2354  0.0560 -1.7376
17660TIP3   OH274394   6.362   2.963  16.521  0.2100 -0.1241 -0.4943
17660TIP3    H174395   6.437   3.017  16.546  1.0727 -1.2682 -0.5695
17660TIP3    H274396   6.346   2.907  16.597 -2.2154  1.8528  0.5285
17661TIP3   OH274397   6.613   1.729  15.333 -0.1225 -0.0750  0.1534
17661TIP3    H174398   6.652   1.724  15.420 -1.5918 -0.7987  0.7879
17661TIP3    H274399   6.602   1.637  15.306 -4.5958 -0.0164  1.4885
17662TIP3   OH274400   3.879   6.692  12.829  0.0834  0.2424 -0.1891
17662TIP3    H174401   3.910   6.752  12.761 -0.6363  0.7617 -0.0645
17662TIP3    H274402   3.950   6.690  12.893  0.8939 -0.4746 -1.0799
17663TIP3   OH274403   1.937   0.999  14.171 -0.1323  0.2330  0.7390
17663TIP3    H174404   1.867   1.033  14.227 -1.6514 -0.9030 -0.4240
17663TIP3    H274405   1.976   0.927  14.221 -0.0384  0.6179  1.2237
17664TIP3   OH274406   5.615   0.440   2.676 -0.0692 -0.1553 -0.0317
17664TIP3    H174407   5.540   0.439   2.616  0.9616  0.8546 -1.3651
17664TIP3    H274408   5.582   0.482   2.755 -0.7514  0.8750 -0.8544
17665TIP3   OH274409   1.180   0.524  15.051 -0.0571  0.3797  0.4540
17665TIP3    H174410   1.199   0.612  15.018  0.4825  0.6097  1.3495
17665TIP3    H274411   1.112   0.536  15.117 -0.7600 -0.0119 -0.1928
17666TIP3   OH274412   4.724   5.937   1.194 -1.2675 -0.7598  0.3815
17666TIP3    H174413   4.629   5.947   1.205 -1.1396  1.3522 -0.1824
17666TIP3    H274414   4.735   5.923   1.100 -1.0454 -1.3256  0.4936
17667TIP3   OH274415   5.433   1.215   4.475 -0.2658  0.3750 -0.0580
17667TIP3    H174416   5.480   1.298   4.459  1.4096 -0.4959  0.2135
17667TIP3    H274417   5.376   1.205   4.399  0.7671  0.9497 -0.9329
17668TIP3   OH274418   2.214   5.310  11.102  0.4152 -0.0231  0.3801
17668TIP3    H174419   2.306   5.330  11.088  0.8922 -1.1878  1.7982
17668TIP3    H274420   2.185   5.375  11.167  1.1862 -1.9311  2.6831
17669TIP3   OH274421   2.082   6.017  17.166  0.1037 -0.8578 -0.0870
17669TIP3    H174422   2.114   6.060  17.086  0.6971 -1.8343 -0.3868
17669TIP3    H274423   2.021   5.951  17.134 -0.7483 -0.2940  0.3673
17670TIP3   OH274424   6.493   4.666  16.637 -0.2523 -0.0226 -0.2713
17670TIP3    H174425   6.448   4.582  16.643 -1.7832  0.7631 -0.4097
17670TIP3    H274426   6.586   4.644  16.633 -0.5868 -1.6460  0.7081
17671TIP3   OH274427   4.900   1.178  15.665 -0.0947 -0.2025  0.0880
17671TIP3    H174428   4.852   1.168  15.583  2.6226 -1.9044 -1.3878
17671TIP3    H274429   4.953   1.257  15.652  0.9208 -0.9084 -0.1362
17672TIP3   OH274430   5.598   4.514  16.819  0.5070  0.9290  0.2214
17672TIP3    H174431   5.568   4.517  16.728  0.1032 -1.9048  0.2205
17672TIP3    H274432   5.694   4.512  16.812  0.5211  2.0618 -0.0680
17673TIP3   OH274433   6.518   0.349  14.222 -0.6659  0.0078 -0.0373
17673TIP3    H174434   6.441   0.346  14.279 -0.6191 -0.0093  0.0248
17673TIP3    H274435   6.493   0.406  14.150 -0.6805  0.1284  0.0646
17674TIP3   OH274436   1.952   2.318   2.861  0.5374 -0.5484  0.0150
17674TIP3    H174437   1.988   2.250   2.804  3.1848  0.1028  0.8640
17674TIP3    H274438   1.984   2.400   2.823  1.6955 -0.0693  1.9812
17675TIP3   OH274439   6.204   4.817  15.787  0.1614 -0.0855 -0.5000
17675TIP3    H174440   6.171   4.728  15.802 -0.0732  0.0525 -0.2040
17675TIP3    H274441   6.271   4.806  15.719 -0.8587 -0.2860 -1.4808
17676TIP3   OH274442   4.361   2.518   0.002 -0.0899 -0.3759 -0.6859
17676TIP3    H174443   4.343   2.425   0.017 -0.7686 -0.2784 -0.9134
17676TIP3    H274444   4.447   2.531   0.042  0.2025 -1.1979 -1.0123
17677TIP3   OH274445   4.900   2.775   1.639 -0.0139  0.2071 -0.3274
17677TIP3    H174446   4.838   2.834   1.681 -0.7658  0.0559 -1.2071
17677TIP3    H274447   4.954   2.831   1.583 -0.9041  0.0472 -1.3719
17678TIP3   OH274448   3.183   3.536  14.845 -0.1703 -0.6240  0.4271
17678TIP3    H174449   3.150   3.451  14.874 -0.8780 -0.5051 -0.0195
17678TIP3    H274450   3.105   3.592  14.840  0.3329  0.1446  1.0313
17679TIP3   OH274451   1.953   2.659  10.811  0.0522  0.3577 -0.0633
17679TIP3    H174452   2.023   2.594  10.807  1.0072  1.4711 -1.7778
17679TIP3    H274453   1.880   2.619  10.763  0.5665  0.4657 -0.9320
17680TIP3   OH274454   2.522   2.548  15.928 -0.7820  0.5416  0.2938
17680TIP3    H174455   2.539   2.623  15.871  1.1875 -0.6879 -0.7952
17680TIP3    H274456   2.508   2.475  15.868  2.4625 -1.0272  1.2995
17681TIP3   OH274457   5.958   5.557  16.123  0.1148 -0.6286  0.0032
17681TIP3    H174458   5.915   5.599  16.197  0.8724 -0.9400  0.6270
17681TIP3    H274459   6.041   5.604  16.114 -0.1189 -0.3738 -0.8562
17682TIP3   OH274460   6.699   4.005  13.049  0.4153  0.2169  0.7924
17682TIP3    H174461   6.689   3.984  13.142  0.2008  0.9918  0.9558
17682TIP3    H274462   6.771   4.068  13.047 -1.2475  2.2093  0.7602
17683TIP3   OH274463   0.992   1.969   1.231  0.7007  0.2522 -0.1103
17683TIP3    H174464   1.087   1.972   1.238  0.6780  1.6707 -0.2519
17683TIP3    H274465   0.975   1.955   1.137  0.7816  0.1161 -0.1032
17684TIP3   OH274466   0.551   0.123  14.393  0.5013 -0.4124  0.2639
17684TIP3    H174467   0.496   0.062  14.343  2.0464 -0.4747 -1.4305
17684TIP3    H274468   0.518   0.117  14.483 -0.4677 -2.4942 -0.1915
17685TIP3   OH274469   1.578   3.973  15.038  0.0619  0.0353 -0.5354
17685TIP3    H174470   1.655   3.997  14.985  1.3843 -0.5020  1.1038
17685TIP3    H274471   1.509   3.958  14.973  1.3985  0.2861 -2.0652
17686TIP3   OH274472   3.029   1.490  13.038  0.3518  0.8108 -0.2784
17686TIP3    H174473   2.942   1.518  13.067  0.2909 -0.1896  0.5329
17686TIP3    H274474   3.072   1.460  13.118  1.9603  2.6071 -0.4403
17687TIP3   OH274475   0.561   5.944  10.927 -0.2730 -0.0445 -0.1304
17687TIP3    H174476   0.607   5.884  10.869  0.3631  1.3895 -1.1595
17687TIP3    H274477   0.631   5.988  10.975 -0.6146  1.1563 -0.7040
17688TIP3   OH274478   1.741   4.746  10.744  0.6238  0.4897 -0.3443
17688TIP3    H174479   1.784   4.661  10.733  0.3453  0.0263  1.7451
17688TIP3    H274480   1.651   4.731  10.717  0.1711 -0.3515  1.5455
17689TIP3   OH274481   1.553   1.786  16.029 -0.1649 -0.0373  0.0571
17689TIP3    H174482   1.556   1.714  15.966 -0.1516 -0.1132  0.1425
17689TIP3    H274483   1.464   1.821  16.022 -0.4791 -0.6819  0.7086
17690TIP3   OH274484   2.698   2.977  16.905  0.2177  0.2463  0.3334
17690TIP3    H174485   2.719   2.929  16.824 -1.4667  0.6680 -0.3742
17690TIP3    H274486   2.686   2.908  16.971  0.2907 -0.1767 -0.0937
17691TIP3   OH274487   6.042   1.204  17.181  0.2860  0.3220 -0.1331
17691TIP3    H174488   6.086   1.164  17.256 -0.7811  0.1136  0.4101
17691TIP3    H274489   6.112   1.228  17.121  1.2817  1.7628  1.5471
17692TIP3   OH274490   4.662   2.464  13.166  0.4925 -0.0734 -0.5492
17692TIP3    H174491   4.615   2.420  13.095 -0.4352 -1.4706  0.8912
17692TIP3    H274492   4.742   2.496  13.125 -0.4884  0.0378 -2.4577
17693TIP3   OH274493   3.394   2.876  14.966  0.1041 -0.3798 -0.1407
17693TIP3    H174494   3.483   2.896  14.939  0.6811 -2.9925 -0.3188
17693TIP3    H274495   3.340   2.905  14.892  0.8209  1.0103 -0.1274
17694TIP3   OH274496   6.497   3.948  12.875  0.1538 -0.0556 -0.0654
17694TIP3    H174497   6.558   3.987  12.937 -1.5920  1.9685  0.4812
17694TIP3    H274498   6.551   3.894  12.817  2.1274 -0.0276  1.7032
17695TIP3   OH274499   6.653   4.205  15.460  0.6376 -0.1571  0.2438
17695TIP3    H174500   6.595   4.255  15.403 -0.3348 -0.4621  0.9415
17695TIP3    H274501   6.594   4.149  15.511  1.5284 -0.3298  1.1072
17696TIP3   OH274502   5.864   3.777   3.000 -0.1267  0.4322 -0.1826
17696TIP3    H174503   5.934   3.843   3.002 -0.4728  0.7851  0.6824
17696TIP3    H274504   5.851   3.758   2.907 -0.4699  2.0555 -0.4773
17697TIP3   OH274505   4.403   5.477  15.565 -0.3065  0.0179  0.5532
17697TIP3    H174506   4.456   5.446  15.638  0.3304 -1.0091 -0.3375
17697TIP3    H274507   4.399   5.403  15.505 -3.4470 -0.2266  0.9686
17698TIP3   OH274508   4.202   4.127  17.049  0.7862 -0.2376  0.1489
17698TIP3    H174509   4.187   4.221  17.057  1.2582 -0.1350 -0.1362
17698TIP3    H274510   4.295   4.115  17.068  0.9607 -0.5126 -0.8171
17699TIP3   OH274511   2.962   3.016  13.751  0.3472  0.3462 -0.6696
17699TIP3    H174512   2.945   3.073  13.826 -0.2030 -0.4914 -0.1399
17699TIP3    H274513   3.057   3.004  13.751  0.1453 -1.6375  1.4217
17700TIP3   OH274514   5.901   4.843  16.901  0.3652  0.2183 -0.2188
17700TIP3    H174515   5.860   4.786  16.836 -0.5953  2.4643 -1.6561
17700TIP3    H274516   5.993   4.848  16.874  0.1301  0.5299 -0.9633
17701TIP3   OH274517   4.382   4.126  10.730 -0.6960 -0.9284 -0.1737
17701TIP3    H174518   4.396   4.049  10.676 -0.0944 -0.1057 -1.2086
17701TIP3    H274519   4.469   4.152  10.759 -0.7152  0.2159 -1.0623
17702TIP3   OH274520   3.568   5.186   1.160 -0.5329  0.2993  0.4121
17702TIP3    H174521   3.532   5.196   1.248  0.4475  0.3688  0.8027
17702TIP3    H274522   3.639   5.123   1.170 -1.2357 -0.6653 -0.5549
17703TIP3   OH274523   5.878   5.557   3.903  0.3381  0.8318 -0.3466
17703TIP3    H174524   5.832   5.516   3.830 -2.1482  3.1737 -0.1542
17703TIP3    H274525   5.896   5.646   3.873  1.5807  1.0414  0.9511
17704TIP3   OH274526   5.878   1.737   0.896  0.5883  0.5419  0.6738
17704TIP3    H174527   5.851   1.659   0.945 -1.4359  0.7078 -0.1447
17704TIP3    H274528   5.900   1.705   0.809 -0.4559  0.9143  0.2710
17705TIP3   OH274529   0.172   5.699  15.980 -0.3341  0.2130 -0.6948
17705TIP3    H174530   0.114   5.688  15.905 -0.7218  0.6984 -0.4645
17705TIP3    H274531   0.114   5.709  16.055  0.0517  0.4906 -0.4322
17706TIP3   OH274532   5.012   3.289   2.183 -0.2071  0.2217  0.6561
17706TIP3    H174533   4.948   3.314   2.250 -0.3224 -1.6497  1.2678
17706TIP3    H274534   4.960   3.276   2.104 -0.4643 -0.4070  0.9254
17707TIP3   OH274535   4.307   0.722  12.932  0.0489 -0.4841 -0.0276
17707TIP3    H174536   4.356   0.660  12.879 -0.7773 -1.5650  0.4560
17707TIP3    H274537   4.216   0.690  12.929 -0.1253 -0.1593  1.4510
17708TIP3   OH274538   4.046   5.779  17.070 -0.4139  0.0629  0.5467
17708TIP3    H174539   4.065   5.715  17.138  1.3205  0.6688  0.6612
17708TIP3    H274540   4.132   5.802  17.033 -1.2117  0.6492 -1.0167
17709TIP3   OH274541   5.895   0.148   1.710 -0.3157  0.6092 -0.6052
17709TIP3    H174542   5.913   0.183   1.798  1.3740  0.0445 -0.7203
17709TIP3    H274543   5.812   0.100   1.720 -0.5576  1.2348  0.4856
17710TIP3   OH274544   1.503   2.617   5.338  0.1262 -0.0009 -0.5272
17710TIP3    H174545   1.520   2.711   5.352  0.3681  0.0255 -0.9990
17710TIP3    H274546   1.408   2.610   5.341  0.1358  0.1458  0.2339
17711TIP3   OH274547   4.581   4.128  13.517  0.4062  0.0181  0.6764
17711TIP3    H174548   4.557   4.070  13.445 -0.5013  1.9935 -0.6417
17711TIP3    H274549   4.510   4.191  13.523  1.1784  0.7829  2.3572
17712TIP3   OH274550   5.058   3.186   1.058 -0.4474  0.0159 -0.0006
17712TIP3    H174551   5.121   3.244   1.100 -0.3482 -1.0041  1.2725
17712TIP3    H274552   5.063   3.104   1.107 -0.9453 -0.9236 -1.4569
17713TIP3   OH274553   4.217   6.609   5.236  0.2548 -0.2031  0.4910
17713TIP3    H174554   4.174   6.629   5.152  2.7222  0.2488 -0.7038
17713TIP3    H274555   4.217   6.692   5.283  2.8124  0.6539 -0.9278
17714TIP3   OH274556   5.213   3.860  11.840  0.3111  0.8773  0.5676
17714TIP3    H174557   5.222   3.856  11.935  0.6344  0.8457  0.5390
17714TIP3    H274558   5.140   3.920  11.825 -1.9547 -1.7276  0.8877
17715TIP3   OH274559   0.842   6.729  11.628  0.5431  0.0589 -0.0826
17715TIP3    H174560   0.910   6.775  11.579  1.6928  0.0430  1.4708
17715TIP3    H274561   0.874   6.726  11.718 -1.3212 -0.3227  0.6024
17716TIP3   OH274562   5.511   6.675  16.125 -0.6188  0.1878 -0.4892
17716TIP3    H174563   5.445   6.695  16.059 -2.7313 -1.4643  1.0468
17716TIP3    H274564   5.466   6.689  16.209  2.1285  2.6773  0.6696
17717TIP3   OH274565   6.596   0.275  11.904  0.1300  0.1503  0.4594
17717TIP3    H174566   6.621   0.183  11.919  1.2963  0.2196 -0.9486
17717TIP3    H274567   6.503   0.278  11.928  0.3871 -1.1038  1.7084
17718TIP3   OH274568   4.340   1.411   5.466  0.0627  0.5058  1.1738
17718TIP3    H174569   4.342   1.507   5.460 -1.7333  0.4404 -1.0311
17718TIP3    H274570   4.307   1.383   5.381 -1.2162 -2.0134  2.4655
17719TIP3   OH274571   3.613   3.326  17.022 -0.6152 -0.1786  0.1938
17719TIP3    H174572   3.646   3.344  17.110 -1.8581  1.2222  0.3817
17719TIP3    H274573   3.645   3.399  16.968  0.4453 -1.2082 -0.6268
17720TIP3   OH274574   0.143   3.548   0.771 -0.0644 -0.1395  0.2393
17720TIP3    H174575   0.080   3.590   0.714  0.7714  0.7016 -0.0870
17720TIP3    H274576   0.188   3.485   0.715  1.5566  1.5027 -0.3650
17721TIP3   OH274577   3.689   3.884   0.740 -0.0101 -0.1634 -0.3890
17721TIP3    H174578   3.617   3.865   0.680  0.3569  1.8201 -1.5271
17721TIP3    H274579   3.722   3.970   0.711  1.5259 -0.1312  1.3483
17722TIP3   OH274580   0.577   3.946  15.594 -0.7732  0.2726  0.2863
17722TIP3    H174581   0.487   3.918  15.580 -0.6896  1.1716 -2.1441
17722TIP3    H274582   0.582   4.033  15.555  1.2847  0.0277 -0.0638
17723TIP3   OH274583   2.770   3.565   0.860 -0.8786  0.1978 -0.6051
17723TIP3    H174584   2.740   3.653   0.883 -0.3831  0.5147 -1.1474
17723TIP3    H274585   2.863   3.577   0.838 -0.6174 -0.5867  0.0526
17724TIP3   OH274586   6.286   1.002  16.749 -0.0785 -0.4325 -0.0292
17724TIP3    H174587   6.303   1.031  16.660  2.0182 -4.4744 -1.0749
17724TIP3    H274588   6.192   1.013  16.761  0.0374  2.7994 -1.6851
17725TIP3   OH274589   3.904   4.716   2.296 -0.0673 -0.6207  0.3166
17725TIP3    H174590   3.924   4.796   2.345  0.3814 -1.0421  0.8304
17725TIP3    H274591   3.823   4.684   2.335 -0.5023 -0.1673 -0.2053
17726TIP3   OH274592   6.247   1.800   3.631 -0.0823  0.2227  0.3973
17726TIP3    H174593   6.339   1.818   3.651 -0.5585  0.5826  2.4011
17726TIP3    H274594   6.245   1.781   3.537  2.4936 -2.7194  0.8514
17727TIP3   OH274595   1.693   2.605  14.608 -0.3018 -0.2211 -0.1478
17727TIP3    H174596   1.697   2.697  14.633  0.5841  1.1548 -4.7609
17727TIP3    H274597   1.773   2.590  14.557 -1.0560 -3.1728 -0.5872
17728TIP3   OH274598   3.101   0.429   4.371 -0.2452  0.7833  0.4228
17728TIP3    H174599   3.015   0.398   4.343  0.1832  0.9034 -1.0349
17728TIP3    H274600   3.161   0.359   4.347 -0.0422  0.3247  2.2271
17729TIP3   OH274601   1.267   5.632   5.866 -0.1379  0.5229  0.0304
17729TIP3    H174602   1.240   5.559   5.921  0.4518 -0.0806 -0.4763
17729TIP3    H274603   1.350   5.661   5.905  0.1869  0.2124 -0.4242
17730TIP3   OH274604   1.461   2.821   3.606 -0.5196 -0.3537 -0.3659
17730TIP3    H174605   1.450   2.832   3.512  0.6522  0.6350 -0.4077
17730TIP3    H274606   1.544   2.865   3.625 -1.3524  0.5294  1.3195
17731TIP3   OH274607   1.659   5.001   6.339  0.2368 -0.1253  0.7611
17731TIP3    H174608   1.750   4.973   6.345  0.5441  0.9326  1.0745
17731TIP3    H274609   1.632   5.015   6.430 -0.4710 -1.1413  0.7243
17732TIP3   OH274610   0.149   1.676   1.842 -0.1676  0.0403  0.1157
17732TIP3    H174611   0.124   1.648   1.754  0.1505  0.5859 -0.1560
17732TIP3    H274612   0.227   1.623   1.862  0.6660  0.9882 -0.5555
17733TIP3   OH274613   0.847   6.026  16.065 -0.2716 -0.1345  0.1701
17733TIP3    H174614   0.904   6.102  16.058 -0.1511 -0.4010 -2.0701
17733TIP3    H274615   0.894   5.956  16.019 -1.1835 -1.0927  0.6672
17734TIP3   OH274616   6.785   5.106   3.917  0.4215  0.3522  0.0295
17734TIP3    H174617   6.850   5.171   3.891  0.8108  0.3942  1.0799
17734TIP3    H274618   6.835   5.026   3.930 -0.0227 -0.1059 -1.0152
17735TIP3   OH274619   2.018   5.269  12.534  0.2546  0.3372  0.2018
17735TIP3    H174620   2.095   5.308  12.575  0.0698  0.4910  0.4024
17735TIP3    H274621   2.022   5.298  12.443  1.4493 -1.1759 -0.2575
17736TIP3   OH274622   3.899   0.225   5.268 -0.7390  0.3914 -0.1088
17736TIP3    H174623   3.945   0.307   5.285  0.5231 -0.2473 -0.3759
17736TIP3    H274624   3.855   0.203   5.350 -1.5250  1.5942 -0.1937
17737TIP3   OH274625   0.113   2.671   1.798 -0.0513  0.2984 -0.8340
17737TIP3    H174626   0.188   2.698   1.746  1.0450 -1.1000 -0.0334
17737TIP3    H274627   0.147   2.601   1.854 -2.0776 -0.6966 -0.8043
17738TIP3   OH274628   3.230   1.314  11.139 -0.1327  0.2183 -0.9060
17738TIP3    H174629   3.322   1.297  11.124  0.8058  2.7041  1.6046
17738TIP3    H274630   3.217   1.405  11.114 -1.3540  0.5701  0.8716
17739TIP3   OH274631   0.131   4.143   5.635 -0.8380  0.4505 -0.0845
17739TIP3    H174632   0.151   4.051   5.649 -0.6835  0.4941 -0.0220
17739TIP3    H274633   0.035   4.147   5.636 -0.8264  0.6485  2.2427
17740TIP3   OH274634   6.623   2.878  12.470 -0.3058 -0.1127  0.2725
17740TIP3    H174635   6.616   2.786  12.497  0.8606 -0.1104  0.6105
17740TIP3    H274636   6.670   2.921  12.542  0.2429  0.4877 -0.4284
17741TIP3   OH274637   0.697   4.169  12.435 -0.0788 -0.1495 -0.1401
17741TIP3    H174638   0.628   4.235  12.432 -0.7843 -0.8163  1.2152
17741TIP3    H274639   0.740   4.183  12.519  2.9912  1.7745 -1.9162
17742TIP3   OH274640   2.311   0.587  12.711  0.1277  0.5844  0.2123
17742TIP3    H174641   2.359   0.668  12.728 -0.3894  0.6023  1.7200
17742TIP3    H274642   2.308   0.544  12.797 -1.8373  0.2082 -0.0325
17743TIP3   OH274643   1.193   0.113   2.319  0.1862 -0.0836 -0.6396
17743TIP3    H174644   1.223   0.048   2.256 -1.2515 -1.6123  0.1954
17743TIP3    H274645   1.238   0.089   2.400 -1.5920 -1.0850  0.0811
17744TIP3   OH274646   0.189   0.662   5.068  0.4621 -0.3880 -0.1850
17744TIP3    H174647   0.248   0.625   5.003 -0.4397 -1.5484 -0.3578
17744TIP3    H274648   0.164   0.588   5.123  1.2421  0.5879  1.5146
17745TIP3   OH274649   5.981   6.662  16.212 -0.4682  0.3787 -0.2402
17745TIP3    H174650   5.887   6.647  16.223 -0.5024  1.4074  0.9309
17745TIP3    H274651   6.013   6.582  16.170 -1.7000 -0.4057  0.2890
17746TIP3   OH274652   0.918   3.772   1.384 -0.2734  1.0641 -0.0111
17746TIP3    H174653   0.875   3.723   1.314 -1.4840  0.5292  1.0851
17746TIP3    H274654   0.981   3.711   1.422 -1.1641  0.6252  0.7828
17747TIP3   OH274655   0.121   0.757  13.838  0.4993 -0.4102 -0.1291
17747TIP3    H174656   0.039   0.752  13.790  0.1424 -0.0548  0.4414
17747TIP3    H274657   0.182   0.801  13.778  0.9324 -2.7314 -1.4419
17748TIP3   OH274658   1.861   4.722  11.245  0.0276  0.0665 -0.4388
17748TIP3    H174659   1.824   4.746  11.330  0.0278 -1.6169  0.0365
17748TIP3    H274660   1.810   4.774  11.182 -2.3007 -1.2374  0.3111
17749TIP3   OH274661   0.135   0.555  12.851  0.4970 -0.1562  0.6608
17749TIP3    H174662   0.047   0.528  12.878 -0.0078 -0.5313 -1.2982
17749TIP3    H274663   0.193   0.497  12.900 -0.4200 -1.4653  0.2379
17750TIP3   OH274664   1.762   2.182  16.929  0.1469  0.1618  0.2825
17750TIP3    H174665   1.748   2.093  16.898 -0.2754  0.0588  0.7594
17750TIP3    H274666   1.838   2.213  16.879  1.9695 -1.4056  1.9822
17751TIP3   OH274667   3.222   5.523   1.509  0.1732 -1.0537  0.6131
17751TIP3    H174668   3.171   5.461   1.561 -2.5657  1.9810  1.6563
17751TIP3    H274669   3.189   5.512   1.420 -1.9847  0.5193  1.1950
17752TIP3   OH274670   2.332   3.397  11.589  0.1712 -0.6527 -0.6276
17752TIP3    H174671   2.332   3.317  11.641  0.7899 -0.9791 -1.1203
17752TIP3    H274672   2.259   3.386  11.528 -0.7608 -0.1276  0.3679
17753TIP3   OH274673   6.593   6.534   4.820  0.2844  0.0096  0.1551
17753TIP3    H174674   6.624   6.444   4.823  0.2630 -0.0241 -0.5696
17753TIP3    H274675   6.497   6.527   4.819  0.2857  0.0358 -0.0884
17754TIP3   OH274676   5.379   5.906  12.554  0.3556  0.0423 -0.3377
17754TIP3    H174677   5.463   5.867  12.529 -0.0207 -0.8244 -0.2502
17754TIP3    H274678   5.315   5.836  12.544  0.0221 -0.0106  1.9967
17755TIP3   OH274679   4.197   4.808   3.357  0.4127 -0.0774  0.2462
17755TIP3    H174680   4.112   4.852   3.353  0.5059  0.0428 -0.5590
17755TIP3    H274681   4.177   4.721   3.393 -0.1541 -0.2696 -0.5047
17756TIP3   OH274682   4.815   0.365  11.481  0.3262  0.2493 -0.3338
17756TIP3    H174683   4.888   0.422  11.505 -0.2929  1.8599 -2.1222
17756TIP3    H274684   4.845   0.277  11.502  2.4289  0.9831 -0.1670
17757TIP3   OH274685   1.992   2.429   3.460 -0.2299  0.0040  0.5017
17757TIP3    H174686   1.947   2.486   3.522  0.3383 -0.3698  1.2723
17757TIP3    H274687   2.066   2.481   3.429  0.8177 -0.6249  1.8999
17758TIP3   OH274688   5.774   4.368  12.314 -0.0229  0.4127 -0.2211
17758TIP3    H174689   5.737   4.280  12.308  2.3827 -0.6639  0.1133
17758TIP3    H274690   5.831   4.376  12.237 -2.5835  2.8687 -1.9569
17759TIP3   OH274691   4.621   5.300  11.649 -0.0923  0.3384 -0.5285
17759TIP3    H174692   4.533   5.268  11.670 -0.0432 -1.1156 -2.4403
17759TIP3    H274693   4.678   5.226  11.667  1.0517  1.8704  2.5754
17760TIP3   OH274694   4.522   4.991   1.933  0.1985 -0.2721  0.2475
17760TIP3    H174695   4.558   5.036   1.857  1.7517 -1.5895  0.1757
17760TIP3    H274696   4.579   4.915   1.946 -0.3622 -0.3817  2.3955
17761TIP3   OH274697   5.590   1.317   2.566 -0.3653 -0.1540  0.0348
17761TIP3    H174698   5.552   1.358   2.644 -1.3101 -0.5013 -0.2259
17761TIP3    H274699   5.684   1.326   2.577 -0.4994  0.0064  1.1048
17762TIP3   OH274700   1.802   0.927  10.954  0.3426 -0.1565 -0.1387
17762TIP3    H174701   1.798   0.946  10.860 -0.5412 -2.4995 -0.6114
17762TIP3    H274702   1.713   0.939  10.985  0.1848 -1.4710 -0.0482
17763TIP3   OH274703   0.416   0.907   4.576 -0.3734 -0.0069  0.4885
17763TIP3    H174704   0.486   0.962   4.540 -0.6193 -0.7587 -1.1892
17763TIP3    H274705   0.462   0.832   4.614 -0.2019  0.1419  0.5790
17764TIP3   OH274706   6.753   5.740  16.146 -0.4456 -0.1146 -0.1116
17764TIP3    H174707   6.712   5.659  16.175 -0.4559 -0.3730 -0.8411
17764TIP3    H274708   6.710   5.761  16.063 -0.2529  0.4879 -0.0583
17765TIP3   OH274709   6.553   0.594   0.783 -0.0640 -0.3237 -0.2534
17765TIP3    H174710   6.590   0.550   0.858 -0.1265 -0.7511 -0.4718
17765TIP3    H274711   6.502   0.526   0.737 -0.9421  0.1961 -0.0674
17766TIP3   OH274712   4.423   1.188   5.061  0.0641  0.4642  0.1535
17766TIP3    H174713   4.515   1.216   5.062  0.4112 -0.6293 -0.0342
17766TIP3    H274714   4.422   1.110   5.005 -1.4466  1.9774 -2.0046
17767TIP3   OH274715   4.397   0.448   5.062  0.2656  0.4949  0.3121
17767TIP3    H174716   4.402   0.356   5.037  3.7747 -0.0828  2.7836
17767TIP3    H274717   4.304   0.470   5.053 -0.1275 -2.2581 -3.5692
17768TIP3   OH274718   2.495   3.460   5.834 -0.7643 -0.2558 -0.1345
17768TIP3    H174719   2.559   3.485   5.900 -0.6517 -1.8193  0.3587
17768TIP3    H274720   2.439   3.395   5.877 -1.0777 -0.8267 -1.3726
17769TIP3   OH274721   0.890   0.899  14.508  0.2504 -0.3206  0.1668
17769TIP3    H174722   0.861   0.819  14.464  2.7749  0.0026 -2.2156
17769TIP3    H274723   0.969   0.872  14.556 -0.8048  0.0063  2.1336
17770TIP3   OH274724   1.635   0.424   1.102 -0.0922 -0.0620  0.5618
17770TIP3    H174725   1.698   0.484   1.141 -0.9642  1.0194  0.3149
17770TIP3    H274726   1.582   0.393   1.176 -0.1658  0.1026  0.5782
17771TIP3   OH274727   0.386   2.150  14.279  0.5070 -0.2056 -0.1662
17771TIP3    H174728   0.424   2.093  14.346 -0.0575 -0.0553  0.2849
17771TIP3    H274729   0.416   2.238  14.301  0.9087 -0.2462 -0.5314
17772TIP3   OH274730   4.798   3.576  16.141 -0.4575 -0.0102  0.0675
17772TIP3    H174731   4.862   3.512  16.110 -0.0694 -0.3130  1.4752
17772TIP3    H274732   4.714   3.541  16.110 -0.0795 -0.2917 -0.6644
17773TIP3   OH274733   0.753   3.783  10.848 -0.1690 -0.9809 -0.4616
17773TIP3    H174734   0.847   3.801  10.848 -0.4359  0.5580 -1.7483
17773TIP3    H274735   0.738   3.733  10.767 -0.4164 -1.4646 -0.1185
17774TIP3   OH274736   0.944   4.080   5.504  0.4960  0.2101  0.6328
17774TIP3    H174737   0.957   3.995   5.546 -0.5460 -0.3962 -0.2450
17774TIP3    H274738   0.872   4.066   5.444  1.1528  1.3979 -0.4518
17775TIP3   OH274739   0.850   1.914   5.582  1.2134  0.0813 -0.7259
17775TIP3    H174740   0.851   1.820   5.564  0.8976  0.2078 -1.4125
17775TIP3    H274741   0.841   1.920   5.677 -2.1457 -0.5835 -0.9553
17776TIP3   OH274742   4.756   4.276   1.060  0.0031 -0.2531  0.1102
17776TIP3    H174743   4.753   4.183   1.085 -0.5991 -0.4564 -0.6838
17776TIP3    H274744   4.767   4.323   1.143 -0.2950 -1.0016  0.5834
17777TIP3   OH274745   0.375   0.529   4.906 -0.0111 -0.0971  0.3304
17777TIP3    H174746   0.464   0.534   4.943 -0.6225  0.3356  1.7605
17777TIP3    H274747   0.373   0.444   4.862  1.9204  0.9336 -1.8992
17778TIP3   OH274748   2.804   2.557  14.303 -0.5832 -0.2043 -1.1724
17778TIP3    H174749   2.741   2.503  14.349 -0.6643  0.6469 -0.2850
17778TIP3    H274750   2.871   2.579  14.368 -0.0139 -0.0753 -1.7819
17779TIP3   OH274751   3.482   3.707   2.982 -0.1574 -0.2595 -0.6786
17779TIP3    H174752   3.532   3.696   3.064  1.2307 -0.0689 -1.4762
17779TIP3    H274753   3.448   3.619   2.963 -3.6468  0.4044  2.0317
17780TIP3   OH274754   2.936   2.667  11.462 -0.1851  0.9219  0.3387
17780TIP3    H174755   3.007   2.617  11.421 -1.2871  0.8843 -1.5809
17780TIP3    H274756   2.940   2.753  11.420 -0.5674  1.2794  1.0326
17781TIP3   OH274757   4.579   4.344  16.967 -0.0780  0.4697 -0.0050
17781TIP3    H174758   4.502   4.357  17.023 -0.7075  0.3318 -0.8281
17781TIP3    H274759   4.570   4.255  16.934 -0.3303  0.9432 -1.2536
17782TIP3   OH274760   4.834   6.654   5.403 -0.1845 -0.1332  0.3001
17782TIP3    H174761   4.838   6.583   5.467  4.3087  1.0111  1.4952
17782TIP3    H274762   4.791   6.726   5.450 -1.8702 -1.0479  0.1624
17783TIP3   OH274763   3.974   5.470   5.385  0.3451 -0.1932  0.6033
17783TIP3    H174764   3.957   5.459   5.479 -1.0330 -1.0350  0.2616
17783TIP3    H274765   3.998   5.563   5.377 -1.0442  0.2677  1.5616
17784TIP3   OH274766   2.617   2.438   5.250  0.3797  0.0849  0.4078
17784TIP3    H174767   2.612   2.498   5.324  0.7073  0.2613  0.2895
17784TIP3    H274768   2.530   2.398   5.245  0.0451  0.8318  0.2457
17785TIP3   OH274769   5.040   2.510  11.959  0.1041  0.2506  0.7425
17785TIP3    H174770   4.994   2.469  11.886  0.5294  0.9636  0.0643
17785TIP3    H274771   4.974   2.521  12.027 -1.0223  2.2781 -0.6184
17786TIP3   OH274772   4.744   1.950  16.281 -0.3203 -0.1629  0.1468
17786TIP3    H174773   4.756   1.875  16.340  1.1730  1.0027  1.3671
17786TIP3    H274774   4.785   1.923  16.199 -2.4412 -1.8122 -0.4014
17787TIP3   OH274775   5.354   1.881  13.339  0.2765 -0.0071  0.2790
17787TIP3    H174776   5.409   1.810  13.372 -0.0798 -0.4950 -0.1600
17787TIP3    H274777   5.401   1.916  13.264  1.4767  1.6390  1.7632
17788TIP3   OH274778   3.465   0.525   0.387  0.2814 -0.3781  0.3658
17788TIP3    H174779   3.405   0.599   0.388  0.8125  0.0621 -0.4020
17788TIP3    H274780   3.411   0.450   0.414 -0.4545  0.1286  0.3102
17789TIP3   OH274781   0.715   0.568   2.401  0.1059  0.2341 -0.2234
17789TIP3    H174782   0.694   0.662   2.403  2.3964  0.7762 -0.0389
17789TIP3    H274783   0.685   0.539   2.315  0.6654  1.4648 -0.8469
17790TIP3   OH274784   6.186   2.962   0.606  0.3140 -0.6521 -0.5048
17790TIP3    H174785   6.180   2.892   0.672 -1.3041  0.6592  0.7775
17790TIP3    H274786   6.279   2.965   0.584  0.4610 -2.9865 -0.3454
17791TIP3   OH274787   1.261   1.518   2.159  1.2801 -0.3310  0.0646
17791TIP3    H174788   1.213   1.471   2.227  0.7444 -0.4547 -0.3901
17791TIP3    H274789   1.339   1.552   2.203  2.3039 -2.6918  0.1341
17792TIP3   OH274790   3.177   0.028  12.931  0.1771 -0.0305 -0.7721
17792TIP3    H174791   3.158   0.121  12.918 -1.0029 -0.0694  0.5396
17792TIP3    H274792   3.262   0.026  12.974 -0.0223  0.4684 -0.3459
17793TIP3   OH274793   2.583   3.324   5.329  0.1070  0.5373  0.0376
17793TIP3    H174794   2.537   3.311   5.412  0.7398 -2.3965 -0.0196
17793TIP3    H274795   2.658   3.380   5.351  0.6138 -0.7127  1.5880
17794TIP3   OH274796   0.429   0.636   2.554 -0.3901  0.6045 -0.2148
17794TIP3    H174797   0.356   0.697   2.562 -1.1431 -0.1835 -1.0333
17794TIP3    H274798   0.500   0.688   2.516 -1.2063  0.8353 -1.4466
17795TIP3   OH274799   6.375   5.832   4.936  0.4669 -0.5261 -0.2472
17795TIP3    H174800   6.364   5.743   4.968  0.4393 -0.5421 -0.2994
17795TIP3    H274801   6.305   5.843   4.871 -1.0437  0.3360  1.4507
17796TIP3   OH274802   4.199   3.287  14.403 -0.0408 -0.1823 -0.5477
17796TIP3    H174803   4.162   3.362  14.449 -1.8473  0.0889 -2.3726
17796TIP3    H274804   4.130   3.221  14.404  0.3646 -0.6489 -1.6991
17797TIP3   OH274805   2.883   2.772  13.584 -0.1415  0.3020 -0.5742
17797TIP3    H174806   2.876   2.865  13.605 -0.7162  0.4533 -1.4353
17797TIP3    H274807   2.811   2.755  13.523  0.7078 -0.4334 -1.3873
17798TIP3   OH274808   0.989   3.463  13.279  0.1519 -0.2326 -0.1902
17798TIP3    H174809   0.916   3.416  13.239  0.2631 -1.6178  1.2145
17798TIP3    H274810   1.019   3.524  13.211 -0.7121 -1.4008 -1.6245
17799TIP3   OH274811   3.969   2.186  10.712  0.2627 -0.0414 -0.2240
17799TIP3    H174812   4.014   2.159  10.792 -1.6592  2.0249  1.6232
17799TIP3    H274813   3.952   2.104  10.665  3.1979 -1.1041  0.4847
17800TIP3   OH274814   1.886   3.440  15.638  0.7887 -0.0577 -0.2188
17800TIP3    H174815   1.819   3.429  15.571 -0.4012 -0.1569  0.9769
17800TIP3    H274816   1.938   3.360  15.633  0.2542 -0.3943 -0.5191
17801TIP3   OH274817   1.858   2.678  12.639  0.1350  0.1229 -0.1355
17801TIP3    H174818   1.902   2.763  12.639  0.4605 -0.0372  0.5575
17801TIP3    H274819   1.832   2.666  12.730 -0.9571  0.0149 -0.4651
17802TIP3   OH274820   4.130   1.302   5.237  0.1821  0.4284  0.5533
17802TIP3    H174821   4.084   1.222   5.211  0.0059 -0.1152  2.4719
17802TIP3    H274822   4.081   1.372   5.194 -0.0289 -0.4295 -0.6508
17803TIP3   OH274823   6.725   5.863   2.564  0.5528 -0.6123 -0.0218
17803TIP3    H174824   6.771   5.790   2.524 -0.7973 -0.9396 -1.0196
17803TIP3    H274825   6.643   5.870   2.515 -0.3225  0.1521  1.4831
17804TIP3   OH274826   2.833   1.760   1.003  0.2626 -0.5301  0.1745
17804TIP3    H174827   2.779   1.823   0.956 -0.4302 -2.4495 -1.6693
17804TIP3    H274828   2.779   1.732   1.076 -0.4123 -0.8973 -0.4697
17805TIP3   OH274829   2.524   2.471  14.764  0.5574  1.2804  0.0466
17805TIP3    H174830   2.584   2.546  14.766  0.9452  0.9672  0.4787
17805TIP3    H274831   2.577   2.397  14.794 -0.1180  1.0496  0.6974
17806TIP3   OH274832   2.878   0.005   6.116  0.1893 -0.1098  0.1425
17806TIP3    H174833   2.824   0.020   6.194  0.1043  0.2736  0.0085
17806TIP3    H274834   2.965   0.038   6.140  0.4654 -1.0635  0.4902
17807TIP3   OH274835   0.210   4.604   4.458 -0.0058 -0.0569 -0.0914
17807TIP3    H174836   0.294   4.560   4.472  0.9049  1.6157 -0.1015
17807TIP3    H274837   0.160   4.587   4.538  0.2054 -1.3473 -0.2261
17808TIP3   OH274838   0.742   6.431   2.899  0.1028 -0.0941 -0.3537
17808TIP3    H174839   0.760   6.496   2.968 -0.1969  0.7429 -1.0500
17808TIP3    H274840   0.659   6.460   2.861 -0.7076 -1.6493  0.2015
17809TIP3   OH274841   1.615   2.684   0.086  0.3798  0.2396 -0.4794
17809TIP3    H174842   1.667   2.757   0.050 -0.5721  0.3227 -1.7196
17809TIP3    H274843   1.562   2.655   0.012 -0.5444 -0.5603  0.5015
17810TIP3   OH274844   3.845   3.157   3.180 -0.2466  0.1088  0.0919
17810TIP3    H174845   3.876   3.239   3.218 -0.7159 -0.2934  1.3770
17810TIP3    H274846   3.921   3.098   3.184 -0.0738  0.3043 -0.3042
17811TIP3   OH274847   0.770   5.984   4.324  0.3237  0.7229 -0.6440
17811TIP3    H174848   0.750   6.025   4.241 -0.0145  2.4875  0.2916
17811TIP3    H274849   0.754   6.052   4.390  0.9139 -0.5242  0.8353
17812TIP3   OH274850   4.708   6.080  16.311 -0.5208  0.0408  0.1939
17812TIP3    H174851   4.733   6.120  16.227  0.8248 -2.7380 -0.8037
17812TIP3    H274852   4.613   6.089  16.315 -0.5146  0.8819 -1.2679
17813TIP3   OH274853   2.213   4.244   1.656 -0.1466  0.1457 -0.0586
17813TIP3    H174854   2.231   4.331   1.693  0.4136 -0.0935  0.2322
17813TIP3    H274855   2.289   4.192   1.680 -0.1835 -0.2522 -0.7985
17814TIP3   OH274856   4.413   1.468   0.254  0.6121 -0.2494 -0.0385
17814TIP3    H174857   4.335   1.463   0.199  1.5323  0.5644 -1.4315
17814TIP3    H274858   4.478   1.414   0.209  1.4024  0.4924  0.2035
17815TIP3   OH274859   2.418   1.366  16.990  0.2806 -0.1087  0.2591
17815TIP3    H174860   2.367   1.299  16.945  1.4051  0.8443 -2.5471
17815TIP3    H274861   2.496   1.321  17.020  0.9986 -0.0987 -1.5600
17816TIP3   OH274862   5.852   2.645  16.697  0.1574 -0.5081  0.2735
17816TIP3    H174863   5.904   2.566  16.682  2.4246  1.0258 -0.3139
17816TIP3    H274864   5.880   2.705  16.628 -0.0700  1.5148  1.8925
17817TIP3   OH274865   0.619   0.376  11.813  0.1167 -1.0626  0.5819
17817TIP3    H174866   0.653   0.301  11.862 -1.7427 -2.4777 -0.2314
17817TIP3    H274867   0.559   0.420  11.873  1.9604  0.4093  1.4070
17818TIP3   OH274868   6.513   0.443   5.391  0.1212 -0.2806 -0.0020
17818TIP3    H174869   6.500   0.413   5.481  0.0471 -0.5936 -0.1175
17818TIP3    H274870   6.543   0.365   5.344 -2.7571 -0.8958 -0.9303
17819TIP3   OH274871   6.759   3.030   1.364  0.2857 -0.3939  0.2697
17819TIP3    H174872   6.806   3.007   1.284  1.4094 -0.2927  0.8766
17819TIP3    H274873   6.829   3.041   1.429 -0.5289  0.6688  0.9716
17820TIP3   OH274874   2.464   1.450  15.260  0.2685  0.0135  0.3564
17820TIP3    H174875   2.553   1.449  15.295 -0.0050 -1.2710  1.0373
17820TIP3    H274876   2.470   1.399  15.179 -0.2058 -1.5643  1.3088
17821TIP3   OH274877   0.291   4.999   2.932 -0.0719  0.0557  0.4759
17821TIP3    H174878   0.198   4.995   2.910  0.0505  0.6109 -0.1688
17821TIP3    H274879   0.297   4.958   3.018 -1.0451  0.7930  0.9073
17822TIP3   OH274880   5.895   6.072  16.957  0.5122 -0.1038  0.4514
17822TIP3    H174881   5.856   5.997  17.002  1.1761 -1.0179 -0.4497
17822TIP3    H274882   5.893   6.143  17.021 -1.9981 -0.3071  0.6583
17823TIP3   OH274883   2.886   6.729  11.216  0.3483  0.0634  0.3119
17823TIP3    H174884   2.875   6.638  11.245 -1.1362 -0.6957 -2.5060
17823TIP3    H274885   2.828   6.779  11.273 -2.0493 -1.3216 -0.8159
17824TIP3   OH274886   4.744   3.422  10.718  0.3627  0.0471  0.3134
17824TIP3    H174887   4.659   3.405  10.758 -0.9972  1.0135 -2.0585
17824TIP3    H274888   4.787   3.482  10.779 -0.6902 -0.3706  1.5005
17825TIP3   OH274889   4.169   2.954  11.576  0.0256 -0.3702 -0.0295
17825TIP3    H174890   4.168   2.929  11.483  3.2728 -1.4613  0.1406
17825TIP3    H274891   4.130   2.879  11.621 -1.8033  0.2731 -0.4893
17826TIP3   OH274892   3.140   2.572   0.016  0.5478  0.4023 -0.1759
17826TIP3    H174893   3.115   2.664   0.023  0.5922  0.3454  0.8574
17826TIP3    H274894   3.203   2.559   0.088  0.9094 -0.3079 -0.6161
17827TIP3   OH274895   2.365   5.518  16.570 -0.1640 -0.0901 -0.0495
17827TIP3    H174896   2.270   5.507  16.571 -0.1424 -0.2876  0.8678
17827TIP3    H274897   2.399   5.434  16.542 -0.1996 -0.6138  1.4470
17828TIP3   OH274898   6.106   0.913  15.246 -0.6979 -0.3360  0.3881
17828TIP3    H174899   6.011   0.927  15.252 -0.6167  0.7104 -0.5989
17828TIP3    H274900   6.145   0.999  15.260  0.0088 -0.3852 -1.1580
17829TIP3   OH274901   0.858   0.796  15.046 -0.4611 -0.1015 -0.3923
17829TIP3    H174902   0.872   0.891  15.038 -1.9253  0.2336  0.6843
17829TIP3    H274903   0.858   0.764  14.956  0.8100  0.8012 -0.7340
17830TIP3   OH274904   3.293   3.010   2.102 -0.0713 -0.5073 -0.7725
17830TIP3    H174905   3.382   3.020   2.137 -0.2939 -1.3800  0.0640
17830TIP3    H274906   3.305   2.971   2.016  0.3730 -0.2092 -0.8495
17831TIP3   OH274907   0.521   6.572   2.628  0.1511 -0.4332 -0.7813
17831TIP3    H174908   0.612   6.575   2.599  0.0790 -2.8527 -1.3664
17831TIP3    H274909   0.511   6.648   2.686  2.5392 -0.1757 -0.6868
17832TIP3   OH274910   0.274   0.224   0.305  0.0727 -0.0012 -0.4021
17832TIP3    H174911   0.287   0.299   0.364  1.8265  0.6144 -1.5339
17832TIP3    H274912   0.192   0.243   0.260 -0.6985  0.0769  1.0122
17833TIP3   OH274913   5.545   6.418  16.764  0.0895 -0.1235  0.3416
17833TIP3    H174914   5.490   6.343  16.786  1.9732 -1.8394 -0.6438
17833TIP3    H274915   5.607   6.424  16.837 -0.3972  0.8329  0.6853
17834TIP3   OH274916   0.593   4.540  15.491 -0.1938  0.2821  0.6308
17834TIP3    H174917   0.536   4.609  15.457  0.3115  0.4476  0.1252
17834TIP3    H274918   0.642   4.582  15.562  0.5193  0.6038 -0.0427
17835TIP3   OH274919   1.243   0.441  16.846 -0.0275  0.3924  0.4481
17835TIP3    H174920   1.245   0.364  16.904  1.0996  0.1115  0.0490
17835TIP3    H274921   1.301   0.504  16.888 -0.1646  0.6530  0.2490
17836TIP3   OH274922   3.114   1.076  11.880  0.1314 -0.2740 -0.4675
17836TIP3    H174923   3.125   1.052  11.972 -0.1930 -0.7616 -0.5522
17836TIP3    H274924   3.054   1.010  11.845  0.6354 -0.3709 -1.1531
17837TIP3   OH274925   4.384   6.309   0.356  0.2015  0.0626 -0.3654
17837TIP3    H174926   4.385   6.289   0.450  2.9338 -0.3025 -0.4464
17837TIP3    H274927   4.388   6.224   0.313 -0.1821  0.2711 -0.8160
17838TIP3   OH274928   5.846   1.166  12.148 -0.0252  0.6322  0.0341
17838TIP3    H174929   5.867   1.166  12.242  1.1633  3.3594 -0.1623
17838TIP3    H274930   5.756   1.197  12.144 -0.3377 -0.2335  0.3153
17839TIP3   OH274931   6.332   2.972  11.902 -0.1490  0.1698  0.3120
17839TIP3    H174932   6.420   3.006  11.914  0.0216  0.1442 -0.8448
17839TIP3    H274933   6.328   2.945  11.810 -1.7081  1.2203  0.0337
17840TIP3   OH274934   1.956   6.445   4.428  0.3062  0.0095 -0.4130
17840TIP3    H174935   1.919   6.425   4.343  0.9552 -1.0754 -0.4519
17840TIP3    H274936   1.949   6.540   4.436  0.1131  0.0976 -1.6145
17841TIP3   OH274937   5.569   6.233  11.054  0.5254 -0.4574  0.1589
17841TIP3    H174938   5.594   6.174  10.983 -0.2836 -0.2500 -0.3064
17841TIP3    H274939   5.590   6.321  11.022  1.4805 -0.4682  0.7444
17842TIP3   OH274940   4.924   5.562   3.051 -0.0729  0.2665 -0.1578
17842TIP3    H174941   4.977   5.634   3.086  0.5571 -0.1029 -0.3351
17842TIP3    H274942   4.949   5.486   3.105  1.1362 -0.3785 -1.5979
17843TIP3   OH274943   3.339   0.346  15.108  0.0727  0.5636  0.5010
17843TIP3    H174944   3.374   0.425  15.067 -0.7458  0.2139 -0.9059
17843TIP3    H274945   3.374   0.274  15.055 -0.5377  0.0803  0.7522
17844TIP3   OH274946   2.574   0.999  14.354 -0.4170  0.8413  0.3839
17844TIP3    H174947   2.667   1.018  14.345 -0.6728  0.9833 -2.3949
17844TIP3    H274948   2.548   1.044  14.434  2.0359  0.2332  1.5696
17845TIP3   OH274949   1.533   5.732   0.881  0.1469 -0.3083  0.4721
17845TIP3    H174950   1.517   5.781   0.962 -1.1558 -1.5297  0.9738
17845TIP3    H274951   1.622   5.699   0.890 -0.1686 -0.8713  1.6601
17846TIP3   OH274952   1.447   3.657  17.217  0.3303  0.0700 -0.1651
17846TIP3    H174953   1.404   3.636  17.135  1.4808 -1.3382 -0.4241
17846TIP3    H274954   1.381   3.705  17.267 -0.1788  1.4819 -2.1325
17847TIP3   OH274955   3.909   3.767  11.754  0.2062 -0.1487 -0.1516
17847TIP3    H174956   3.993   3.812  11.743  0.8065 -1.1023  0.4191
17847TIP3    H274957   3.929   3.676  11.732 -1.0209 -0.1241 -1.4476
17848TIP3   OH274958   2.815   2.344   4.470 -0.3932  0.4128  0.1662
17848TIP3    H174959   2.825   2.289   4.548 -0.8219 -1.1277 -0.8465
17848TIP3    H274960   2.727   2.380   4.477 -0.4080  0.3303  0.4224
17849TIP3   OH274961   4.873   6.728  11.741 -0.0142 -0.5139  0.1709
17849TIP3    H174962   4.857   6.769  11.656  0.8935  1.1971  0.7971
17849TIP3    H274963   4.945   6.779  11.779  0.5332 -2.1417  1.3670
17850TIP3   OH274964   1.670   5.384   5.603 -0.0742 -0.3427 -0.2810
17850TIP3    H174965   1.582   5.351   5.619 -1.1527  2.5718  0.2022
17850TIP3    H274966   1.723   5.348   5.674 -0.7818 -2.3301 -0.7227
17851TIP3   OH274967   5.442   1.705  11.018  0.3599 -0.2957  0.1159
17851TIP3    H174968   5.506   1.745  10.959 -0.1614  0.4636  0.0569
17851TIP3    H274969   5.412   1.628  10.972  1.5463 -0.8980  0.3263
17852TIP3   OH274970   5.622   1.062  17.012 -0.0245 -0.2913 -0.2173
17852TIP3    H174971   5.548   1.095  17.063  0.7309 -1.7227  1.8761
17852TIP3    H274972   5.691   1.127  17.024  0.5899 -1.2797  1.7159
17853TIP3   OH274973   0.299   4.326   3.923 -0.4797  0.0235  0.9461
17853TIP3    H174974   0.278   4.395   3.987 -0.2783  0.5309  0.4650
17853TIP3    H274975   0.390   4.305   3.940 -0.5306 -0.0982  1.0686
17854TIP3   OH274976   5.673   3.001  14.485 -0.0317  0.4640  0.3361
17854TIP3    H174977   5.577   2.998  14.485  0.0190 -3.5476 -0.0783
17854TIP3    H274978   5.697   2.995  14.578 -0.1756  1.1960  0.4211
17855TIP3   OH274979   0.423   0.536   4.560  0.2480 -0.0301  0.1254
17855TIP3    H174980   0.442   0.450   4.599 -0.6214 -0.8978 -1.3162
17855TIP3    H274981   0.328   0.545   4.568  0.3650  0.9199  0.4918
17856TIP3   OH274982   0.771   4.582  11.493  0.3335  0.2709 -0.1447
17856TIP3    H174983   0.810   4.551  11.411  0.7428  1.7552 -0.5274
17856TIP3    H274984   0.685   4.541  11.495  0.9732 -1.0998 -0.5008
17857TIP3   OH274985   4.733   1.547   2.209  0.6774 -0.3053  0.2695
17857TIP3    H174986   4.742   1.478   2.143  0.4094 -0.2716  0.1988
17857TIP3    H274987   4.763   1.506   2.290  0.9026 -0.3800  0.1496
17858TIP3   OH274988   3.328   6.264   4.623 -0.5024 -0.3260  0.2920
17858TIP3    H174989   3.344   6.171   4.607  1.1443 -0.0687  0.3858
17858TIP3    H274990   3.392   6.310   4.569 -0.5199  0.7340  1.1310
17859TIP3   OH274991   2.737   4.129   1.169 -0.4926 -0.0138  0.6150
17859TIP3    H174992   2.748   4.097   1.258 -1.2435  0.7810  0.9945
17859TIP3    H274993   2.812   4.093   1.121  0.3733  0.2449  1.7551
17860TIP3   OH274994   4.495   3.373  14.388 -0.1547  0.0484  0.2822
17860TIP3    H174995   4.418   3.316  14.394  0.3861 -0.7241  0.0777
17860TIP3    H274996   4.569   3.314  14.407  0.4158  0.6811  0.0294
17861TIP3   OH274997   3.233   1.132  10.500  0.0100  0.5127 -0.3921
17861TIP3    H174998   3.178   1.100  10.571 -1.0846  1.1899 -0.9201
17861TIP3    H274999   3.271   1.213  10.532  2.6127 -1.1480  0.8650
17862TIP3   OH275000   5.622   6.172   1.439  0.2051  0.3172 -0.0593
17862TIP3    H175001   5.610   6.241   1.504 -0.7777  0.2402 -0.1492
17862TIP3    H275002   5.640   6.093   1.490 -1.0164  0.1657  0.1347
17863TIP3   OH275003   2.863   3.997  15.178  0.0006  0.0629  0.5936
17863TIP3    H175004   2.945   3.982  15.226  1.4983 -0.6099 -2.0727
17863TIP3    H275005   2.890   4.001  15.086 -2.8556  0.8279 -0.2468
17864TIP3   OH275006   5.175   0.360   3.023 -0.1103  0.3723 -0.4870
17864TIP3    H175007   5.172   0.439   3.077 -0.8262  0.0137  0.0135
17864TIP3    H275008   5.247   0.309   3.059 -1.6105 -0.6146  1.2226
17865TIP3   OH275009   2.495   0.069  12.652 -0.3295 -0.3804 -0.1488
17865TIP3    H175010   2.568   0.023  12.610 -0.2444  0.2004 -0.6404
17865TIP3    H275011   2.417   0.034  12.610 -0.2244  0.4870 -1.0761
17866TIP3   OH275012   0.924   4.441  13.318  0.1738 -0.3920 -0.2834
17866TIP3    H175013   0.965   4.420  13.402  0.4932  0.8343 -0.1233
17866TIP3    H275014   0.949   4.368  13.261  0.0612 -1.1728  0.6388
17867TIP3   OH275015   1.533   2.526  15.087  0.0927  0.0537  0.2620
17867TIP3    H175016   1.584   2.512  15.008 -2.0867  1.1511 -1.3954
17867TIP3    H275017   1.560   2.613  15.118  1.2412 -0.5478  0.9618
17868TIP3   OH275018   2.341   4.293  14.044  0.1206  0.3475  0.3369
17868TIP3    H175019   2.348   4.265  13.953 -2.1242  0.9489 -0.0568
17868TIP3    H275020   2.328   4.388  14.039 -0.0484  0.3772  1.2727
17869TIP3   OH275021   0.312   1.747   5.589  0.4729  0.2856  0.3260
17869TIP3    H175022   0.310   1.654   5.612  0.7957  1.1264  4.0424
17869TIP3    H275023   0.376   1.786   5.648  1.2612  2.7142 -1.9902
17870TIP3   OH275024   5.300   1.761   3.550 -0.2895 -0.5833 -0.0002
17870TIP3    H175025   5.235   1.711   3.599 -1.0013 -0.2588 -0.6118
17870TIP3    H275026   5.378   1.761   3.607 -0.6207 -1.4822  0.4658
17871TIP3   OH275027   3.333   1.296  15.178 -0.3192 -0.0847 -0.2266
17871TIP3    H175028   3.333   1.218  15.233 -1.2603  0.7326  0.9697
17871TIP3    H275029   3.381   1.270  15.099  1.4048 -1.1591  1.1308
17872TIP3   OH275030   1.834   6.333  12.940 -0.1470 -0.3673 -0.0936
17872TIP3    H175031   1.783   6.267  12.893 -0.5476 -0.4926  0.5145
17872TIP3    H275032   1.923   6.300  12.938 -0.4742 -1.3243  0.9013
17873TIP3   OH275033   4.737   0.332  12.872 -0.1045 -0.4402  0.0329
17873TIP3    H175034   4.753   0.398  12.805  0.5935  1.5141  2.0354
17873TIP3    H275035   4.643   0.316  12.869 -0.2673  0.6191 -0.5186
17874TIP3   OH275036   0.438   0.753   1.545  0.2223 -0.1311 -0.6078
17874TIP3    H175037   0.527   0.789   1.545  0.1680  0.0066 -0.0190
17874TIP3    H275038   0.414   0.748   1.637 -0.1946 -0.6420 -0.7451
17875TIP3   OH275039   5.382   3.855   4.044  0.3561  0.4690  0.1976
17875TIP3    H175040   5.322   3.846   4.118  1.3459  2.0534  1.2148
17875TIP3    H275041   5.343   3.923   3.989 -0.0622 -0.2806 -0.4567
17876TIP3   OH275042   4.232   2.886  16.645 -0.5207  0.1352 -0.0650
17876TIP3    H175043   4.202   2.926  16.563 -1.3995  1.6605  0.9662
17876TIP3    H275044   4.180   2.929  16.712 -0.8740 -2.1790  1.1806
17877TIP3   OH275045   4.361   0.984  10.360  0.2783 -0.2326 -0.2005
17877TIP3    H175046   4.395   0.970  10.448  0.4935 -2.3005 -0.5772
17877TIP3    H275047   4.403   1.064  10.330  0.8112  0.0498  1.2751
17878TIP3   OH275048   4.485   1.878   1.060  0.0492 -0.1985  0.7033
17878TIP3    H175049   4.501   1.827   1.139  1.7181 -0.1758  0.3909
17878TIP3    H275050   4.390   1.881   1.052 -0.0925 -4.0679  0.2083
17879TIP3   OH275051   4.048   6.497   1.169 -0.5850  0.0402  0.3882
17879TIP3    H175052   4.072   6.464   1.082  4.4132  0.7824  1.3214
17879TIP3    H275053   4.066   6.591   1.165  2.3044 -0.3081  2.8811
17880TIP3   OH275054   3.965   0.104  12.655 -0.6257 -0.2308 -0.4421
17880TIP3    H175055   3.999   0.185  12.694 -1.9134 -0.0486  0.3351
17880TIP3    H275056   4.019   0.091  12.577  0.3516  0.7520  0.0511
17881TIP3   OH275057   3.151   5.437   2.777  0.1635 -0.2409 -0.3340
17881TIP3    H175058   3.151   5.454   2.683  0.8075 -0.5453 -0.3889
17881TIP3    H275059   3.117   5.348   2.786 -2.2486  0.6502 -0.1075
17882TIP3   OH275060   0.161   6.060  11.674  0.0554 -0.5873  0.3164
17882TIP3    H175061   0.136   6.085  11.584  0.1712 -0.1211  0.4155
17882TIP3    H275062   0.081   6.072  11.725  0.0147 -0.7628  0.2955
17883TIP3   OH275063   5.293   5.473   0.016  0.6547 -0.4188 -0.2686
17883TIP3    H175064   5.198   5.473   0.013  0.6521 -0.5688 -0.1451
17883TIP3    H275065   5.315   5.518   0.098  0.6852 -1.0133  0.0497
17884TIP3   OH275066   3.573   6.154   0.908 -0.3404 -0.0795  0.2776
17884TIP3    H175067   3.666   6.164   0.927  0.1130 -2.8609 -0.2917
17884TIP3    H275068   3.569   6.089   0.838 -2.7123 -0.0519  0.3383
17885TIP3   OH275069   0.812   3.124  11.934 -0.1140  0.4517  0.0277
17885TIP3    H175070   0.867   3.158  12.004  3.5427 -0.9886 -2.0105
17885TIP3    H275071   0.844   3.035  11.919 -2.0758  0.0624 -2.2358
17886TIP3   OH275072   3.666   3.892  16.433  0.2980  0.2958  0.5128
17886TIP3    H175073   3.762   3.894  16.438  0.4318 -0.8623 -1.1364
17886TIP3    H275074   3.640   3.830  16.501  0.6885  0.8639  1.1888
17887TIP3   OH275075   1.034   2.516   0.326 -0.1620  0.0021 -0.1031
17887TIP3    H175076   1.119   2.551   0.355 -0.1563  0.3234 -0.4960
17887TIP3    H275077   1.056   2.463   0.249 -0.1444 -1.0469  0.6241
17888TIP3   OH275078   0.366   5.158  16.319 -0.3244 -0.2735  0.5662
17888TIP3    H175079   0.442   5.180  16.265 -0.1879  0.1595  0.9268
17888TIP3    H275080   0.392   5.185  16.408 -0.1439 -1.8804  1.0261
17889TIP3   OH275081   4.764   0.451  16.527 -0.0743  0.1764 -0.3505
17889TIP3    H175082   4.734   0.538  16.505  0.4110  0.4772  0.1464
17889TIP3    H275083   4.824   0.427  16.456 -2.8592 -1.1791 -2.3140
17890TIP3   OH275084   0.681   1.935   2.249 -0.1791  0.3273 -0.6013
17890TIP3    H175085   0.755   1.905   2.300  0.9885  2.4154 -0.9923
17890TIP3    H275086   0.605   1.919   2.305  0.8871  0.9415  1.0604
17891TIP3   OH275087   0.173   3.520  12.379  0.4907 -0.2037 -0.6907
17891TIP3    H175088   0.227   3.578  12.432 -1.1764  2.3223 -1.6366
17891TIP3    H275089   0.219   3.512  12.295  0.8557 -0.4788 -0.4642
17892TIP3   OH275090   6.659   3.793  12.023 -0.8090  0.6973 -0.3112
17892TIP3    H175091   6.609   3.775  12.103  3.3647  1.4390  2.5830
17892TIP3    H275092   6.684   3.707  11.990 -0.0877  0.4755  0.8056
17893TIP3   OH275093   5.893   5.277  13.464  0.1700  0.0750 -0.4001
17893TIP3    H175094   5.866   5.287  13.373  0.4326  1.1569 -0.3576
17893TIP3    H275095   5.951   5.200  13.463  0.9212  0.6383 -1.3038
17894TIP3   OH275096   4.748   2.742   5.071  0.8852 -0.5810 -0.3088
17894TIP3    H175097   4.798   2.699   5.140  0.6433 -0.1874  0.1155
17894TIP3    H275098   4.721   2.672   5.012 -0.0254 -1.0721  0.6967
17895TIP3   OH275099   4.786   1.993  10.755 -0.0609  0.5546 -0.6700
17895TIP3    H175100   4.824   1.961  10.674  0.2222 -0.7024 -0.0616
17895TIP3    H275101   4.693   2.000  10.737  0.0684  0.7739 -1.2589
17896TIP3   OH275102   0.790   5.552   2.940 -0.5892  0.4105  0.6597
17896TIP3    H175103   0.734   5.529   2.866  0.2889 -0.5294  0.2693
17896TIP3    H275104   0.815   5.467   2.978 -0.8501  0.8731  1.8990
17897TIP3   OH275105   3.279   0.524   4.558  0.6029  0.0943  0.5938
17897TIP3    H175106   3.204   0.492   4.507 -0.7020  2.1573  1.1594
17897TIP3    H275107   3.287   0.461   4.630  0.1954 -0.8298 -0.1522
17898TIP3   OH275108   2.450   0.276  14.151  0.3320 -0.2816 -0.6736
17898TIP3    H175109   2.512   0.350  14.154 -0.6376  0.4894  1.9122
17898TIP3    H275110   2.408   0.284  14.066  1.6638  0.9825 -1.2455
17899TIP3   OH275111   5.588   2.031  15.572 -0.3417 -0.5044 -0.1148
17899TIP3    H175112   5.619   2.080  15.648  0.1624 -0.3487 -0.4211
17899TIP3    H275113   5.652   2.049  15.504 -0.2016 -1.5351 -0.2560
17900TIP3   OH275114   5.954   3.614   2.653  0.0922 -0.5175  0.2971
17900TIP3    H175115   6.038   3.570   2.665  0.8233  0.6101 -0.6047
17900TIP3    H275116   5.977   3.705   2.636 -1.2421 -0.5263 -1.6454
17901TIP3   OH275117   4.652   2.193   0.578 -0.0647  0.5530  0.1752
17901TIP3    H175118   4.726   2.137   0.554 -0.9620 -0.5986  0.0879
17901TIP3    H275119   4.684   2.282   0.561  2.5125  0.3220  3.3527
17902TIP3   OH275120   2.693   1.759   2.430 -0.5141  0.8097  0.2093
17902TIP3    H175121   2.730   1.761   2.342  0.3191  0.1181  0.5379
17902TIP3    H275122   2.685   1.851   2.455 -0.3310  0.9953 -0.4095
17903TIP3   OH275123   0.503   2.274   3.961 -0.0159 -0.0972 -0.3777
17903TIP3    H175124   0.530   2.189   3.994  0.4311  0.9460  2.0441
17903TIP3    H275125   0.581   2.329   3.968 -0.0312  0.2867 -2.8176
17904TIP3   OH275126   0.468   0.050   4.759 -0.0283  0.0920 -0.0862
17904TIP3    H175127   0.514   0.009   4.833 -1.1042 -0.2311  0.4208
17904TIP3    H275128   0.445  -0.024   4.702 -0.8139  0.1331  0.1742
17905TIP3   OH275129   6.149   4.436   5.278 -0.1726 -0.0144 -0.1106
17905TIP3    H175130   6.141   4.375   5.351 -3.3175 -1.5855 -1.6431
17905TIP3    H275131   6.136   4.522   5.317 -2.6390 -0.8924  1.1378
17906TIP3   OH275132   0.774   2.423   5.353  0.3503 -0.4317 -0.2245
17906TIP3    H175133   0.835   2.368   5.404 -1.1336 -0.8838  1.1068
17906TIP3    H275134   0.743   2.488   5.416 -0.0317  0.2017 -1.0704
17907TIP3   OH275135   6.244   5.235   3.202 -0.6475  0.2076 -0.6004
17907TIP3    H175136   6.316   5.173   3.214  0.4804  1.5461 -0.2234
17907TIP3    H275137   6.233   5.241   3.107 -1.1967 -1.0437 -0.6183
17908TIP3   OH275138   5.415   5.385  13.914 -0.3117 -0.2233  0.4766
17908TIP3    H175139   5.436   5.451  13.979  0.6545 -0.3168  0.2635
17908TIP3    H275140   5.320   5.392  13.903 -0.8199 -1.6456  3.4406
17909TIP3   OH275141   3.857   6.201  11.483  0.0603 -0.5104 -0.3171
17909TIP3    H175142   3.838   6.290  11.512  0.1876 -1.0184  1.3557
17909TIP3    H275143   3.772   6.160  11.471  0.0136 -0.4253 -0.2712
17910TIP3   OH275144   4.121   0.903  15.772  0.2213 -0.3866 -0.4152
17910TIP3    H175145   4.150   0.961  15.843 -2.0040  0.1223  0.1041
17910TIP3    H275146   4.183   0.919  15.701  1.9230 -0.2137  1.0740
17911TIP3   OH275147   5.451   3.027   3.937 -0.3546 -0.3217  0.2427
17911TIP3    H175148   5.506   2.953   3.909  1.7373  0.7250  1.4058
17911TIP3    H275149   5.442   3.082   3.859  1.6547  0.3141  0.4281
17912TIP3   OH275150   3.559   4.381  12.543 -0.2341  0.3867  0.3560
17912TIP3    H175151   3.640   4.330  12.541 -0.2301  0.4290 -1.7035
17912TIP3    H275152   3.490   4.317  12.523 -0.5466  0.6365  0.6274
17913TIP3   OH275153   2.398   6.138  11.861 -0.0053  0.3583  0.2757
17913TIP3    H175154   2.480   6.121  11.908  0.1490 -0.0194 -0.1308
17913TIP3    H275155   2.393   6.233  11.854  0.0404  0.4104  0.9408
17914TIP3   OH275156   5.069   5.967  12.313  0.1138  0.1959  0.0595
17914TIP3    H175157   5.048   5.942  12.223 -1.4220  0.4736  0.3216
17914TIP3    H275158   5.140   6.030  12.304  0.3980 -0.2442 -0.9185
17915TIP3   OH275159   0.594   5.712   4.442  0.6164  0.2613  0.4023
17915TIP3    H175160   0.641   5.640   4.484  1.2489  0.1693 -0.4346
17915TIP3    H275161   0.537   5.668   4.378  2.2693  0.5724 -1.3352
17916TIP3   OH275162   0.118   2.244  12.693  0.5310  0.1333 -0.4043
17916TIP3    H175163   0.121   2.152  12.667 -1.5589  0.7416 -3.0223
17916TIP3    H275164   0.067   2.245  12.774 -1.5587 -0.7939 -1.6723
17917TIP3   OH275165   5.262   5.667  14.321  0.1979  0.4170  0.7061
17917TIP3    H175166   5.232   5.613  14.394  3.4143  0.3107  2.0209
17917TIP3    H275167   5.260   5.608  14.245 -1.2845 -0.0232  1.0711
17918TIP3   OH275168   2.237   0.837  14.508  0.2801  0.3705  0.5797
17918TIP3    H175169   2.252   0.898  14.581  0.7787  0.1263  0.6801
17918TIP3    H275170   2.300   0.767  14.521  0.2381  0.2229  0.0201
17919TIP3   OH275171   0.918   6.180   1.511 -0.3533 -0.5322 -0.5021
17919TIP3    H175172   0.951   6.214   1.594  1.2172 -2.0011 -0.4938
17919TIP3    H275173   0.968   6.226   1.444 -0.2322 -0.7813 -0.5815
17920TIP3   OH275174   5.075   5.749  11.296  0.0478  0.3340  0.2646
17920TIP3    H175175   5.098   5.664  11.334  2.0526  0.9579  0.5259
17920TIP3    H275176   5.069   5.731  11.202 -0.4652 -0.2909  0.4115
17921TIP3   OH275177   6.659   2.973  10.784 -0.0434 -0.2051 -0.3887
17921TIP3    H175178   6.725   3.042  10.778  0.5728 -0.9428 -2.5725
17921TIP3    H275179   6.585   3.015  10.828  1.5240  0.8966  1.2725
17922TIP3   OH275180   0.576   3.904  13.653 -0.2131  0.0988  0.0888
17922TIP3    H175181   0.566   3.972  13.586  0.6609  0.0326 -0.1144
17922TIP3    H275182   0.533   3.827  13.616 -0.7680  0.3900  0.1096
17923TIP3   OH275183   6.552   6.552  12.207 -0.2838  0.1765 -0.1703
17923TIP3    H175184   6.577   6.509  12.289 -2.2441  0.6359  0.6941
17923TIP3    H275185   6.625   6.536  12.148  2.1852  1.7894  2.3591
17924TIP3   OH275186   0.747   4.578   4.957  0.0147 -0.0827  0.4910
17924TIP3    H175187   0.842   4.567   4.964  0.3399  2.8401  1.4061
17924TIP3    H275188   0.716   4.568   5.047 -0.4050  0.1346  0.3682
17925TIP3   OH275189   4.886   5.189  17.073  0.3842 -0.3352  0.6145
17925TIP3    H175190   4.901   5.271  17.026  2.1074 -1.1304 -0.2731
17925TIP3    H275191   4.970   5.143  17.070 -1.0396 -3.0137 -0.6335
17926TIP3   OH275192   1.752   0.013  16.616  0.2856  0.6391  0.1661
17926TIP3    H175193   1.713  -0.055  16.671  0.8767  0.0303 -0.1755
17926TIP3    H275194   1.843  -0.013  16.606  0.4909  1.4380 -0.0386
17927TIP3   OH275195   3.232   0.310   0.518 -0.0999  0.2058 -0.1075
17927TIP3    H175196   3.217   0.252   0.443 -4.3857 -0.2714  0.9861
17927TIP3    H275197   3.270   0.253   0.585 -0.1063 -0.2972 -0.5301
17928TIP3   OH275198   2.513   1.798   1.106 -0.1470  0.3508 -0.3144
17928TIP3    H175199   2.519   1.818   1.199 -2.8842 -1.4525  0.3370
17928TIP3    H275200   2.436   1.846   1.076  0.5058  0.6309 -1.5663
17929TIP3   OH275201   6.490   6.193  14.418 -0.4093 -0.3383  0.6721
17929TIP3    H175202   6.461   6.102  14.415  0.1145 -0.4609 -3.0787
17929TIP3    H275203   6.555   6.196  14.489  0.0072 -3.0010  0.4357
17930TIP3   OH275204   5.393   0.080  17.167 -0.0257  0.3637  0.0457
17930TIP3    H175205   5.385   0.089  17.262 -0.6151 -3.0314  0.3906
17930TIP3    H275206   5.305   0.058  17.137  0.4967 -0.3055 -1.0421
17931TIP3   OH275207   6.196   5.151   5.484  0.3613  0.2139 -0.3820
17931TIP3    H175208   6.256   5.212   5.441  1.6574 -0.2596  0.6977
17931TIP3    H275209   6.219   5.157   5.577 -2.5276  1.3717  0.2817
17932TIP3   OH275210   2.740   4.082  16.523  0.1751 -0.0908 -0.1214
17932TIP3    H175211   2.809   4.028  16.561  1.4043  0.3497 -1.6513
17932TIP3    H275212   2.756   4.170  16.558  1.7857  0.4842 -2.1514
17933TIP3   OH275213   6.110   5.213   5.991 -0.9769  0.1074  0.1751
17933TIP3    H175214   6.157   5.255   6.062  0.5118 -1.6907  0.3169
17933TIP3    H275215   6.065   5.139   6.033  0.6633 -1.5176 -0.8437
17934TIP3   OH275216   4.820   1.015  14.775 -0.1075  0.0499 -0.0572
17934TIP3    H175217   4.892   1.077  14.765  0.7297 -0.7708  0.7284
17934TIP3    H275218   4.846   0.939  14.723 -0.2329 -0.3905  0.5109
17935TIP3   OH275219   2.700   3.513   6.004  0.2623  0.3801  0.1690
17935TIP3    H175220   2.693   3.564   6.084  3.9972  2.2156 -0.5570
17935TIP3    H275221   2.755   3.438   6.028 -1.6743 -1.0586  0.1876
17936TIP3   OH275222   1.375   2.921  14.858 -0.1239  0.2971  0.5680
17936TIP3    H175223   1.307   2.989  14.856  0.0612  0.5111  1.2915
17936TIP3    H275224   1.381   2.896  14.950  0.5774  0.0782  0.4651
17937TIP3   OH275225   1.716   5.126  13.717  0.4094  0.3003 -0.7300
17937TIP3    H175226   1.706   5.195  13.782 -0.4688 -2.4780  2.2644
17937TIP3    H275227   1.811   5.114  13.709  0.5258 -0.3968  1.3425
17938TIP3   OH275228   4.408   6.684   3.048  0.0451 -0.3531 -0.3102
17938TIP3    H175229   4.442   6.754   2.992 -1.7963 -0.4778 -1.6377
17938TIP3    H275230   4.439   6.707   3.136 -0.7310  2.2835 -0.6749
17939TIP3   OH275231   4.872   2.080  10.997 -0.2753 -0.4364 -0.2793
17939TIP3    H175232   4.956   2.036  11.011 -0.5693 -1.1816 -0.8156
17939TIP3    H275233   4.832   2.033  10.923 -2.3552 -1.8630  1.6904
17940TIP3   OH275234   1.461   4.373  13.831 -0.4043  0.2776  0.7561
17940TIP3    H175235   1.518   4.449  13.815 -1.1387  0.6266 -0.2216
17940TIP3    H275236   1.373   4.406  13.815 -0.7806 -0.6092  1.0131
17941TIP3   OH275237   5.418   4.614   1.025 -0.3972  0.2140 -0.2639
17941TIP3    H175238   5.353   4.684   1.037  0.2447  0.5837  1.2171
17941TIP3    H275239   5.467   4.614   1.107  1.7546  0.2174 -1.5227
17942TIP3   OH275240   2.059   5.325  12.256  0.2368 -0.1945  0.0430
17942TIP3    H175241   2.063   5.236  12.221  3.1777 -0.7371  1.5860
17942TIP3    H275242   2.098   5.380  12.188  0.5173 -0.3966  0.0422
17943TIP3   OH275243   1.684   1.923  14.034 -0.5997  0.0467  0.0097
17943TIP3    H175244   1.662   1.974  14.112 -0.5332  0.5729 -0.3104
17943TIP3    H275245   1.604   1.875  14.013 -0.6530 -0.0057  0.3327
17944TIP3   OH275246   4.683   4.203  14.632 -0.1357  0.2203 -0.4386
17944TIP3    H175247   4.736   4.247  14.566 -2.6874  1.7270 -1.5912
17944TIP3    H275248   4.619   4.152  14.581  0.2800 -1.6912  0.8941
17945TIP3   OH275249   6.502   1.779  13.848  0.2597  0.1916 -0.2565
17945TIP3    H175250   6.553   1.745  13.775 -0.0847  0.9181 -0.8401
17945TIP3    H275251   6.521   1.873  13.849 -1.4825  0.5714 -0.8331
17946TIP3   OH275252   0.182   4.496   0.757 -0.2467 -0.1559 -0.6385
17946TIP3    H175253   0.251   4.442   0.795  1.0342  0.9561 -1.3327
17946TIP3    H275254   0.228   4.574   0.727 -1.5648 -0.0964 -2.5294
17947TIP3   OH275255   5.597   5.053   0.906  0.5462 -0.1589 -0.5972
17947TIP3    H175256   5.667   5.045   0.970 -0.8568 -1.0453  0.8478
17947TIP3    H275257   5.635   5.019   0.825  2.5227  1.5310 -0.4059
17948TIP3   OH275258   1.249   5.864  14.589  0.1936  0.6163  0.3496
17948TIP3    H175259   1.167   5.820  14.571  0.7451 -1.1696  2.0172
17948TIP3    H275260   1.224   5.944  14.635 -0.5957 -0.1546  1.2700
17949TIP3   OH275261   1.344   2.711  12.142 -0.1346 -0.4253  0.0038
17949TIP3    H175262   1.280   2.732  12.074 -1.9681 -1.2307  1.4302
17949TIP3    H275263   1.358   2.616  12.135  1.0886 -0.2212 -0.4481
17950TIP3   OH275264   0.004   6.196  17.038 -0.2402 -0.4684  0.6698
17950TIP3    H175265  -0.063   6.234  17.095 -1.5611 -2.7103  0.6514
17950TIP3    H275266  -0.033   6.203  16.950  0.8854  1.0376  0.2845
17951TIP3   OH275267   5.215   0.593  11.733  0.4698 -0.5480  0.2461
17951TIP3    H175268   5.171   0.663  11.781 -0.7150 -0.5824 -0.7655
17951TIP3    H275269   5.296   0.578  11.782  0.1771  0.7053  1.1475
17952TIP3   OH275270   1.453   3.679   5.024  0.7003  0.2551 -0.7862
17952TIP3    H175271   1.455   3.586   5.046  2.3808  0.9189  2.1891
17952TIP3    H275272   1.503   3.721   5.094 -1.5262  3.5961 -1.1122
17953TIP3   OH275273   1.758   2.203   5.866 -0.4720  0.2453 -0.0758
17953TIP3    H175274   1.823   2.203   5.795  0.9953  1.9069  1.2240
17953TIP3    H275275   1.677   2.175   5.824  0.2737  1.5979 -2.5332
17954TIP3   OH275276   1.315   1.035  13.213  0.1173 -0.3787 -0.2707
17954TIP3    H175277   1.348   1.104  13.271  1.5694 -0.3656 -1.0720
17954TIP3    H275278   1.373   0.961  13.229 -0.7403 -1.0434 -0.2319
17955TIP3   OH275279   2.003   6.340  16.090  0.7790  0.1837 -0.1732
17955TIP3    H175280   1.977   6.383  16.172 -1.9379  0.1034 -0.9618
17955TIP3    H275281   1.990   6.407  16.023 -0.4466 -0.8532 -0.9933
17956TIP3   OH275282   0.999   3.771  16.850 -0.1538  0.3038  0.1283
17956TIP3    H175283   1.017   3.815  16.767 -2.9248  0.5473 -0.3822
17956TIP3    H275284   1.061   3.698  16.852 -0.5428 -0.1559 -2.5192
17957TIP3   OH275285   3.600   1.946   2.973  0.0591 -0.0235  0.1541
17957TIP3    H175286   3.615   1.861   2.930  0.5298  0.8996 -1.5428
17957TIP3    H275287   3.563   2.001   2.904 -1.5395  0.7604  1.6143
17958TIP3   OH275288   4.315   0.411   9.981 -0.5488  0.4343 -0.7077
17958TIP3    H175289   4.400   0.424  10.022 -0.3094 -0.1455 -1.0160
17958TIP3    H275290   4.292   0.320  10.001 -0.4225  0.1341 -1.8543
17959TIP3   OH275291   5.093   2.964  16.776  0.6010 -0.2778 -0.3136
17959TIP3    H175292   5.135   2.915  16.847 -0.9831 -1.0662  0.1044
17959TIP3    H275293   5.145   3.044  16.769  0.6905 -0.0976  1.8862
17960TIP3   OH275294   3.413   3.978  11.138 -0.1905 -0.4120 -0.3079
17960TIP3    H175295   3.342   4.016  11.190 -0.4544 -0.3965 -0.6826
17960TIP3    H275296   3.370   3.913  11.082  0.0879 -0.3875 -0.5488
17961TIP3   OH275297   1.806   2.362  15.401 -0.6736  0.1101  0.1609
17961TIP3    H175298   1.805   2.458  15.409 -2.0346  0.1707 -0.5675
17961TIP3    H275299   1.810   2.347  15.306  1.7457 -0.5740  0.3254
17962TIP3   OH275300   2.933   3.178  13.977 -0.3335  1.1745  0.3844
17962TIP3    H175301   2.974   3.131  14.050  0.7374  0.3865 -0.6993
17962TIP3    H275302   2.980   3.262  13.975  0.9118  0.4732 -0.5370
17963TIP3   OH275303   2.441   0.624  15.574  0.6236  0.6745  0.4100
17963TIP3    H175304   2.458   0.717  15.588  3.7701  0.0174  1.3067
17963TIP3    H275305   2.465   0.608  15.483  1.8787  0.4037  0.7722
17964TIP3   OH275306   3.893   2.299   1.793  0.1419  0.4358  0.2253
17964TIP3    H175307   3.876   2.236   1.724  0.1656  1.7815 -1.0312
17964TIP3    H275308   3.819   2.291   1.853 -0.1886 -0.2889 -0.2904
17965TIP3   OH275309   1.207   0.218   6.335  0.4498  0.1341 -0.9947
17965TIP3    H175310   1.286   0.173   6.305  1.1173  0.8238 -0.2734
17965TIP3    H275311   1.179   0.170   6.413  1.0678  0.8743 -0.3207
17966TIP3   OH275312   5.008   0.043  14.367  0.0516 -0.2064  0.1936
17966TIP3    H175313   5.000  -0.051  14.354 -1.1621  0.0163 -0.8762
17966TIP3    H275314   4.918   0.073  14.382  0.3575  0.8427  0.0073
17967TIP3   OH275315   5.897   6.663   2.011  0.2018  0.1416 -0.6406
17967TIP3    H175316   5.952   6.626   2.079  1.3427  2.8541 -0.0022
17967TIP3    H275317   5.826   6.708   2.058 -0.0046  0.5207 -1.3046
17968TIP3   OH275318   5.036   5.629  15.199  0.1514  0.5002  0.2848
17968TIP3    H175319   4.995   5.673  15.274  1.3627  0.9152  0.7065
17968TIP3    H275320   5.043   5.538  15.226  0.9514  0.7228  0.8333
17969TIP3   OH275321   0.689   5.078   2.283 -0.4568  0.2907 -0.2052
17969TIP3    H175322   0.769   5.061   2.333  0.8548 -0.2635 -2.4256
17969TIP3    H275323   0.684   5.173   2.276  1.3224  0.2697 -2.0710
17970TIP3   OH275324   3.673   3.864   2.742  0.2875  0.5095  0.1988
17970TIP3    H175325   3.698   3.952   2.771  1.0668  0.2889  0.1896
17970TIP3    H275326   3.670   3.812   2.823  0.1474  0.4647  0.1647
17971TIP3   OH275327   1.928   2.441  10.596  0.2318 -0.1985 -0.6580
17971TIP3    H175328   1.931   2.462  10.503 -2.4533 -0.6553 -0.8778
17971TIP3    H275329   1.835   2.433  10.616  0.6954  1.1495  2.3456
17972TIP3   OH275330   5.729   6.664   4.026 -0.2521 -0.1958  0.3891
17972TIP3    H175331   5.706   6.723   3.953 -0.4789 -0.3963  0.2981
17972TIP3    H275332   5.668   6.688   4.095 -0.5753 -0.5665  0.2306
17973TIP3   OH275333   4.777   2.654  13.423  0.4483  0.1260  0.4278
17973TIP3    H175334   4.737   2.615  13.345  0.2801  0.3102  0.4229
17973TIP3    H275335   4.871   2.645  13.408  0.4174  0.2334  0.1662
17974TIP3   OH275336   6.378   2.584  12.861  0.1487  0.3960  0.3736
17974TIP3    H175337   6.307   2.587  12.797 -0.9761  0.8536  1.6261
17974TIP3    H275338   6.436   2.655  12.835 -0.2764  0.5541 -0.1660
17975TIP3   OH275339   5.236   4.899   6.010  0.6039  0.1719 -0.6019
17975TIP3    H175340   5.257   4.869   6.098 -1.3351  0.1601 -0.1287
17975TIP3    H275341   5.248   4.821   5.955  1.0866 -0.0038 -0.2581
17976TIP3   OH275342   6.230   2.878   6.356  0.6058  0.3360 -0.4894
17976TIP3    H175343   6.232   2.807   6.292  1.4943  0.1656 -0.2817
17976TIP3    H275344   6.298   2.854   6.419  0.2771  0.9069  0.0799
17977TIP3   OH275345   5.483   2.477   6.268  0.2145  0.4572  0.2242
17977TIP3    H175346   5.445   2.480   6.181  0.6775 -2.9353 -0.1524
17977TIP3    H275347   5.457   2.392   6.303  1.1925  1.1802  2.8560
17978TIP3   OH275348   3.844   3.235  11.495  0.3537 -0.6714  0.1606
17978TIP3    H175349   3.938   3.218  11.487  0.5580  0.2726  0.4528
17978TIP3    H275350   3.834   3.328  11.473 -0.5162 -0.7820  0.0698
17979TIP3   OH275351   2.323   1.824   1.550 -0.0392 -0.5689 -0.2209
17979TIP3    H175352   2.291   1.889   1.612 -1.3506 -1.0237 -0.3979
17979TIP3    H275353   2.384   1.771   1.601  0.0177 -0.0300  0.2813
17980TIP3   OH275354   6.221   2.373  14.850  0.7247  0.7923 -0.3937
17980TIP3    H175355   6.201   2.283  14.876  1.5678  0.6775 -0.1254
17980TIP3    H275356   6.195   2.426  14.925  1.6735  0.6156  0.0683
17981TIP3   OH275357   6.280   3.590   2.073  0.1429  0.1934  0.2069
17981TIP3    H175358   6.195   3.634   2.067 -0.4221 -0.8328  0.6355
17981TIP3    H275359   6.260   3.502   2.102  1.0756 -1.0017 -2.5296
17982TIP3   OH275360   4.873   5.809  12.774 -0.2422 -0.2343  0.0023
17982TIP3    H175361   4.947   5.764  12.814 -2.1701 -2.5305  1.1614
17982TIP3    H275362   4.889   5.901  12.790  2.5474 -0.6509 -0.1423
17983TIP3   OH275363   1.069   1.090  13.114  0.1691  0.6696 -0.4269
17983TIP3    H175364   1.135   1.030  13.149 -1.1665  0.8171  2.4444
17983TIP3    H275365   1.087   1.174  13.155 -0.6791  1.1763 -1.0538
17984TIP3   OH275366   6.181   4.380   0.862 -0.6436 -0.1021 -0.4598
17984TIP3    H175367   6.251   4.393   0.926  0.1211 -1.9112 -0.8733
17984TIP3    H275368   6.219   4.406   0.779 -1.4518  1.7161 -0.2716
17985TIP3   OH275369   2.447   6.136  13.735 -0.2143  0.1586 -0.3339
17985TIP3    H175370   2.455   6.055  13.786  2.5690  1.7653  1.9765
17985TIP3    H275371   2.448   6.107  13.644 -3.7811 -2.7002  0.4234
17986TIP3   OH275372   4.543   2.800  17.123  0.5045  0.2991 -0.1511
17986TIP3    H175373   4.592   2.742  17.181  0.3432  0.7085  0.3909
17986TIP3    H275374   4.594   2.801  17.042  0.4356 -0.7265 -0.2245
17987TIP3   OH275375   3.930   5.112   6.408  0.3557  0.4550  0.7018
17987TIP3    H175376   3.899   5.200   6.385 -2.0218 -0.4979  0.1437
17987TIP3    H275377   3.884   5.090   6.489 -0.1599 -0.8336  0.0686
17988TIP3   OH275378   2.794   6.250  11.140 -0.3499 -0.0540 -0.3917
17988TIP3    H175379   2.778   6.291  11.055 -1.8238  1.2876  0.5085
17988TIP3    H275380   2.820   6.322  11.196 -0.8490 -0.6997  0.6757
17989TIP3   OH275381   5.069   5.887  15.896 -0.3276 -0.0114  0.0333
17989TIP3    H175382   5.090   5.979  15.880  1.0970 -0.1964  0.6829
17989TIP3    H275383   4.974   5.883  15.898 -0.3911  1.5010  0.2763
17990TIP3   OH275384   1.220   1.521   4.636 -0.5901 -0.2535  0.0070
17990TIP3    H175385   1.198   1.434   4.604  0.6842 -0.2136 -1.0109
17990TIP3    H275386   1.166   1.532   4.714 -2.3959 -1.0701 -1.0962
17991TIP3   OH275387   5.543   6.585   2.325 -0.1159  0.3992 -0.8310
17991TIP3    H175388   5.587   6.553   2.404 -1.2918  0.4594 -0.1479
17991TIP3    H275389   5.615   6.614   2.268  0.7090  0.9256  0.4509
17992TIP3   OH275390   3.689   3.695  11.267  0.6940 -0.1597  0.2348
17992TIP3    H175391   3.686   3.783  11.231 -0.8621 -1.0006 -1.7797
17992TIP3    H275392   3.761   3.652  11.222 -0.7088 -0.9436 -1.3222
17993TIP3   OH275393   1.544   1.065   6.106  0.3957 -0.9571 -0.5219
17993TIP3    H175394   1.579   1.154   6.109  0.4702 -0.8848 -2.4319
17993TIP3    H275395   1.450   1.077   6.090  0.3981 -1.2131 -0.7239
17994TIP3   OH275396   0.425   6.558  13.790 -0.1175 -0.4051  0.0714
17994TIP3    H175397   0.486   6.596  13.727 -1.3937  0.2569 -0.7715
17994TIP3    H275398   0.431   6.615  13.867 -1.1637  0.8277 -0.7579
17995TIP3   OH275399   4.102   5.397  11.773 -0.2410  0.3073 -0.3391
17995TIP3    H175400   4.085   5.458  11.845 -0.6577  0.2131 -0.3495
17995TIP3    H275401   4.125   5.452  11.699 -0.5625  0.4501 -0.3339
17996TIP3   OH275402   2.299   4.408   0.942  0.1283 -0.0409  0.1537
17996TIP3    H175403   2.225   4.423   0.883  0.3191  1.1147  0.1858
17996TIP3    H275404   2.346   4.491   0.942  2.2601 -1.2338 -0.9900
17997TIP3   OH275405   3.223   3.809   0.304  0.5560  0.8015 -0.1300
17997TIP3    H175406   3.223   3.737   0.241  1.2033  1.2691 -0.6697
17997TIP3    H275407   3.314   3.839   0.307  1.0694 -0.8305  2.9239
17998TIP3   OH275408   3.030   1.186   3.179  0.5530  0.4557 -0.1714
17998TIP3    H175409   3.050   1.176   3.272  1.4683  1.3118 -0.2697
17998TIP3    H275410   3.023   1.096   3.146  1.4984  0.1541  0.4462
17999TIP3   OH275411   5.140   0.732   5.486  0.7722 -0.1527  0.1877
17999TIP3    H175412   5.201   0.801   5.460  1.4569 -0.7745  0.1003
17999TIP3    H275413   5.179   0.652   5.451 -0.5908 -0.4521 -0.6768
18000TIP3   OH275414   3.901   5.437   3.968  0.2532  0.2079 -0.3291
18000TIP3    H175415   3.906   5.354   4.016  0.6652 -0.2028 -1.0738
18000TIP3    H275416   3.992   5.459   3.949  0.0297 -0.2978 -2.0472
18001TIP3   OH275417   1.229   5.306   1.571 -0.0281  0.3449  0.2851
18001TIP3    H175418   1.271   5.380   1.525 -1.2107 -0.0956 -1.5388
18001TIP3    H275419   1.193   5.345   1.650  3.9713  0.7209  2.0665
18002TIP3   OH275420   6.381   5.388   5.035  0.1505 -0.1715 -0.3855
18002TIP3    H175421   6.297   5.376   5.080 -0.2044  1.1648 -0.6645
18002TIP3    H275422   6.439   5.425   5.103  0.4066 -0.7285 -0.2981
18003TIP3   OH275423   4.348   2.993   1.215 -0.4913 -0.0447  0.0036
18003TIP3    H175424   4.292   2.957   1.147 -0.1731 -0.4347 -0.0549
18003TIP3    H275425   4.407   2.921   1.239  0.5375  0.6106 -0.5285
18004TIP3   OH275426   2.396   4.750   1.602 -0.3831 -0.2576  0.3225
18004TIP3    H175427   2.467   4.743   1.539 -0.0261 -2.7125  0.9370
18004TIP3    H275428   2.439   4.744   1.688 -1.2907 -1.6620  0.6993
18005TIP3   OH275429   0.474   0.599   4.028 -0.8216  0.1838 -0.4513
18005TIP3    H175430   0.508   0.671   3.975  2.0270 -0.7367  0.0161
18005TIP3    H275431   0.465   0.636   4.116 -0.2045  0.2296 -0.4041
18006TIP3   OH275432   4.722   4.668  17.185 -0.2650 -0.4683 -0.0918
18006TIP3    H175433   4.735   4.748  17.134 -1.4482 -0.6620 -0.7222
18006TIP3    H275434   4.629   4.648  17.174 -0.2413 -1.2395  1.0846
18007TIP3   OH275435   6.048   2.686   1.937 -0.1567 -0.1382 -0.1493
18007TIP3    H175436   5.986   2.754   1.964  1.1578  1.3486 -0.8055
18007TIP3    H275437   5.996   2.606   1.936 -1.8495  0.9206  0.2078
18008TIP3   OH275438   6.294   1.348  16.742  0.6008 -0.0727  0.2954
18008TIP3    H175439   6.258   1.436  16.752 -1.5274 -0.7435 -1.1380
18008TIP3    H275440   6.304   1.316  16.831 -1.0694  0.6763  0.7751
18009TIP3   OH275441   1.679   4.403  14.079 -0.6409  0.0123 -0.2656
18009TIP3    H175442   1.674   4.330  14.141  0.8156 -1.9013 -2.3117
18009TIP3    H275443   1.712   4.364  13.999 -0.5052  2.8252 -1.6473
18010TIP3   OH275444   6.118   1.330  15.545  0.3318  0.1455  0.0591
18010TIP3    H175445   6.201   1.375  15.558  0.0572  0.7642 -0.3100
18010TIP3    H275446   6.079   1.326  15.633 -1.0560  3.4170 -0.3679
18011TIP3   OH275447   0.203   3.840  13.826  0.3459  0.6305 -0.5404
18011TIP3    H175448   0.128   3.883  13.867 -0.7368 -0.9899 -0.7489
18011TIP3    H275449   0.171   3.752  13.805  2.1322  0.1123 -1.1748
18012TIP3   OH275450   0.035   1.462  12.996  0.7331 -0.0487 -0.1751
18012TIP3    H175451  -0.015   1.511  13.061  0.2079 -0.4719 -0.2556
18012TIP3    H275452   0.014   1.504  12.912 -1.0605 -1.4529 -0.4654
18013TIP3   OH275453   3.127   3.691  16.711  0.2261  0.2126 -0.5884
18013TIP3    H175454   3.160   3.603  16.691 -2.2864 -0.5116 -1.7499
18013TIP3    H275455   3.070   3.678  16.787  0.2625  0.9185 -0.4378
18014TIP3   OH275456   2.127   4.130  13.272 -0.1053 -0.3183 -0.8320
18014TIP3    H175457   2.041   4.137  13.231 -0.4454  3.0113  0.3281
18014TIP3    H275458   2.126   4.043  13.313 -3.0061 -0.2559 -0.6590
18015TIP3   OH275459   5.098   6.493   3.010 -0.3004 -0.6718  1.1892
18015TIP3    H175460   5.033   6.454   2.953  0.9879  0.9942 -1.5207
18015TIP3    H275461   5.173   6.433   3.005 -0.2621 -0.6340  1.3036
18016TIP3   OH275462   6.604   3.797  17.028 -0.7936  0.7212 -0.5352
18016TIP3    H175463   6.661   3.721  17.029 -0.3314  1.0851  0.6270
18016TIP3    H275464   6.516   3.761  17.027 -0.5712  0.1732 -0.5860
18017TIP3   OH275465   6.128   6.309   1.053  0.1767  0.1093  0.0101
18017TIP3    H175466   6.114   6.328   1.146  3.4167 -0.1043  0.6152
18017TIP3    H275467   6.137   6.214   1.049  0.4538  0.1548 -0.4518
18018TIP3   OH275468   3.822   0.487  16.445 -0.6169 -0.1602  0.0744
18018TIP3    H175469   3.834   0.490  16.350  1.3434  0.3722  0.3070
18018TIP3    H275470   3.728   0.479  16.457 -0.9468  0.3423 -1.9117
18019TIP3   OH275471   1.055   3.557  13.012  0.1204  0.2382  0.2573
18019TIP3    H175472   1.013   3.590  12.933  0.4338 -0.3417 -0.1585
18019TIP3    H275473   1.121   3.495  12.980 -0.3168 -0.6271  0.9921
18020TIP3   OH275474   3.900   3.155   1.268  0.2155 -0.0870  0.2718
18020TIP3    H175475   3.922   3.062   1.258 -1.0083 -0.6060  2.0482
18020TIP3    H275476   3.816   3.155   1.315  0.9420  1.9343  1.6486
18021TIP3   OH275477   6.183   3.046  13.172  0.6225 -0.4916  0.3266
18021TIP3    H175478   6.107   3.100  13.195  1.4287  0.9629 -0.3689
18021TIP3    H275479   6.150   2.984  13.107  0.2902  0.8684 -0.8040
18022TIP3   OH275480   3.538   4.658  12.495 -0.0962  0.3891 -0.2745
18022TIP3    H175481   3.483   4.695  12.426  2.9971 -0.6792 -3.4131
18022TIP3    H275482   3.515   4.565  12.496  0.2787  0.2960 -0.2480
18023TIP3   OH275483   1.409   2.500   3.162 -0.2464 -0.0765  0.0522
18023TIP3    H175484   1.489   2.448   3.174 -0.3576 -0.6109 -1.4025
18023TIP3    H275485   1.363   2.456   3.091 -1.0086  1.2296 -0.2732
18024TIP3   OH275486   5.079   2.960   1.451  0.3963  0.1740  0.6262
18024TIP3    H175487   5.021   2.969   1.376  1.6946 -0.7553 -0.4995
18024TIP3    H275488   5.126   3.043   1.455 -0.6046  0.7311  1.2313
18025TIP3   OH275489   5.032   0.707  11.021  0.2794  0.3063 -0.2675
18025TIP3    H175490   5.057   0.792  10.983  0.1482  0.9112  0.9753
18025TIP3    H275491   5.112   0.674  11.061 -0.4101  1.3555  2.0495
18026TIP3   OH275492   3.642   0.394   0.780 -0.0239 -0.0791 -0.0257
18026TIP3    H175493   3.639   0.300   0.801 -3.4910 -0.1745 -0.6995
18026TIP3    H275494   3.611   0.438   0.859 -0.1798  0.4046 -0.3558
18027TIP3   OH275495   4.923   4.673  13.193 -0.4616 -0.1377  0.7475
18027TIP3    H175496   5.009   4.690  13.154 -0.6459  0.6044  0.6535
18027TIP3    H275497   4.887   4.602  13.140 -0.8456  1.0848 -0.6823
18028TIP3   OH275498   2.013   5.631  12.379 -0.2669 -1.0930 -0.2935
18028TIP3    H175499   1.980   5.618  12.468 -1.4603  0.0268 -0.5418
18028TIP3    H275500   2.107   5.616  12.385  0.0996  1.5466  1.7632
18029TIP3   OH275501   5.651   3.302  16.240 -0.2607  0.4553 -0.4517
18029TIP3    H175502   5.638   3.362  16.167  0.0041  2.2571  0.9569
18029TIP3    H275503   5.672   3.218  16.199  0.2082  1.5226 -2.4280
18030TIP3   OH275504   4.872   0.090  11.510 -0.4102  0.0860 -0.4256
18030TIP3    H175505   4.789   0.079  11.462 -0.5788 -0.7551  0.0494
18030TIP3    H275506   4.938   0.057  11.450 -0.6278 -1.0237 -0.0642
18031TIP3   OH275507   2.339   1.675  13.522 -0.0090  0.2108  0.1793
18031TIP3    H175508   2.339   1.581  13.539 -1.2239  0.0669 -0.6179
18031TIP3    H275509   2.432   1.697  13.513  0.1898 -1.3082 -1.7832
18032TIP3   OH275510   1.079   1.715  14.416  0.3173  0.6020  0.2544
18032TIP3    H175511   1.091   1.621  14.401  0.0930  0.2972  1.8273
18032TIP3    H275512   0.985   1.729  14.407  0.0634  0.2564  2.0426
18033TIP3   OH275513   6.323   5.287  12.242 -0.2447  0.0266  0.5905
18033TIP3    H175514   6.410   5.253  12.262  0.3562  0.5214 -1.0273
18033TIP3    H275515   6.327   5.307  12.148 -1.5571  1.6633  0.8677
18034TIP3   OH275516   5.194   5.756  11.023 -0.5542  0.0864  0.5663
18034TIP3    H175517   5.261   5.809  11.066 -0.3649  1.0432 -0.8545
18034TIP3    H275518   5.238   5.672  11.004  0.5488  1.0172 -1.1462
18035TIP3   OH275519   2.038   5.907  14.435 -0.6150 -0.1002  0.1162
18035TIP3    H175520   2.040   5.949  14.349  0.7339 -3.0058 -1.3509
18035TIP3    H275521   1.956   5.858  14.436  0.2452 -1.5637 -0.2805
18036TIP3   OH275522   0.388   0.500   0.087  0.3196  0.5100 -0.3662
18036TIP3    H175523   0.309   0.505   0.033 -0.9975 -1.6187  1.2926
18036TIP3    H275524   0.443   0.435   0.043  0.7850  1.3312 -1.0225
18037TIP3   OH275525   3.427   2.462   6.725 -0.0625 -0.3892  0.3634
18037TIP3    H175526   3.507   2.510   6.707 -0.3252  0.2189  0.7798
18037TIP3    H275527   3.372   2.524   6.774 -0.7000 -0.8637  0.2620
18038TIP3   OH275528   5.907   3.906   1.012 -0.2130  0.0154  0.3594
18038TIP3    H175529   5.929   3.974   0.948  0.0213 -0.3986 -0.0057
18038TIP3    H275530   5.948   3.827   0.977 -2.3879 -0.7994 -0.3973
18039TIP3   OH275531   1.433   5.944  12.225 -0.1742 -0.2217  0.1663
18039TIP3    H175532   1.487   5.911  12.153  0.1330  1.4282 -0.3665
18039TIP3    H275533   1.368   6.000  12.184 -1.0454 -0.5945  1.0148
18040TIP3   OH275534   5.576   6.631  14.289  0.1967 -0.8958  0.2897
18040TIP3    H175535   5.570   6.537  14.301  1.4259 -0.8900  1.0684
18040TIP3    H275536   5.596   6.665  14.376  0.9649 -0.0426 -0.2064
18041TIP3   OH275537   3.156   1.588  11.037 -0.3656  0.1123 -0.2887
18041TIP3    H175538   3.214   1.664  11.032 -2.7309  1.9715 -0.3066
18041TIP3    H275539   3.087   1.606  10.973 -0.7237 -2.2927 -0.6415
18042TIP3   OH275540   2.875   5.059   3.777  0.1004 -0.1385  0.1119
18042TIP3    H175541   2.951   5.096   3.821 -1.0986 -0.6147  2.6606
18042TIP3    H275542   2.805   5.122   3.791 -0.5492 -0.7565 -0.2817
18043TIP3   OH275543   5.136   3.793  12.782 -0.0505  0.0023  0.0669
18043TIP3    H175544   5.055   3.741  12.784  0.2682 -0.5091 -0.3223
18043TIP3    H275545   5.194   3.745  12.722  0.3582  0.6368 -0.0437
18044TIP3   OH275546   6.364   5.941   3.951  0.2099 -0.2042  0.2269
18044TIP3    H175547   6.320   6.026   3.946  1.5933  0.4536 -1.2522
18044TIP3    H275548   6.402   5.929   3.864  2.7885 -0.8184  1.3826
18045TIP3   OH275549   6.154   0.587  14.467  0.3629  0.2812  0.2905
18045TIP3    H175550   6.135   0.524  14.537  0.1615 -1.1763 -1.0639
18045TIP3    H275551   6.078   0.645  14.466  0.8909  1.0554  2.0561
18046TIP3   OH275552   5.461   6.697   0.365  0.4667 -0.4539 -0.5304
18046TIP3    H175553   5.556   6.700   0.380  0.7217  3.4274 -2.1339
18046TIP3    H275554   5.423   6.714   0.451  1.2656 -0.5060 -0.1607
18047TIP3   OH275555   5.063   5.485   4.637  0.0985 -0.3850  0.0387
18047TIP3    H175556   5.155   5.512   4.637  0.4164 -1.4544  0.3132
18047TIP3    H275557   5.030   5.512   4.723 -0.1727  1.0590 -0.4991
18048TIP3   OH275558   1.351   4.722   5.719  0.4781  0.4986 -0.2995
18048TIP3    H175559   1.279   4.782   5.736 -0.2386 -0.5946  0.6044
18048TIP3    H275560   1.309   4.639   5.698  1.4254  0.7270 -3.4053
18049TIP3   OH275561   5.728   0.184   4.340  0.0929 -0.6485 -0.3080
18049TIP3    H175562   5.729   0.261   4.283  1.4639 -1.1647 -0.9999
18049TIP3    H275563   5.663   0.125   4.300  0.2409 -0.5450 -0.6991
18050TIP3   OH275564   5.281   2.856  12.594  0.7048  0.0214 -0.3205
18050TIP3    H175565   5.296   2.912  12.518 -0.2803  1.7818  0.7316
18050TIP3    H275566   5.204   2.804  12.571 -2.0555  3.3920  0.9466
18051TIP3   OH275567   3.372   1.478  16.068 -0.5538  0.1696  0.1698
18051TIP3    H175568   3.385   1.541  16.139 -1.4378 -0.4032  0.8514
18051TIP3    H275569   3.340   1.530  15.995 -0.9015  0.5716  0.6081
18052TIP3   OH275570   2.359   3.084   4.295  0.1658 -0.4362  0.4897
18052TIP3    H175571   2.408   3.034   4.231 -0.8543 -0.8341  0.0114
18052TIP3    H275572   2.391   3.053   4.380  1.5114  0.0908  0.1820
18053TIP3   OH275573   0.248   2.343   1.080 -0.8398 -0.2377  0.6880
18053TIP3    H175574   0.153   2.350   1.089 -0.9545  0.0572 -0.6160
18053TIP3    H275575   0.261   2.274   1.014 -0.1173 -0.9658  1.5620
18054TIP3   OH275576   6.760   1.042   6.630  0.2148 -0.3313 -0.3851
18054TIP3    H175577   6.806   1.109   6.680 -0.5049 -0.1465  0.0338
18054TIP3    H275578   6.667   1.059   6.646  0.0204 -1.2696 -0.4708
18055TIP3   OH275579   6.331   5.164  14.642 -0.0233 -0.0202  0.8098
18055TIP3    H175580   6.272   5.131  14.709 -0.0521  0.5961  1.0904
18055TIP3    H275581   6.326   5.100  14.571 -0.2594 -0.4855  1.2511
18056TIP3   OH275582   0.363   3.342   1.604  0.4489 -0.0612 -0.4961
18056TIP3    H175583   0.456   3.362   1.596  0.8137 -1.1745  0.7250
18056TIP3    H275584   0.338   3.378   1.689 -0.0136 -0.5704 -0.4123
18057TIP3   OH275585   4.425   5.351  16.681 -0.4332 -0.0558 -0.0680
18057TIP3    H175586   4.371   5.279  16.649 -1.1805 -0.1104  1.2747
18057TIP3    H275587   4.371   5.392  16.749  0.3179  1.2629 -0.2660
18058TIP3   OH275588   4.070   2.383   2.875  0.5311  0.1323  0.2832
18058TIP3    H175589   3.987   2.375   2.922  1.1551 -1.6921  1.1181
18058TIP3    H275590   4.097   2.474   2.889 -1.1812  0.6677  0.2260
18059TIP3   OH275591   4.686   3.239   3.515 -0.2870 -0.1538  0.5941
18059TIP3    H175592   4.746   3.256   3.587  1.3985 -1.1664 -0.5352
18059TIP3    H275593   4.600   3.259   3.550  0.6461  0.7179  2.4449
18060TIP3   OH275594   6.295   5.102  11.811 -0.6942 -0.0037  0.5031
18060TIP3    H175595   6.259   5.101  11.722  0.4046  0.4646  0.0420
18060TIP3    H275596   6.228   5.060  11.865 -1.9783  0.9769 -0.3068
18061TIP3   OH275597   3.074   5.735  11.189  0.4557  0.4821 -0.4641
18061TIP3    H175598   2.982   5.736  11.165  0.4977 -1.9676 -0.8798
18061TIP3    H275599   3.120   5.722  11.106  1.1351  1.0703 -0.1863
18062TIP3   OH275600   1.838   1.271  16.667  0.0985 -0.1283  0.2740
18062TIP3    H175601   1.891   1.336  16.621 -1.4325  0.5021 -0.6196
18062TIP3    H275602   1.781   1.322  16.725 -0.9679 -0.6788 -0.2757
18063TIP3   OH275603   5.484   1.319  11.476 -0.1813  0.2723 -1.1306
18063TIP3    H175604   5.549   1.364  11.421  1.3927 -0.9075 -0.2976
18063TIP3    H275605   5.469   1.379  11.549  0.0870  0.4938 -1.2545
18064TIP3   OH275606   5.811   3.893   5.272 -0.0606 -0.3825  0.3297
18064TIP3    H175607   5.906   3.889   5.268  0.2262  4.5766 -0.5099
18064TIP3    H275608   5.790   3.878   5.364  1.6562  0.2141  0.8280
18065TIP3   OH275609   4.940   1.921   5.538  0.2319 -0.4489  0.2973
18065TIP3    H175610   4.921   1.846   5.595 -0.2742 -0.4930  0.0639
18065TIP3    H275611   4.869   1.923   5.475  0.9088 -0.5264 -0.4752
18066TIP3   OH275612   4.659   2.280   4.427 -0.0937 -0.5283  0.0931
18066TIP3    H175613   4.738   2.269   4.479  0.6833  1.9508 -0.4938
18066TIP3    H275614   4.594   2.317   4.488  0.0706  0.0619 -0.0827
18067TIP3   OH275615   6.020   1.477   1.743 -0.0174 -0.3344  0.8932
18067TIP3    H175616   5.957   1.472   1.672  0.4272 -0.4858  0.5081
18067TIP3    H275617   6.058   1.564   1.737 -0.6157 -0.0231  1.4969
18068TIP3   OH275618   4.908   5.711  15.449  0.7502  0.4258 -0.0861
18068TIP3    H175619   4.817   5.714  15.418  1.5381  0.0237 -2.6278
18068TIP3    H275620   4.904   5.666  15.533 -1.3614 -0.0467 -0.4109
18069TIP3   OH275621   1.046   0.698   4.672  0.4361 -0.5016 -0.1093
18069TIP3    H175622   1.044   0.789   4.700  1.3228 -0.6670  0.5171
18069TIP3    H275623   0.954   0.674   4.660  0.2184  0.5934 -0.6954
18070TIP3   OH275624   1.489   4.998  11.705  0.0813  0.6188 -0.2572
18070TIP3    H175625   1.397   5.021  11.692  0.2754  1.0989 -0.7998
18070TIP3    H275626   1.534   5.037  11.630  0.4344 -1.3708 -1.1211
18071TIP3   OH275627   3.764   6.697   2.706  0.4611 -0.3057  0.4705
18071TIP3    H175628   3.744   6.718   2.615 -0.3024  1.5250  1.0386
18071TIP3    H275629   3.765   6.601   2.709 -3.7406 -0.4811 -0.6037
18072TIP3   OH275630   2.432   6.212   4.506  0.6403 -0.2508 -0.0312
18072TIP3    H175631   2.516   6.193   4.547 -0.6129 -3.4907  1.2222
18072TIP3    H275632   2.427   6.153   4.431 -1.1201 -1.1669  0.7736
18073TIP3   OH275633   4.957   3.635  11.494  0.1933 -0.3914  0.0737
18073TIP3    H175634   4.867   3.604  11.499 -0.3105  0.9804 -0.2104
18073TIP3    H275635   4.973   3.649  11.400  0.4840 -0.0421  0.1691
18074TIP3   OH275636   0.375   5.408   0.210 -0.0676 -0.3306 -0.3702
18074TIP3    H175637   0.299   5.463   0.189  1.9538  1.7749 -2.4772
18074TIP3    H275638   0.360   5.328   0.161 -1.8665 -0.7440  0.7902
18075TIP3   OH275639   1.783   5.509  12.272 -0.6059  0.2428  0.2243
18075TIP3    H175640   1.869   5.534  12.305 -0.7438  1.2340 -0.1285
18075TIP3    H275641   1.722   5.564  12.322 -0.9297  0.5587 -0.5118
18076TIP3   OH275642   4.665   4.670  11.151 -0.1228 -0.0163 -0.0699
18076TIP3    H175643   4.656   4.578  11.125  1.9116 -0.5783  1.0707
18076TIP3    H275644   4.755   4.693  11.127 -0.2309  1.3090  0.7308
18077TIP3   OH275645   1.517   5.096   3.986  0.4054  0.4569 -0.7050
18077TIP3    H175646   1.593   5.046   4.016 -0.2336  0.2997  0.6615
18077TIP3    H275647   1.471   5.036   3.927  2.0599  1.0283 -2.6391
18078TIP3   OH275648   6.236   3.863  15.293  0.2426  0.2315  0.7730
18078TIP3    H175649   6.201   3.777  15.270 -0.7550  0.3687  1.7429
18078TIP3    H275650   6.178   3.895  15.362 -2.0757  3.5444 -2.5045
18079TIP3   OH275651   6.706   2.089   4.458 -0.4699  0.5849  0.2100
18079TIP3    H175652   6.758   2.016   4.423  0.3752  1.6976 -0.8737
18079TIP3    H275653   6.627   2.090   4.404 -1.2801 -0.5641  1.3118
18080TIP3   OH275654   0.097   1.661  12.118 -0.1535  0.3566  0.5620
18080TIP3    H175655   0.192   1.654  12.130 -0.2898 -0.6289  1.0837
18080TIP3    H275656   0.079   1.603  12.044 -0.5203 -0.4478  1.2789
18081TIP3   OH275657   4.663   5.007  12.481  0.2308  0.2549  0.2028
18081TIP3    H175658   4.644   4.955  12.559  1.9963 -0.7299 -0.0089
18081TIP3    H275659   4.616   4.963  12.411 -1.3450  1.1310  0.6695
18082TIP3   OH275660   2.738   5.945   3.342  0.7733  0.2688  0.0170
18082TIP3    H175661   2.656   5.980   3.306  0.8938 -0.3004 -0.8264
18082TIP3    H275662   2.785   6.022   3.374 -0.6802  0.4592  1.7286
18083TIP3   OH275663   2.014   2.503  11.584  0.4553 -0.4433  0.4949
18083TIP3    H175664   2.070   2.471  11.513  2.0106  0.7612  1.1541
18083TIP3    H275665   1.951   2.561  11.541 -1.8824 -3.6381 -0.5991
18084TIP3   OH275666   5.603   3.893   0.060  0.4672  0.1123  0.3068
18084TIP3    H175667   5.555   3.953   0.117 -1.1769 -1.7529  0.9645
18084TIP3    H275668   5.569   3.910  -0.027  2.0200  2.0453  0.0554
18085TIP3   OH275669   4.278   4.101   0.837 -0.2716 -0.1031  0.3279
18085TIP3    H175670   4.207   4.050   0.798 -0.8463  0.0909  1.0943
18085TIP3    H275671   4.353   4.042   0.838 -0.4686 -0.3630 -0.3555
18086TIP3   OH275672   5.942   1.766   5.064 -0.0580  0.1265  0.4874
18086TIP3    H175673   5.912   1.711   5.136 -0.2476 -0.8312 -0.3094
18086TIP3    H275674   6.016   1.718   5.027  1.7943  1.9439  1.7611
18087TIP3   OH275675   0.084   1.047   3.572  0.2060  0.2362 -0.1004
18087TIP3    H175676   0.129   1.123   3.536 -0.6119  1.1514  0.7873
18087TIP3    H275677   0.010   1.083   3.621 -2.8129 -1.2762 -3.2595
18088TIP3   OH275678   6.511   1.774  12.089 -0.4442  0.4778 -0.5792
18088TIP3    H175679   6.490   1.693  12.136 -0.4688 -1.1006 -3.1958
18088TIP3    H275680   6.440   1.834  12.109 -1.4385 -0.8341 -0.1497
18089TIP3   OH275681   4.010   4.012  11.092  0.0471  0.7362 -0.6575
18089TIP3    H175682   4.055   3.935  11.127  0.0722  0.4109 -1.3843
18089TIP3    H275683   4.076   4.057  11.040 -0.3023  0.5596 -1.2673
18090TIP3   OH275684   0.563   2.782  16.412  0.4384  0.4107  0.3201
18090TIP3    H175685   0.586   2.696  16.447  1.8222  0.6890  0.1256
18090TIP3    H275686   0.471   2.774  16.389  0.0353 -0.3898  2.1511
18091TIP3   OH275687   3.228   6.751  16.858 -0.0358  0.3740 -0.4058
18091TIP3    H175688   3.148   6.792  16.892  0.2315  1.2854 -0.8701
18091TIP3    H275689   3.196   6.686  16.795 -0.4249  0.4767 -0.3154
18092TIP3   OH275690   0.664   0.280   3.461  0.4220 -0.1959  0.4889
18092TIP3    H175691   0.717   0.344   3.414  1.8940 -1.4057  0.4724
18092TIP3    H275692   0.631   0.221   3.393  0.6194 -0.5532  0.6982
18093TIP3   OH275693   2.867   6.690   2.560 -0.1997 -0.0828 -0.4875
18093TIP3    H175694   2.784   6.648   2.583 -0.8004  1.8175  0.9725
18093TIP3    H275695   2.847   6.739   2.481 -0.0388 -0.8848 -1.0318
18094TIP3   OH275696   6.691   3.522  11.925 -0.2065  0.0559 -0.4567
18094TIP3    H175697   6.600   3.518  11.952  0.3843 -3.2602  1.2310
18094TIP3    H275698   6.693   3.479  11.839  0.1054 -2.1180  0.6036
18095TIP3   OH275699   5.633   6.380  12.780 -0.0273  0.2939  0.0817
18095TIP3    H175700   5.683   6.321  12.724 -0.9846  0.2251 -0.7277
18095TIP3    H275701   5.542   6.367  12.753 -0.3196  1.6153  0.3682
18096TIP3   OH275702   2.306   1.061  10.832  0.2896  0.6312 -0.1903
18096TIP3    H175703   2.225   1.048  10.783  0.7042  2.7511 -1.4923
18096TIP3    H275704   2.279   1.110  10.910 -0.1017 -1.2560  0.9049
18097TIP3   OH275705   0.067   0.658  14.672 -0.5607 -0.5635 -0.1293
18097TIP3    H175706   0.063   0.719  14.598  1.1964 -0.9470 -0.5553
18097TIP3    H275707   0.090   0.574  14.633  1.1621 -0.5994  0.9316
18098TIP3   OH275708   5.772   3.049   2.812 -0.0129 -0.3515  0.1814
18098TIP3    H175709   5.682   3.034   2.841 -0.1417 -1.8896 -0.9756
18098TIP3    H275710   5.763   3.113   2.741 -0.2343 -0.8607 -0.2481
18099TIP3   OH275711   4.839   4.205   2.984 -0.1394  0.4788 -0.2572
18099TIP3    H175712   4.816   4.281   3.037  1.7669  0.1359  1.1343
18099TIP3    H275713   4.856   4.240   2.896 -1.4641  1.3209 -0.1780
18100TIP3   OH275714   4.417   0.760  15.189  0.0182  0.1493 -0.4900
18100TIP3    H175715   4.504   0.729  15.214 -0.4865  0.3861  1.6266
18100TIP3    H275716   4.405   0.842  15.237 -2.1920 -0.9442  0.9155
18101TIP3   OH275717   2.089   1.321   4.572  0.1020  0.5857 -0.1857
18101TIP3    H175718   2.113   1.399   4.522 -0.3798  1.4649  0.9420
18101TIP3    H275719   2.020   1.350   4.631 -1.3820 -1.1466 -1.0445
18102TIP3   OH275720   5.013   2.380  16.665  0.6350  0.5356 -0.3740
18102TIP3    H175721   4.959   2.417  16.595  1.6475 -0.3015 -1.6266
18102TIP3    H275722   4.957   2.385  16.743  0.0963  2.9830 -0.8804
18103TIP3   OH275723   6.503   6.623  13.565 -0.1693  0.1786 -0.5904
18103TIP3    H175724   6.542   6.574  13.637  1.5774  2.2940 -0.0071
18103TIP3    H275725   6.420   6.655  13.599 -0.4976 -0.8841 -0.3793
18104TIP3   OH275726   4.104   0.077  14.419 -0.2823 -0.1480  0.1295
18104TIP3    H175727   4.010   0.088  14.403 -0.5488 -0.3445  1.4749
18104TIP3    H275728   4.108   0.034  14.505  1.0980  1.9130  1.1134
18105TIP3   OH275729   5.956   4.527   0.216  0.0962  0.4588  0.0873
18105TIP3    H175730   6.011   4.450   0.230 -0.1186  0.1320 -0.7966
18105TIP3    H275731   5.953   4.571   0.301  2.6937  1.1094 -0.0860
18106TIP3   OH275732   2.238   5.285  12.998  0.1923 -0.2848 -0.3071
18106TIP3    H175733   2.243   5.377  13.023 -2.7600 -0.2726  0.4890
18106TIP3    H275734   2.315   5.244  13.038 -0.3636  1.1897  2.3671
18107TIP3   OH275735   6.121   6.242  17.090  0.1571 -0.2578  0.3806
18107TIP3    H175736   6.123   6.147  17.075  1.1380 -0.2764  0.5718
18107TIP3    H275737   6.041   6.257  17.139 -1.3352 -0.6538 -1.8438
18108TIP3   OH275738   1.213   5.656  15.792 -0.0962 -0.6102 -0.3819
18108TIP3    H175739   1.228   5.570  15.830  0.4940 -1.3403 -2.1907
18108TIP3    H275740   1.144   5.642  15.726  2.7361 -0.5805 -3.4982
18109TIP3   OH275741   5.107   2.505  17.066  0.9987  0.2565 -0.0113
18109TIP3    H175742   5.123   2.570  17.135  1.2092 -0.3534  0.5117
18109TIP3    H275743   5.084   2.425  17.113 -2.5678  0.8017 -0.6824
18110TIP3   OH275744   5.076   1.184   2.971 -0.3521  0.5003 -0.0214
18110TIP3    H175745   5.036   1.238   3.039 -0.2801 -0.2668  0.6483
18110TIP3    H275746   5.011   1.117   2.952 -0.6593  1.1432 -1.2415
18111TIP3   OH275747   0.789   0.402  12.645  0.1937 -0.5767  0.1059
18111TIP3    H175748   0.836   0.473  12.602  0.8574 -1.3355 -0.4489
18111TIP3    H275749   0.857   0.350  12.687 -0.1945 -1.3969 -0.2697
18112TIP3   OH275750   0.746   2.491  15.871 -0.2277  0.4238  0.5304
18112TIP3    H175751   0.800   2.423  15.832  0.7143  1.0554  0.7303
18112TIP3    H275752   0.758   2.567  15.814  1.1473  1.3478  2.0130
18113TIP3   OH275753   2.518   0.075   5.454 -0.1524  0.1713  0.4605
18113TIP3    H175754   2.433   0.047   5.486 -0.6518  1.4482  0.2735
18113TIP3    H275755   2.513   0.064   5.359  0.3503 -0.9529  0.5488
18114TIP3   OH275756   4.766   4.139  11.718 -0.0370 -0.3475  0.3877
18114TIP3    H175757   4.742   4.230  11.699 -2.0072 -1.1933 -1.4184
18114TIP3    H275758   4.683   4.091  11.713  1.0422 -2.3193  0.8895
18115TIP3   OH275759   3.974   1.303  15.463  0.7437 -0.0997 -0.3230
18115TIP3    H175760   4.066   1.297  15.490  0.3838 -3.3812  0.4370
18115TIP3    H275761   3.975   1.361  15.387  2.9035  2.8698  1.8684
18116TIP3   OH275762   3.110   0.354  16.245 -0.1318  0.4254 -0.1867
18116TIP3    H175763   3.189   0.319  16.202 -0.1095 -0.4894  0.5825
18116TIP3    H275764   3.061   0.395  16.174 -0.0567 -1.0069 -1.0911
18117TIP3   OH275765   3.526   4.360  17.035 -0.5057 -0.1066  0.2877
18117TIP3    H175766   3.514   4.423  16.964  1.4719 -1.5197 -1.3840
18117TIP3    H275767   3.443   4.314  17.040 -1.0935  0.8690 -0.2677
18118TIP3   OH275768   0.921   6.699  11.908  0.0255 -0.2208  0.0680
18118TIP3    H175769   1.001   6.655  11.937 -1.1888 -2.4365  0.2019
18118TIP3    H275770   0.855   6.672  11.972 -1.5759 -1.1664 -1.9522
18119TIP3   OH275771   4.977   0.147   5.073 -0.0568 -0.0755  0.3963
18119TIP3    H175772   4.932   0.079   5.122  0.4669 -1.2680 -0.7525
18119TIP3    H275773   5.063   0.154   5.114 -0.0071 -0.3179  0.3328
18120TIP3   OH275774   6.772   3.841  16.416 -0.0801 -0.0413  0.0936
18120TIP3    H175775   6.696   3.788  16.436 -0.1722 -0.0431 -0.2568
18120TIP3    H275776   6.847   3.787  16.442 -0.2465  0.8090  2.4764
18121TIP3   OH275777   3.408   6.417   5.516  0.0459 -0.1972 -0.6430
18121TIP3    H175778   3.498   6.441   5.536  0.5181  0.5898 -3.5547
18121TIP3    H275779   3.371   6.391   5.601  2.2288  1.9158  1.0321
18122TIP3   OH275780   2.549   0.475   1.974 -0.2118 -0.6430 -0.0266
18122TIP3    H175781   2.626   0.477   2.032 -0.8809 -1.5457  0.9091
18122TIP3    H275782   2.586   0.456   1.888  0.8631  1.4208 -0.0361
18123TIP3   OH275783   4.582   6.670  15.271 -0.2290  0.4167  0.4935
18123TIP3    H175784   4.578   6.737  15.203 -3.0134 -1.0938 -0.9330
18123TIP3    H275785   4.617   6.593  15.227  1.1108  0.3731  1.6262
18124TIP3   OH275786   5.024   3.412   1.417  0.0329  0.3143 -0.4933
18124TIP3    H175787   4.953   3.361   1.378 -0.8532  0.3142  1.0740
18124TIP3    H275788   5.082   3.433   1.344 -0.9052 -0.7960 -1.5709
18125TIP3   OH275789   2.742   0.739  15.411 -0.2197  0.3536 -0.6935
18125TIP3    H175790   2.709   0.745  15.322 -1.4106 -0.6002 -0.3233
18125TIP3    H275791   2.700   0.662  15.448  2.3090 -0.8341 -0.1577
18126TIP3   OH275792   2.666   1.195   3.941 -0.6087 -0.0018  0.2847
18126TIP3    H175793   2.710   1.110   3.951  0.7744  0.7489  0.6839
18126TIP3    H275794   2.573   1.175   3.949 -0.2915 -1.4795  0.4289
18127TIP3   OH275795   1.552   3.921   4.862 -0.0614  0.5994 -0.5666
18127TIP3    H175796   1.472   3.960   4.825 -0.5336 -0.8370 -1.0943
18127TIP3    H275797   1.556   3.834   4.822  0.8042 -0.0149  0.8465
18128TIP3   OH275798   6.457   5.503   3.696  0.3065  0.2800 -0.1017
18128TIP3    H175799   6.495   5.467   3.776  2.2334 -0.8048 -1.4733
18128TIP3    H275800   6.480   5.596   3.698  1.4990 -0.0118 -0.0529
18129TIP3   OH275801   4.393   2.929  13.599 -0.3860 -0.3567 -0.9552
18129TIP3    H175802   4.409   2.843  13.559  0.0023  0.4887 -2.6965
18129TIP3    H275803   4.299   2.944  13.587 -0.9673 -1.6348  1.6742
18130TIP3   OH275804   4.783   2.963   1.800  0.3901  0.0296 -0.0547
18130TIP3    H175805   4.719   2.925   1.860  0.3928  0.2975  0.1220
18130TIP3    H275806   4.736   3.034   1.757  0.4508 -0.0285 -0.2141
18131TIP3   OH275807   3.560   0.525   1.373  0.5116 -0.1848 -0.1661
18131TIP3    H175808   3.503   0.455   1.344 -0.9798  0.1041  1.9661
18131TIP3    H275809   3.527   0.603   1.328  0.0930 -0.2568  0.0191
18132TIP3   OH275810   5.612   5.915  14.451  0.4128 -0.2205  0.8372
18132TIP3    H175811   5.528   5.927  14.495 -0.4626  0.1839 -0.8953
18132TIP3    H275812   5.672   5.975  14.494 -0.3282 -0.1260  1.7283
18133TIP3   OH275813   4.061   1.155  17.091  0.0516  0.1046  0.0449
18133TIP3    H175814   4.141   1.104  17.086 -0.5088 -0.8688  0.8718
18133TIP3    H275815   4.071   1.222  17.023  1.8648  0.4496  0.6271
18134TIP3   OH275816   3.180   0.104   1.265  0.0147  0.1776 -0.3902
18134TIP3    H175817   3.158   0.051   1.341 -0.2096 -0.7219 -1.0675
18134TIP3    H275818   3.096   0.137   1.233  0.0207 -0.1041 -0.7087
18135TIP3   OH275819   4.163   3.671  16.008  0.2346  0.3664 -0.0514
18135TIP3    H175820   4.118   3.717  15.937  0.5568  0.4323 -0.2162
18135TIP3    H275821   4.193   3.742  16.066 -2.2479  0.2127  1.5164
18136TIP3   OH275822   0.401   6.520  15.347 -0.0608 -0.5450 -0.1203
18136TIP3    H175823   0.320   6.572  15.347 -1.1607 -2.2182 -0.1465
18136TIP3    H275824   0.404   6.482  15.260  0.8336 -0.3778 -0.1602
18137TIP3   OH275825   3.482   6.641   4.271 -0.3952 -0.2014 -0.1318
18137TIP3    H175826   3.561   6.687   4.300 -0.6762  0.2042 -0.0198
18137TIP3    H275827   3.413   6.707   4.273 -0.2077  0.1288 -2.8146
18138TIP3   OH275828   3.318   3.506   0.449 -0.2802 -0.5303  0.0731
18138TIP3    H175829   3.235   3.476   0.412 -0.8657  1.1943 -0.0337
18138TIP3    H275830   3.300   3.517   0.543 -0.3211  0.3816 -0.0455
18139TIP3   OH275831   4.993   5.182  13.098 -0.4624  0.3179 -0.2571
18139TIP3    H175832   4.990   5.259  13.040  2.8815 -0.2076 -1.2216
18139TIP3    H275833   4.955   5.111  13.046  2.5337 -0.1523 -1.9357
18140TIP3   OH275834   5.262   0.231   2.416  0.5445 -0.2386  0.4775
18140TIP3    H175835   5.301   0.145   2.429 -1.7866 -1.9212 -2.8116
18140TIP3    H275836   5.168   0.218   2.432 -0.2730  0.8938 -2.9029
18141TIP3   OH275837   1.945   4.531   0.591  0.6180  0.7171 -0.6312
18141TIP3    H175838   1.986   4.515   0.505  0.2124 -0.8299 -0.5472
18141TIP3    H275839   1.851   4.523   0.575  0.5668 -0.3015  0.0799
18142TIP3   OH275840   0.308   3.586   2.879  0.0691  0.2682  0.2455
18142TIP3    H175841   0.370   3.522   2.845 -0.0278 -0.4539  1.4065
18142TIP3    H275842   0.227   3.570   2.831 -0.2438 -1.1403  1.2121
18143TIP3   OH275843   4.565   5.380  15.761  0.0106 -0.3075  0.4229
18143TIP3    H175844   4.589   5.450  15.821 -0.4752  0.1205  0.1215
18143TIP3    H275845   4.524   5.313  15.817 -0.2627  0.0017  0.5901
18144TIP3   OH275846   5.157   0.766  14.349 -0.2616  0.5879  0.4187
18144TIP3    H175847   5.106   0.689  14.372 -0.2025  0.2050 -0.7319
18144TIP3    H275848   5.235   0.732  14.307  1.0620  1.1556  2.3267
18145TIP3   OH275849   2.049   5.429  10.889 -0.2727  0.2449 -0.2579
18145TIP3    H175850   1.987   5.368  10.851  0.2901  0.5059 -1.6172
18145TIP3    H275851   2.094   5.379  10.957 -1.3538 -0.1986  0.1340
18146TIP3   OH275852   5.257   4.000  15.757 -0.4307 -0.0583  0.4548
18146TIP3    H175853   5.323   3.931  15.762  0.9625  1.0611 -1.5752
18146TIP3    H275854   5.173   3.955  15.770  0.6393 -1.6724  1.9200
18147TIP3   OH275855   3.427   4.118   1.441 -0.2706 -0.4928 -0.2965
18147TIP3    H175856   3.501   4.177   1.424 -1.1905  0.8590  0.3433
18147TIP3    H275857   3.355   4.155   1.391 -1.1437 -0.4401  0.9788
18148TIP3   OH275858   0.006   1.279   3.095 -0.0869 -0.5925 -0.4548
18148TIP3    H175859   0.087   1.329   3.088  0.4373 -1.3752  0.0324
18148TIP3    H275860  -0.008   1.246   3.006 -1.7500  2.4122 -1.4028
18149TIP3   OH275861   6.598   3.697  14.105  0.0479 -0.1523  0.0482
18149TIP3    H175862   6.608   3.789  14.128 -2.7548 -0.4436  2.7093
18149TIP3    H275863   6.514   3.691  14.061  0.0281 -1.5053  0.2319
18150TIP3   OH275864   3.554   3.042   4.101  0.5831  0.2252  0.7196
18150TIP3    H175865   3.499   2.976   4.144  1.6104 -0.2105  1.4060
18150TIP3    H275866   3.540   3.122   4.152  1.3920 -0.1570  1.5667
18151TIP3   OH275867   3.567   5.715   3.955  0.3629  0.0151 -0.5254
18151TIP3    H175868   3.653   5.756   3.960  0.3955 -0.1504  0.2335
18151TIP3    H275869   3.576   5.649   3.886  0.5537  0.6740 -1.1448
18152TIP3   OH275870   4.506   2.752  15.460 -0.0882  0.1607  0.1000
18152TIP3    H175871   4.448   2.781  15.530  0.4509  0.3744  0.4686
18152TIP3    H275872   4.558   2.830  15.439  2.0644 -0.7698  1.7828
18153TIP3   OH275873   1.565   4.920  17.127  0.0580 -0.0853 -0.5503
18153TIP3    H175874   1.502   4.867  17.078  2.2037 -2.1439 -1.1824
18153TIP3    H275875   1.626   4.951  17.061 -0.5991  2.4255 -0.0339
18154TIP3   OH275876   5.075   0.757  16.968  0.0928 -0.3472  0.5915
18154TIP3    H175877   4.983   0.781  16.960  0.1046 -1.1340 -2.0340
18154TIP3    H275878   5.077   0.662  16.956  1.5345 -0.0060 -2.0892
18155TIP3   OH275879   0.236   5.736  14.387  0.0337  0.5071 -0.7457
18155TIP3    H175880   0.196   5.717  14.302  0.7462  1.1246 -1.2266
18155TIP3    H275881   0.327   5.756  14.366  0.1246  1.0162  0.1335
18156TIP3   OH275882   0.293   5.031   0.339 -0.7588 -0.5670  0.6772
18156TIP3    H175883   0.333   5.032   0.252 -1.0360  0.4714  0.5541
18156TIP3    H275884   0.203   5.001   0.325 -0.8319 -0.3082  0.5941
18157TIP3   OH275885   2.863   4.138   5.303 -0.0435  0.3255  0.4869
18157TIP3    H175886   2.838   4.051   5.335 -2.1814  0.6873 -0.1209
18157TIP3    H275887   2.804   4.198   5.347  0.2937  1.3198 -0.3773
18158TIP3   OH275888   0.637   0.026   6.790  0.4759  0.3461  0.3687
18158TIP3    H175889   0.649   0.033   6.695 -2.1084 -0.4515 -0.0442
18158TIP3    H275890   0.638  -0.068   6.808 -3.1031  0.2642  0.5057
18159TIP3   OH275891   4.220   5.543  16.417 -0.3454 -0.3361  0.2510
18159TIP3    H175892   4.138   5.580  16.385  1.3744  1.7784 -1.9416
18159TIP3    H275893   4.217   5.451  16.392 -2.1378 -0.3608  0.4742
18160TIP3   OH275894   5.966   3.212   1.804 -0.0685  0.1059  0.1250
18160TIP3    H175895   6.047   3.170   1.774 -0.8190 -0.8672 -0.5607
18160TIP3    H275896   5.914   3.223   1.724  0.4185  3.0474  0.1610
18161TIP3   OH275897   2.868   1.305   6.450 -0.1631  0.8718  0.3074
18161TIP3    H175898   2.952   1.351   6.447 -0.0726  0.6963  0.0650
18161TIP3    H275899   2.874   1.249   6.527  0.5230 -0.2289 -0.5413
18162TIP3   OH275900   3.351   0.585   2.124 -0.1320  0.2470  0.5164
18162TIP3    H175901   3.381   0.497   2.102 -1.4076 -0.0869  0.0827
18162TIP3    H275902   3.392   0.641   2.058  1.7139  0.1747  1.5515
18163TIP3   OH275903   3.959   0.209   5.574  0.1904  0.4311  0.2685
18163TIP3    H175904   4.049   0.240   5.565  0.4921 -0.2238  1.0262
18163TIP3    H275905   3.961   0.120   5.539 -0.9588  1.6666 -3.1550
18164TIP3   OH275906   5.751   2.595   4.989 -0.3039 -0.4138 -0.1777
18164TIP3    H175907   5.800   2.661   5.038  0.4766 -0.5332 -0.7964
18164TIP3    H275908   5.817   2.545   4.943 -0.9879 -0.7524 -0.8071
18165TIP3   OH275909   1.983   2.944   0.131  0.4523 -0.6098  0.1672
18165TIP3    H175910   1.916   3.012   0.135  0.5545 -0.4300 -1.0632
18165TIP3    H275911   2.047   2.970   0.198  1.3471  1.4399 -1.4274
18166TIP3   OH275912   6.066   6.305  15.132  0.4256  0.1981  0.2835
18166TIP3    H175913   6.141   6.353  15.096  0.5368  0.3285  0.6895
18166TIP3    H275914   6.047   6.349  15.215 -1.0991  1.1903 -0.5558
18167TIP3   OH275915   0.536   3.089   0.095 -0.1702  0.0115  0.4692
18167TIP3    H175916   0.473   3.073   0.166  0.3516 -1.4960  0.6165
18167TIP3    H275917   0.622   3.082   0.138  0.1935 -2.5221 -0.5960
18168TIP3   OH275918   5.669   0.318   5.812  0.3338 -0.1972  0.4606
18168TIP3    H175919   5.657   0.237   5.761  3.7358 -1.4721  1.4943
18168TIP3    H275920   5.631   0.298   5.897  0.2402 -0.3314  0.3887
18169TIP3   OH275921   0.998   2.873  12.840 -0.1382 -0.3743  0.4869
18169TIP3    H175922   0.985   2.854  12.933  1.4999  0.1739  0.8570
18169TIP3    H275923   0.951   2.955  12.825 -2.0735 -1.4836  0.3435
18170TIP3   OH275924   5.229   2.870   6.152  0.6165  0.0508 -0.1419
18170TIP3    H175925   5.188   2.836   6.232  2.5637 -1.3740  0.2926
18170TIP3    H275926   5.305   2.920   6.183  0.8575  0.2579 -1.0584
18171TIP3   OH275927   6.345   1.275  12.156 -0.1754 -0.3043  0.3788
18171TIP3    H175928   6.256   1.297  12.182 -0.3096 -1.0262  0.5501
18171TIP3    H275929   6.383   1.234  12.234  0.1373 -0.4679  0.1427
18172TIP3   OH275930   4.682   6.169   4.910 -0.2152 -0.0560  0.3404
18172TIP3    H175931   4.761   6.116   4.901  0.3459  0.7222  0.6061
18172TIP3    H275932   4.674   6.215   4.827  1.0794  1.8364  1.2193
18173TIP3   OH275933   4.713   3.653  14.661  0.2077  0.0772  0.2275
18173TIP3    H175934   4.776   3.604  14.608 -1.2342 -1.0984 -0.4298
18173TIP3    H275935   4.662   3.703  14.598 -1.3060 -1.0748  0.5120
18174TIP3   OH275936   0.402   3.487   5.550 -0.4878  0.6580 -0.6785
18174TIP3    H175937   0.414   3.445   5.635 -0.0257  1.2603 -0.4387
18174TIP3    H275938   0.375   3.417   5.491 -0.8802  0.2579 -0.0127
18175TIP3   OH275939   4.811   5.710  11.017 -0.0632 -0.1871 -0.3546
18175TIP3    H175940   4.817   5.674  10.928 -1.0165  2.4284 -1.5193
18175TIP3    H275941   4.751   5.651  11.062 -0.9543 -0.5504 -1.9731
18176TIP3   OH275942   5.014   3.450   0.144  0.5267 -0.3546 -0.7900
18176TIP3    H175943   4.933   3.434   0.192  0.5494 -2.2132 -1.3285
18176TIP3    H275944   4.991   3.518   0.081  0.0846  0.9772  0.7722
18177TIP3   OH275945   3.628   1.463  15.459  0.4114 -0.6270 -0.4978
18177TIP3    H175946   3.565   1.431  15.525 -0.3914 -0.8128 -1.3476
18177TIP3    H275947   3.712   1.462  15.505 -0.3177  0.3698  0.9017
18178TIP3   OH275948   6.449   2.338   4.485 -0.2832 -0.3049 -0.5058
18178TIP3    H175949   6.540   2.335   4.514 -0.5181 -0.7840  0.1869
18178TIP3    H275950   6.455   2.346   4.390  0.4798 -0.8382 -0.5089
18179TIP3   OH275951   6.159   6.639  12.832  0.1636  0.2180 -0.7170
18179TIP3    H175952   6.214   6.572  12.793  0.6229 -0.4879  1.1127
18179TIP3    H275953   6.085   6.648  12.772  1.0022 -0.6280 -1.8831
18180TIP3   OH275954   3.375   5.865  15.969  0.3008  0.7086  0.3725
18180TIP3    H175955   3.425   5.855  15.889 -1.1077  0.5165 -0.4922
18180TIP3    H275956   3.304   5.925  15.946 -1.5163 -1.2434  0.8021
18181TIP3   OH275957   3.171   1.610   4.469 -0.4933  0.5081  0.3927
18181TIP3    H175958   3.127   1.538   4.514  0.1004  0.3487  0.7198
18181TIP3    H275959   3.262   1.581   4.460 -0.2906  1.1456  0.3821
18182TIP3   OH275960   2.061   0.632   2.059 -0.3818 -0.0155 -0.0414
18182TIP3    H175961   2.145   0.677   2.063 -0.4899  0.0464  1.9716
18182TIP3    H275962   2.083   0.539   2.066 -0.5178  0.0458  1.3668
18183TIP3   OH275963   3.169   0.745  10.520  0.0990 -0.2949 -0.1513
18183TIP3    H175964   3.164   0.699  10.436 -1.4231 -1.3770  0.5084
18183TIP3    H275965   3.096   0.709  10.571 -1.3775  3.0822  0.2712
18184TIP3   OH275966   3.847   2.131   1.579 -0.2077 -0.0186  0.5032
18184TIP3    H175967   3.927   2.079   1.588  0.3351  0.7890  0.4739
18184TIP3    H275968   3.779   2.068   1.558 -0.1933 -1.1055  3.5801
18185TIP3   OH275969   1.492   4.514  15.533 -0.2929 -0.3741 -0.9353
18185TIP3    H175970   1.533   4.598  15.510 -1.5456  0.6651  0.5825
18185TIP3    H275971   1.566   4.453  15.538  0.4332  0.1636 -3.9721
18186TIP3   OH275972   0.749   4.271   4.842  0.2885  0.5305 -0.7441
18186TIP3    H175973   0.715   4.223   4.917  2.9026 -0.4139 -0.1232
18186TIP3    H275974   0.718   4.361   4.855 -0.4907  0.0680  0.6845
18187TIP3   OH275975   5.220   4.930  11.121  0.1281 -0.0721  0.3720
18187TIP3    H175976   5.226   4.996  11.190  1.0483  2.1028 -1.7288
18187TIP3    H275977   5.131   4.938  11.087  1.0069  1.9151 -1.5840
18188TIP3   OH275978   3.334   5.499  10.729  0.0580 -0.9173  0.0776
18188TIP3    H175979   3.241   5.489  10.751 -0.5909  0.7681 -1.7218
18188TIP3    H275980   3.371   5.550  10.800 -0.9821  0.5699 -0.4286
18189TIP3   OH275981   4.037   2.505   0.203  0.1987 -0.6266  0.2334
18189TIP3    H175982   4.066   2.588   0.164 -1.8082 -0.9289 -2.0517
18189TIP3    H275983   3.983   2.530   0.278  0.4471  0.0985  0.1681
18190TIP3   OH275984   3.342   5.385  16.838 -0.7086  0.4645  0.0375
18190TIP3    H175985   3.280   5.429  16.779 -1.3759  1.8638  1.7254
18190TIP3    H275986   3.413   5.449  16.849 -0.0194 -0.2608 -0.1702
18191TIP3   OH275987   3.513   3.388  15.216 -0.3206 -0.5150  0.1633
18191TIP3    H175988   3.536   3.425  15.130  1.0638 -1.7716 -0.0279
18191TIP3    H275989   3.584   3.327  15.236 -2.1412 -2.5044  0.8081
18192TIP3   OH275990   2.344   3.015  15.243 -0.4826 -0.4232 -0.7752
18192TIP3    H175991   2.292   3.094  15.261  1.2158  0.8748 -1.4927
18192TIP3    H275992   2.359   3.018  15.149  1.9204 -0.1412 -0.3922
18193TIP3   OH275993   4.551   4.859  13.708  0.5088  0.0442 -0.0059
18193TIP3    H175994   4.494   4.794  13.748 -1.3811  1.2168 -0.7187
18193TIP3    H275995   4.609   4.888  13.778  0.4788 -1.4271  0.6375
18194TIP3   OH275996   5.597   5.850   3.053 -0.5113  0.1159  0.0281
18194TIP3    H175997   5.676   5.796   3.062  0.2229  1.4523  1.7568
18194TIP3    H275998   5.627   5.930   3.011 -0.3207  1.8885  3.3946
18195TIP3   OH275999   0.613   4.807   5.268  0.1411 -0.2611  0.0506
18195TIP3    H176000   0.616   4.715   5.243  1.3170 -0.6068  1.4073
18195TIP3    H276001   0.538   4.813   5.328  0.6293 -0.5430  0.7026
18196TIP3   OH276002   2.966   3.981  12.446 -0.0566 -0.6550  0.7062
18196TIP3    H176003   2.912   3.903  12.436  0.5261 -0.8561 -0.9760
18196TIP3    H276004   2.922   4.048  12.394 -0.3583  0.0487  1.8484
18197TIP3   OH276005   6.763   0.140  13.708  0.4266 -0.0652  0.3084
18197TIP3    H176006   6.717   0.130  13.792  0.4610 -1.2706  0.1905
18197TIP3    H276007   6.695   0.125  13.642  0.8248 -1.1072  0.1297
18198TIP3   OH276008   5.871   3.874   2.142  0.1566  0.1029 -0.1822
18198TIP3    H176009   5.917   3.939   2.194  2.6507 -0.2639 -1.8399
18198TIP3    H276010   5.804   3.923   2.095  1.5767  1.3851 -0.9101
18199TIP3   OH276011   0.117   5.233   0.754  0.8140  0.4388 -0.2349
18199TIP3    H176012   0.025   5.213   0.771  0.6299  2.2647  1.0868
18199TIP3    H276013   0.121   5.250   0.660  0.0113 -0.6093 -0.4736
18200TIP3   OH276014   4.595   4.531  12.018 -0.3123 -0.4669 -0.3567
18200TIP3    H176015   4.592   4.602  11.954  1.4577 -0.4369 -0.4338
18200TIP3    H276016   4.516   4.542  12.070 -0.7514  0.7183 -1.2580
18201TIP3   OH276017   1.016   3.275   2.277  0.2371 -0.2299 -0.1409
18201TIP3    H176018   0.954   3.208   2.250 -0.2081  0.9901 -2.2930
18201TIP3    H276019   0.973   3.319   2.350 -1.1607  0.1331 -1.1459
18202TIP3   OH276020   1.274   6.345  13.793  0.2415  0.6724 -0.2776
18202TIP3    H176021   1.339   6.414  13.783  0.7369  0.2841  0.2150
18202TIP3    H276022   1.315   6.282  13.852 -1.2464  1.2406  1.4224
18203TIP3   OH276023   3.326   2.690  13.697  0.1690 -0.1004  0.2099
18203TIP3    H176024   3.240   2.662  13.665  0.6128 -0.0060 -1.0940
18203TIP3    H276025   3.330   2.657  13.787  0.0374 -2.8711 -0.7489
18204TIP3   OH276026   4.938   4.951  14.216  0.0508  0.4308  0.7081
18204TIP3    H176027   5.015   4.931  14.162  0.5646 -0.2132  1.6793
18204TIP3    H276028   4.948   5.044  14.237  0.8624  0.2168  1.2950
18205TIP3   OH276029   2.106   4.699   4.387  0.1117 -0.3871  0.1303
18205TIP3    H176030   2.099   4.741   4.301 -2.2196  1.0403  0.9574
18205TIP3    H276031   2.047   4.624   4.381  1.2043 -1.2439 -0.0325
18206TIP3   OH276032   3.555   2.373   5.865 -0.2302 -0.1244  0.4689
18206TIP3    H176033   3.466   2.401   5.888 -0.3476  1.0807 -1.3162
18206TIP3    H276034   3.556   2.279   5.883 -1.8806 -0.1606  0.4869
18207TIP3   OH276035   2.966   2.540   5.278  0.3093 -0.0302 -0.5153
18207TIP3    H176036   3.056   2.561   5.302 -0.1176  1.4406 -0.1772
18207TIP3    H276037   2.938   2.475   5.343  0.2935  1.3772  0.8921
18208TIP3   OH276038   2.922   3.040  10.734  0.3601  0.6006 -0.6201
18208TIP3    H176039   2.867   2.964  10.716  0.7017  0.8666 -2.9767
18208TIP3    H276040   3.011   3.006  10.732  0.5023  1.0072 -1.4922
18209TIP3   OH276041   0.388   5.904   0.809  0.0203 -0.4935  0.0530
18209TIP3    H176042   0.343   5.877   0.729  2.2015 -0.2281 -1.3096
18209TIP3    H276043   0.349   5.850   0.877 -2.6788  0.0680 -0.9772
18210TIP3   OH276044   5.601   3.136   3.688 -0.4773 -0.3785 -0.1382
18210TIP3    H176045   5.590   3.230   3.675  0.6663 -0.2352 -0.1392
18210TIP3    H276046   5.651   3.106   3.612  0.1185 -0.7858  0.4087
18211TIP3   OH276047   1.651   3.362  15.446  0.4621  0.0156 -0.5585
18211TIP3    H176048   1.612   3.443  15.413  0.7425  0.0113 -0.8911
18211TIP3    H276049   1.711   3.334  15.378  1.0536  0.0187 -0.0474
18212TIP3   OH276050   0.617   5.532   1.633  0.2522  0.2744 -0.0574
18212TIP3    H176051   0.623   5.624   1.606 -2.2307  0.4051 -0.3356
18212TIP3    H276052   0.580   5.487   1.557  0.4875 -0.7622  0.4405
18213TIP3   OH276053   3.708   0.834   0.810 -0.3358  0.3490  0.1937
18213TIP3    H176054   3.657   0.777   0.753 -1.3322 -0.3268  1.7413
18213TIP3    H276055   3.716   0.786   0.893  0.6600  1.5222  0.8074
18214TIP3   OH276056   3.040   2.053  11.579  0.5523 -0.7060  0.2308
18214TIP3    H176057   3.048   2.122  11.644 -1.5167 -0.5878  0.3926
18214TIP3    H276058   3.071   1.974  11.623  1.6966 -0.1330  0.4664
18215TIP3   OH276059   3.086   0.202  14.339  0.0994 -0.5762  0.0462
18215TIP3    H176060   2.998   0.181  14.308  0.1090 -0.2667 -0.1943
18215TIP3    H276061   3.138   0.124  14.319  0.0099 -0.5390 -0.3326
18216TIP3   OH276062   2.718   3.465  12.309 -0.2249 -0.2882  0.0824
18216TIP3    H176063   2.686   3.550  12.280 -2.1618 -0.9386  0.2205
18216TIP3    H276064   2.732   3.416  12.227  1.6326  0.4014 -0.0285
18217TIP3   OH276065   4.437   2.603  11.716 -0.1144  0.1191  0.5217
18217TIP3    H176066   4.345   2.577  11.709 -0.6005  1.9188  0.1335
18217TIP3    H276067   4.455   2.652  11.636  1.4934 -1.1237  0.0959
18218TIP3   OH276068   1.242   6.773  14.584  0.4324  0.0170 -0.7636
18218TIP3    H176069   1.160   6.759  14.536 -2.2452 -1.1280  3.8721
18218TIP3    H276070   1.300   6.704  14.552 -2.1942 -2.4295 -0.4977
18219TIP3   OH276071   4.262   5.636  16.065 -0.5515 -0.1182  0.0613
18219TIP3    H176072   4.221   5.676  15.988 -1.6950 -1.4726 -0.0507
18219TIP3    H276073   4.254   5.542  16.050 -0.4129 -0.3979  1.6534
18220TIP3   OH276074   5.335   1.723   5.378 -0.1178  0.3992 -0.1260
18220TIP3    H176075   5.312   1.738   5.286 -0.6496  0.1226 -0.0418
18220TIP3    H276076   5.252   1.731   5.425  0.2350  1.0576  0.3982
18221TIP3   OH276077   5.107   6.439  16.058  0.1947  0.1507  0.1114
18221TIP3    H176078   5.095   6.368  16.121  1.2608  0.3115  0.5106
18221TIP3    H276079   5.197   6.430  16.028  0.9491  2.4048  1.5472
18222TIP3   OH276080   2.170   3.754  15.082 -0.4027 -0.4454  0.0073
18222TIP3    H176081   2.097   3.801  15.042  0.2289  0.6417  0.1186
18222TIP3    H276082   2.175   3.788  15.171  1.2277  0.6409 -0.4798
18223TIP3   OH276083   4.870   6.174   1.188  0.3020 -0.5356 -0.7011
18223TIP3    H176084   4.826   6.095   1.218  0.7847 -0.2952  0.6704
18223TIP3    H276085   4.820   6.202   1.111  0.0539 -2.0918 -1.1110
18224TIP3   OH276086   5.809   3.093  15.363 -0.2563 -0.1609 -0.0808
18224TIP3    H176087   5.726   3.092  15.316 -1.1154 -3.3583  1.3627
18224TIP3    H276088   5.792   3.143  15.442 -0.7100 -0.5242  0.0515
18225TIP3   OH276089   2.222   1.170  16.683  0.0078 -0.6416  0.3458
18225TIP3    H176090   2.291   1.235  16.696 -1.5381  1.1699 -0.1245
18225TIP3    H276091   2.251   1.093  16.731  1.8506  0.4276  1.0006
18226TIP3   OH276092   0.499   3.955  15.858 -0.6288 -0.3143 -0.4093
18226TIP3    H176093   0.411   3.948  15.822 -0.5555 -0.8046 -0.4955
18226TIP3    H276094   0.555   3.974  15.783 -0.8273  1.1978 -0.1744
18227TIP3   OH276095   4.303   6.384  16.332 -0.5977 -0.1608 -0.3254
18227TIP3    H176096   4.349   6.462  16.299 -0.6863  0.5043  1.1038
18227TIP3    H276097   4.361   6.347  16.398 -1.3968 -0.2200  0.3553
18228TIP3   OH276098   3.912   3.539  11.179  0.5686 -0.0388 -0.3601
18228TIP3    H176099   4.005   3.559  11.187  0.9507 -2.2102  1.0442
18228TIP3    H276100   3.909   3.447  11.155 -1.2257 -0.1740  0.2721
18229TIP3   OH276101   0.764   3.707   5.892 -0.1388 -0.3284  0.1916
18229TIP3    H176102   0.824   3.744   5.958  0.1006 -0.3363 -0.0233
18229TIP3    H276103   0.738   3.623   5.929 -0.8203  0.1295  0.7657
18230TIP3   OH276104   1.103   2.080  13.082 -0.0214 -0.3770  0.3497
18230TIP3    H176105   1.050   2.091  13.161 -0.6652  0.0600 -0.1322
18230TIP3    H276106   1.190   2.113  13.106  0.2752 -1.8758  1.4061
18231TIP3   OH276107   0.659   6.244   4.706  0.0335  0.6799 -0.1532
18231TIP3    H176108   0.717   6.183   4.661  0.4097  1.3049 -0.5203
18231TIP3    H276109   0.584   6.253   4.648 -0.1149  0.4203 -0.0058
18232TIP3   OH276110   1.161   4.326  13.788  0.0600  0.0089 -0.1438
18232TIP3    H176111   1.131   4.257  13.847 -1.4978 -0.3784 -1.3405
18232TIP3    H276112   1.127   4.407  13.826  3.2200  0.3715  2.1285
18233TIP3   OH276113   2.362   3.578  11.340  0.2224  0.2233 -0.0098
18233TIP3    H176114   2.311   3.590  11.260 -0.3240  0.6525  0.4026
18233TIP3    H276115   2.329   3.497  11.377 -0.2806  0.5889  0.3455
18234TIP3   OH276116   2.213   4.558   4.636  0.6387  0.1605  0.5156
18234TIP3    H176117   2.207   4.476   4.586 -0.9447  1.0067 -0.7189
18234TIP3    H276118   2.151   4.617   4.593  0.7756  1.5847  2.2255
18235TIP3   OH276119   0.494   4.472  16.362  0.0608  0.1122  0.1541
18235TIP3    H176120   0.570   4.510  16.317  1.3207 -1.3640  0.9891
18235TIP3    H276121   0.419   4.515  16.322  1.2005 -0.3997 -2.6461
18236TIP3   OH276122   3.446   4.873  16.733  0.4907  0.0121  0.0200
18236TIP3    H176123   3.484   4.850  16.818  0.6942  1.1868  0.2601
18236TIP3    H276124   3.515   4.853  16.670  1.6927  2.4099  0.4851
18237TIP3   OH276125   5.215   2.051  12.488 -0.4676 -0.0549  0.3559
18237TIP3    H176126   5.152   1.983  12.512 -0.7834 -0.0723 -0.5074
18237TIP3    H276127   5.229   2.039  12.394  0.2664  0.4124  0.3997
18238TIP3   OH276128   6.687   5.866   0.004  0.1194 -0.2523 -0.0519
18238TIP3    H176129   6.724   5.851   0.090  1.9944 -1.8830 -1.1004
18238TIP3    H276130   6.632   5.790  -0.013 -1.5373  0.8319  0.3492
18239TIP3   OH276131   0.869   1.307   1.416  0.1826 -0.1042  0.3286
18239TIP3    H176132   0.911   1.259   1.488 -0.9490 -0.0649  1.0325
18239TIP3    H276133   0.915   1.391   1.414  1.4838 -0.8217 -0.2394
18240TIP3   OH276134   6.280   0.084   2.745 -0.2187  0.3677 -0.1900
18240TIP3    H176135   6.345   0.146   2.711 -1.2284  0.9146 -1.1682
18240TIP3    H276136   6.198   0.111   2.703 -1.1421 -0.1035  1.2994
18241TIP3   OH276137   1.983   5.356   2.890  0.4105  0.4102 -0.1531
18241TIP3    H176138   1.950   5.327   2.975 -1.2075  2.4120 -0.0406
18241TIP3    H276139   1.904   5.368   2.836  1.1960  1.8245 -1.0398
18242TIP3   OH276140   0.562   0.709   0.114 -0.2073 -0.5205  0.9583
18242TIP3    H176141   0.501   0.636   0.115 -0.0309 -0.6664  0.9355
18242TIP3    H276142   0.506   0.787   0.111 -0.3639 -0.6873 -0.4232
18243TIP3   OH276143   5.924   1.631   3.070  0.0764 -0.0995  0.0212
18243TIP3    H176144   5.891   1.601   3.154  1.8740 -1.0374  0.4166
18243TIP3    H276145   5.960   1.718   3.088 -0.7524  0.2694 -0.0791
18244TIP3   OH276146   0.793   3.409  14.975  0.1747 -0.1422 -0.0774
18244TIP3    H176147   0.744   3.425  14.894 -0.1374  0.1199  0.1600
18244TIP3    H276148   0.865   3.352  14.949  1.6310  2.0813 -1.0592
18245TIP3   OH276149   0.815   4.927   0.239  0.1001  0.3876  0.3478
18245TIP3    H176150   0.891   4.872   0.216  0.4483  0.8093  0.4787
18245TIP3    H276151   0.846   4.979   0.313 -1.3872 -1.7833  2.5641
18246TIP3   OH276152   0.495   4.638  11.127 -0.5231  0.3937  0.2504
18246TIP3    H176153   0.554   4.637  11.051 -0.3852 -0.2395  0.3628
18246TIP3    H276154   0.493   4.729  11.154  3.5075 -0.1215  2.6842
18247TIP3   OH276155   1.581   3.986   6.325  0.1703 -0.1765 -0.5295
18247TIP3    H176156   1.669   3.981   6.363 -0.3263  0.1176  0.6414
18247TIP3    H276157   1.533   3.915   6.367 -0.2085 -0.2280 -1.0490
18248TIP3   OH276158   2.957   6.749   2.049  0.1803  0.1117 -0.5279
18248TIP3    H176159   2.923   6.683   1.989  2.8033 -0.1523 -1.7783
18248TIP3    H276160   2.885   6.812   2.059 -0.7273 -0.5072 -2.9435
18249TIP3   OH276161   4.701   3.077  15.919 -0.3589  0.8050 -0.1736
18249TIP3    H176162   4.648   3.007  15.879 -2.2231  2.0108  0.1163
18249TIP3    H276163   4.718   3.046  16.008 -0.6845  0.4460 -0.2337
18250TIP3   OH276164   5.883   6.295  17.227  0.4165  0.0969  0.1766
18250TIP3    H176165   5.823   6.228  17.261  1.4564 -0.2258  1.4093
18250TIP3    H276166   5.831   6.376  17.229 -1.2314 -0.8318 -2.4172
18251TIP3   OH276167   3.495   4.745   0.415 -0.3491 -0.2565 -0.0107
18251TIP3    H176168   3.541   4.688   0.477  2.1877  2.6441  0.8987
18251TIP3    H276169   3.560   4.764   0.347 -1.1403  1.5944 -0.2712
18252TIP3   OH276170   3.685   2.104  13.279  0.0024 -0.0346  0.4416
18252TIP3    H176171   3.663   2.113  13.186 -0.7838 -1.0116  0.5242
18252TIP3    H276172   3.631   2.170  13.322  0.3948  0.4461  0.2031
18253TIP3   OH276173   6.063   4.996  16.037 -0.9538 -0.7096  0.0726
18253TIP3    H176174   6.141   4.961  15.994 -1.6488 -3.3227  0.8235
18253TIP3    H276175   6.000   4.924  16.033 -2.1718  0.1901  2.4468
18254TIP3   OH276176   4.367   3.375   0.180 -1.2858 -0.1829  0.4232
18254TIP3    H176177   4.290   3.430   0.166 -0.1046  1.3132 -0.3314
18254TIP3    H276178   4.417   3.381   0.099  0.0749 -0.3964  1.2190
18255TIP3   OH276179   1.262   4.909   3.672 -0.4088  0.3013  0.8111
18255TIP3    H176180   1.229   4.870   3.592 -0.0091 -0.7802  1.1664
18255TIP3    H276181   1.283   4.999   3.648  1.5002 -0.5443 -0.7922
18256TIP3   OH276182   5.939   1.089   0.641 -0.4266 -0.8437  0.0487
18256TIP3    H176183   6.003   1.079   0.571 -2.5315 -1.1912 -1.8821
18256TIP3    H276184   5.949   1.011   0.695  0.8609 -0.8136 -0.1285
18257TIP3   OH276185   5.829   3.572  14.638  0.1720 -0.1255 -0.0992
18257TIP3    H176186   5.764   3.635  14.670 -0.5584 -0.6099 -0.6113
18257TIP3    H276187   5.826   3.500  14.701  1.0484  0.3808  0.5165
18258TIP3   OH276188   5.781   1.679   2.646  0.3615  0.1356  0.6761
18258TIP3    H176189   5.745   1.597   2.613 -0.1810  1.3256 -1.8275
18258TIP3    H276190   5.706   1.724   2.685  0.9361 -1.1273  3.3125
18259TIP3   OH276191   5.655   1.304  12.438  0.4962  0.0990  1.0164
18259TIP3    H176192   5.690   1.217  12.417  0.2652 -0.4482  2.8686
18259TIP3    H276193   5.622   1.297  12.527 -0.9589  1.6678  0.6402
18260TIP3   OH276194   1.567   0.735   2.191  0.7593  0.2886 -0.2940
18260TIP3    H176195   1.483   0.697   2.216  0.1143  1.5663 -0.4541
18260TIP3    H276196   1.632   0.671   2.219 -0.2661 -0.7249 -0.1828
18261TIP3   OH276197   5.294   4.395   2.663  0.4881 -0.1691 -0.2883
18261TIP3    H176198   5.266   4.446   2.587 -0.6283 -1.5747 -0.8299
18261TIP3    H276199   5.382   4.428   2.683  0.3994  0.8771 -1.5912
18262TIP3   OH276200   1.791   5.461  15.045 -0.3029  0.1547 -0.2352
18262TIP3    H176201   1.801   5.534  14.983  0.6086  0.8688  0.7366
18262TIP3    H276202   1.738   5.498  15.116  0.1610 -0.1329  0.2596
18263TIP3   OH276203   1.515   0.845  13.246 -0.3295 -0.2186  0.3363
18263TIP3    H176204   1.553   0.800  13.322 -0.6631 -0.6473  0.2464
18263TIP3    H276205   1.589   0.855  13.186 -0.2534 -0.6396  0.3578
18264TIP3   OH276206   0.286   2.782  15.655  0.2821  0.5696 -0.6734
18264TIP3    H176207   0.356   2.717  15.667 -0.6877 -0.5292 -0.8949
18264TIP3    H276208   0.332   2.863  15.636  1.5210 -0.0571 -0.4189
18265TIP3   OH276209   4.594   3.947  13.962  0.4591  0.0712 -0.3502
18265TIP3    H176210   4.528   3.880  13.946  0.3053  0.7404 -2.7086
18265TIP3    H276211   4.674   3.897  13.984 -0.5982 -0.7509  1.7396
18266TIP3   OH276212   5.478   5.905  10.362 -0.2766  0.5116 -0.4766
18266TIP3    H176213   5.561   5.943  10.333  0.1644 -1.2106 -1.4702
18266TIP3    H276214   5.429   5.891  10.282 -0.3122 -1.3077 -0.1433
18267TIP3   OH276215   0.860   2.585  16.266 -0.2219  0.1220  0.2022
18267TIP3    H176216   0.872   2.676  16.240  1.2753 -0.1894 -0.2643
18267TIP3    H276217   0.772   2.562  16.234  0.0855  0.8835 -1.2307
18268TIP3   OH276218   0.639   5.998   0.707  0.1534 -0.2641  0.0288
18268TIP3    H176219   0.549   5.972   0.727 -0.4605  1.3043 -0.6143
18268TIP3    H276220   0.649   5.980   0.614 -0.2832  1.6875 -0.4314
18269TIP3   OH276221   2.638   4.046   0.755 -0.1393 -0.8151 -0.2352
18269TIP3    H176222   2.639   3.985   0.828 -0.3831  1.1234  1.4409
18269TIP3    H276223   2.616   4.131   0.795  0.2451  0.3765 -2.4697
18270TIP3   OH276224   2.928   0.355  15.424 -0.0052 -0.2144  0.7886
18270TIP3    H176225   2.951   0.369  15.332 -0.8490 -0.7131  0.4971
18270TIP3    H276226   2.985   0.415  15.472 -0.3779  0.9020 -0.1338
18271TIP3   OH276227   0.328   2.106   1.606  0.2962  0.1258 -0.3815
18271TIP3    H176228   0.320   2.056   1.687  0.1342 -0.1419 -0.5625
18271TIP3    H276229   0.420   2.134   1.605  0.0470  1.0194  0.4073
18272TIP3   OH276230   0.462   0.124   1.053  1.0545  0.3433 -0.1234
18272TIP3    H176231   0.423   0.209   1.030 -0.0336 -0.0343  0.2886
18272TIP3    H276232   0.498   0.091   0.971  1.1499  1.0361 -0.3625
18273TIP3   OH276233   5.492   3.579  14.675 -0.0369 -0.0698  0.5443
18273TIP3    H176234   5.455   3.491  14.665 -1.4520  0.3320  1.9572
18273TIP3    H276235   5.553   3.571  14.748  0.0102  0.0665  0.5201
18274TIP3   OH276236   5.565   2.722  11.508 -0.0524 -0.0456  0.3059
18274TIP3    H176237   5.497   2.674  11.554  0.3045 -0.3321  0.5300
18274TIP3    H276238   5.641   2.664  11.508  1.1529  1.4369  2.7166
18275TIP3   OH276239   5.730   2.930  16.800 -0.1141  0.2607 -0.9107
18275TIP3    H176240   5.790   2.958  16.730  2.2766 -2.8993 -0.2529
18275TIP3    H276241   5.783   2.933  16.880 -2.0888  1.3916  0.4015
18276TIP3   OH276242   5.753   3.423  12.436 -0.3530 -0.0478  0.1268
18276TIP3    H176243   5.802   3.355  12.483 -0.7414 -0.3214  0.1434
18276TIP3    H276244   5.771   3.407  12.343 -1.3609 -0.9037  0.0610
18277TIP3   OH276245   1.933   5.076   5.489  0.5800 -0.3702  0.2468
18277TIP3    H176246   1.969   5.113   5.570  1.0946  0.1445 -0.2198
18277TIP3    H276247   1.996   5.008   5.464 -1.3091 -2.9509  2.1438
18278TIP3   OH276248   3.750   2.068   5.075  0.0817 -0.3568 -0.2807
18278TIP3    H176249   3.736   2.041   5.166 -0.6477 -1.6496 -0.7609
18278TIP3    H276250   3.664   2.096   5.045  0.1426 -0.7235 -0.8151
18279TIP3   OH276251   2.828   2.021  12.296  0.3302 -0.3455  0.5451
18279TIP3    H176252   2.912   1.999  12.255  0.6677  0.6017  0.7139
18279TIP3    H276253   2.809   2.110  12.266 -0.7937 -0.6870  0.2306
18280TIP3   OH276254   5.654   5.900   3.789  0.2060  0.4344 -0.6710
18280TIP3    H176255   5.624   5.977   3.838 -1.8934 -0.3658 -0.6652
18280TIP3    H276256   5.624   5.826   3.841  0.5362 -0.4118 -1.6776
18281TIP3   OH276257   6.420   5.604   2.631  0.3224 -0.2694 -0.3501
18281TIP3    H176258   6.416   5.673   2.698  0.0494  0.1089 -0.7461
18281TIP3    H276259   6.445   5.651   2.551  1.9205 -0.9253 -0.2421
18282TIP3   OH276260   3.717   0.060  13.583 -0.2810  0.1842  0.4466
18282TIP3    H176261   3.808   0.072  13.612  0.1269 -0.7480 -0.4380
18282TIP3    H276262   3.712   0.107  13.500 -0.4498 -0.2692  0.2036
18283TIP3   OH276263   0.050   1.754   3.105 -0.3990  0.1223 -0.2498
18283TIP3    H176264   0.045   1.849   3.093 -1.1062  0.0047 -0.9800
18283TIP3    H276265   0.097   1.742   3.187  0.0224  1.0981 -0.3411
18284TIP3   OH276266   6.154   5.563   1.071 -0.0797 -0.0869  0.5626
18284TIP3    H176267   6.216   5.621   1.115 -1.6394  1.5374  0.6551
18284TIP3    H276268   6.161   5.480   1.119  2.7746 -0.2837 -0.1203
18285TIP3   OH276269   3.866   1.744   0.163 -0.0670 -0.5619  0.6950
18285TIP3    H176270   3.814   1.672   0.127 -1.1522  0.0454  1.0275
18285TIP3    H276271   3.934   1.759   0.097 -0.7567 -0.8783 -0.1026
18286TIP3   OH276272   0.346   2.067   5.920  0.1799  0.4183  0.5064
18286TIP3    H176273   0.320   2.122   5.994  0.8487  0.0156  1.0516
18286TIP3    H276274   0.264   2.029   5.889 -0.0553  0.1869  1.3785
18287TIP3   OH276275   6.727   3.239  13.604  0.3071  0.2052 -0.1467
18287TIP3    H176276   6.743   3.151  13.568 -1.1360  0.6481 -1.9674
18287TIP3    H276277   6.709   3.224  13.696 -2.1408 -1.6855 -0.8827
18288TIP3   OH276278   4.545   2.109  14.006  0.7506 -0.4714  0.1680
18288TIP3    H176279   4.564   2.163  13.929  0.8211  0.6005  0.9278
18288TIP3    H276280   4.487   2.163  14.059  1.2023 -0.9546  1.1563
18289TIP3   OH276281   3.836   3.273   5.415 -0.0170  0.3598  0.1707
18289TIP3    H176282   3.877   3.338   5.473  1.2261 -1.0508  0.8734
18289TIP3    H276283   3.745   3.268   5.446 -0.1292  1.7564  0.1054
18290TIP3   OH276284   1.530   0.718   5.876  0.4046  0.9291 -0.2759
18290TIP3    H176285   1.607   0.726   5.932 -1.1696  3.2603  1.6570
18290TIP3    H276286   1.528   0.800   5.826 -0.5095  0.6401 -0.7310
18291TIP3   OH276287   6.728   4.918  15.637  0.2930  0.1711 -0.2502
18291TIP3    H176288   6.789   4.951  15.571 -0.7237 -2.9200 -2.8908
18291TIP3    H276289   6.656   4.981  15.637  1.3964  1.4580 -0.3475
18292TIP3   OH276290   6.587   4.136   0.888  0.0953  0.1053  0.4800
18292TIP3    H176291   6.609   4.087   0.809 -3.4300 -0.2168 -0.3892
18292TIP3    H276292   6.514   4.087   0.927  1.5200  0.4453  3.7842
18293TIP3   OH276293   1.900   6.115   3.439 -0.5180 -0.1693  0.2865
18293TIP3    H176294   1.836   6.043   3.443  0.7351 -1.3507 -0.6193
18293TIP3    H276295   1.948   6.108   3.521  0.1154 -0.8664 -0.1336
18294TIP3   OH276296   0.690   5.699  12.357  0.1298  0.0667 -0.0880
18294TIP3    H176297   0.737   5.641  12.416 -0.7257  0.1513  0.6854
18294TIP3    H276298   0.611   5.650  12.334 -1.4282  1.5657  1.8898
18295TIP3   OH276299   1.232   2.655   6.156  0.3507 -0.1976 -0.2638
18295TIP3    H176300   1.281   2.658   6.074 -1.8227 -2.3740 -1.7051
18295TIP3    H276301   1.297   2.674   6.224  2.4689  0.2225 -2.3535
18296TIP3   OH276302   0.540   4.906  10.973 -0.2610  0.2208  0.3085
18296TIP3    H176303   0.521   4.990  10.930  0.1625  0.1906  0.0662
18296TIP3    H276304   0.627   4.917  11.011  1.1102 -1.1284 -2.2953
18297TIP3   OH276305   4.256   6.390   1.350 -0.5070 -0.7354  0.4859
18297TIP3    H176306   4.199   6.445   1.405  0.3496 -0.0420  0.6930
18297TIP3    H276307   4.220   6.400   1.262 -1.0056 -0.6921  0.6888
18298TIP3   OH276308   4.768   6.472  10.731  0.3522 -0.4101  0.1894
18298TIP3    H176309   4.715   6.515  10.799 -0.7852 -2.5726  0.7290
18298TIP3    H276310   4.746   6.519  10.651 -0.7244  0.1465  0.7914
18299TIP3   OH276311   3.526   5.951  11.348 -0.3489 -0.2335 -0.3577
18299TIP3    H176312   3.475   6.019  11.304  0.6916  0.8383  0.0631
18299TIP3    H276313   3.467   5.917  11.416 -0.2499  1.5601  0.6672
18300TIP3   OH276314   2.580   5.913   5.613  0.3123  0.5045 -0.0153
18300TIP3    H176315   2.615   5.996   5.645 -0.9146  0.5821  1.1992
18300TIP3    H276316   2.605   5.849   5.680 -0.4875  0.2774  0.0708
18301TIP3   OH276317   0.308   3.192  15.485 -0.0608  0.1786  0.1855
18301TIP3    H176318   0.272   3.275  15.517 -0.6324  0.6675 -1.6869
18301TIP3    H276319   0.324   3.141  15.565 -1.2012  1.4669  1.2700
18302TIP3   OH276320   2.967   1.631  12.632  0.4133 -0.0067 -0.4043
18302TIP3    H176321   3.048   1.667  12.667  1.3173 -1.0898 -1.3311
18302TIP3    H276322   2.959   1.545  12.673 -1.4225  0.9490  1.3391
18303TIP3   OH276323   1.260   0.820   2.382  0.5180 -0.0328  0.3452
18303TIP3    H176324   1.336   0.806   2.439  0.9586 -0.6245 -0.3686
18303TIP3    H276325   1.297   0.857   2.302 -0.1607  1.2962  0.6410
18304TIP3   OH276326   5.415   3.389   1.538 -0.1741  0.1473  0.2865
18304TIP3    H176327   5.371   3.469   1.509 -0.7790 -0.7312 -1.2989
18304TIP3    H276328   5.500   3.419   1.570  0.5022  1.2343 -2.3381
18305TIP3   OH276329   5.217   0.769   6.306  0.2630  0.2090 -0.0636
18305TIP3    H176330   5.175   0.831   6.366 -0.4430 -1.0438  0.7467
18305TIP3    H276331   5.279   0.721   6.361  1.9153  1.2299 -1.0078
18306TIP3   OH276332   5.573   3.069   4.162  0.0715 -0.2847  0.3984
18306TIP3    H176333   5.504   3.062   4.097 -0.5314 -0.7765  1.0722
18306TIP3    H276334   5.580   2.981   4.199  0.9651 -0.2060  0.4286
18307TIP3   OH276335   4.924   0.332   6.234 -0.3265  0.7503  0.3720
18307TIP3    H176336   4.843   0.382   6.222  0.3764  1.4991 -1.3602
18307TIP3    H276337   4.993   0.398   6.236  0.2429  0.1430  2.1930
18308TIP3   OH276338   1.841   4.687  13.090  0.2605  0.0643  0.5984
18308TIP3    H176339   1.890   4.701  13.009  0.9260 -2.8139  0.4362
18308TIP3    H276340   1.885   4.743  13.154  0.5670  1.3460 -0.6925
18309TIP3   OH276341   3.400   2.617  14.599  0.0868  0.3172 -0.4773
18309TIP3    H176342   3.352   2.565  14.535  0.7457 -0.7837 -0.1117
18309TIP3    H276343   3.390   2.707  14.571 -1.4648  0.0201 -0.8849
18310TIP3   OH276344   6.551   0.513  15.542  0.2050 -0.0255 -0.3911
18310TIP3    H176345   6.590   0.519  15.629  1.5959 -0.0308 -0.9903
18310TIP3    H276346   6.610   0.565  15.486  0.2352 -1.3541 -1.6221
18311TIP3   OH276347   2.597   1.166   0.206  0.4966 -0.1032 -0.6104
18311TIP3    H176348   2.540   1.136   0.135 -3.0750  1.3439  1.4921
18311TIP3    H276349   2.604   1.091   0.265  1.0954 -0.4219 -1.0942
18312TIP3   OH276350   2.313   5.790   6.704  0.1792 -0.5709  0.2915
18312TIP3    H176351   2.338   5.701   6.678  0.6707 -0.4721  0.4132
18312TIP3    H276352   2.249   5.779   6.773 -0.6044 -0.8384 -0.4710
18313TIP3   OH276353   5.283   0.013  14.231  0.1666  0.7239 -0.7819
18313TIP3    H176354   5.208   0.052  14.185 -2.1609  0.1798  2.4204
18313TIP3    H276355   5.310   0.079  14.294 -0.0580 -0.5371  0.6693
18314TIP3   OH276356   5.407   3.336   2.591 -0.4147  0.5637  0.1321
18314TIP3    H176357   5.379   3.427   2.601  0.8629  0.8839  0.9100
18314TIP3    H276358   5.361   3.305   2.513 -2.8259  1.0903  1.2985
18315TIP3   OH276359   0.457   4.551  12.791  0.2433  0.3480  0.4410
18315TIP3    H176360   0.489   4.641  12.790  0.4227  0.2921  1.1113
18315TIP3    H276361   0.536   4.498  12.777  0.1971  0.2776  0.4470
18316TIP3   OH276362   4.094   3.859   5.273 -0.2995 -0.4998 -0.2771
18316TIP3    H176363   4.169   3.895   5.226 -0.1029  0.9277  1.0645
18316TIP3    H276364   4.050   3.936   5.310 -0.2065 -1.5885  2.1859
18317TIP3   OH276365   1.950   6.715  11.657  0.1739  0.1568  0.6432
18317TIP3    H176366   2.026   6.760  11.620 -0.9436  0.4796 -1.3363
18317TIP3    H276367   1.879   6.731  11.594 -1.0540 -1.6918  1.5008
18318TIP3   OH276368   4.424   2.048   1.664 -0.9130 -0.7869  0.1845
18318TIP3    H176369   4.413   1.957   1.693  0.1197 -0.9311  0.1276
18318TIP3    H276370   4.485   2.086   1.727 -1.0742 -0.2247  0.0047
18319TIP3   OH276371   6.164   1.403  11.444 -0.2136  0.0214 -0.2922
18319TIP3    H176372   6.180   1.316  11.408 -1.2426  0.2098 -1.2224
18319TIP3    H276373   6.250   1.443  11.449  0.1693 -0.7465 -0.6432
18320TIP3   OH276374   6.230   0.271   5.958  0.2482  0.2553 -0.0692
18320TIP3    H176375   6.160   0.219   5.999  1.8976 -1.0785  1.0958
18320TIP3    H276376   6.263   0.326   6.029  1.4712 -0.2871 -0.2153
18321TIP3   OH276377   0.034   1.041  16.344 -0.2332  0.3351 -0.0751
18321TIP3    H176378   0.123   1.015  16.366 -0.8822 -1.2145  0.8263
18321TIP3    H276379   0.036   1.137  16.345  1.1551  0.3174  1.0188
18322TIP3   OH276380   3.160   0.280  15.830 -0.1838  0.2169 -0.1775
18322TIP3    H176381   3.242   0.302  15.875  0.1662 -0.7961 -0.2972
18322TIP3    H276382   3.109   0.232  15.894 -0.4082  0.2741 -0.3132
18323TIP3   OH276383   4.987   1.178  14.051 -0.2190  0.5319  0.5410
18323TIP3    H176384   4.904   1.187  14.003 -1.8985 -0.7227  3.0862
18323TIP3    H276385   4.990   1.085  14.076  1.5546  0.7480  1.1677
18324TIP3   OH276386   3.074   0.556  12.295  0.3635  0.0293 -0.5597
18324TIP3    H176387   2.998   0.498  12.281  0.2798  0.3741 -1.6019
18324TIP3    H276388   3.049   0.611  12.369 -0.2787 -0.0731 -0.6972
18325TIP3   OH276389   4.018   5.018  15.830 -0.3240  0.9128  0.4748
18325TIP3    H176390   3.937   4.969  15.841 -1.4778  2.9792  1.3184
18325TIP3    H276391   4.016   5.046  15.738  1.3235 -2.2644 -0.6030
18326TIP3   OH276392   4.273   6.183  12.434  0.0689 -0.4064  0.2855
18326TIP3    H176393   4.201   6.237  12.401 -0.4679 -1.0310  0.4282
18326TIP3    H276394   4.332   6.174  12.359 -0.3496 -0.4817 -0.0376
18327TIP3   OH276395   2.696   4.059   2.104  0.1373  0.3665  0.6030
18327TIP3    H176396   2.610   4.091   2.130  1.0951  1.5919  2.4269
18327TIP3    H276397   2.712   4.099   2.019  0.0121  2.3459  1.4698
18328TIP3   OH276398   6.543   2.191  11.795 -0.2056 -0.2518 -0.2904
18328TIP3    H176399   6.635   2.213  11.810 -0.4810  0.2871  0.6903
18328TIP3    H276400   6.512   2.257  11.733  0.0009 -0.2626 -0.4040
18329TIP3   OH276401   2.654   6.630  17.123 -0.7165  0.4861 -0.2500
18329TIP3    H176402   2.638   6.566  17.054 -1.3432 -0.5257  0.8009
18329TIP3    H276403   2.628   6.585  17.203  1.0726  1.2127  0.7866
18330TIP3   OH276404   1.799   3.362  16.863  0.1152  0.5353  0.0474
18330TIP3    H176405   1.883   3.398  16.893  0.0508  0.3726  0.4192
18330TIP3    H276406   1.789   3.397  16.774  0.7014  0.3469 -0.0959
18331TIP3   OH276407   4.709   5.812   2.832  0.1064 -0.4312 -0.1164
18331TIP3    H176408   4.651   5.832   2.759 -0.4859 -0.3026  0.3838
18331TIP3    H276409   4.711   5.717   2.836 -0.6029 -0.4296  0.2837
18332TIP3   OH276410   2.292   2.785  14.663 -0.3644 -0.0657 -0.1081
18332TIP3    H176411   2.380   2.754  14.686 -0.0261 -0.1340 -1.4403
18332TIP3    H276412   2.281   2.761  14.571 -1.6120  0.3343 -0.0797
18333TIP3   OH276413   5.800   4.319  13.369  0.4194 -0.2139 -0.3146
18333TIP3    H176414   5.848   4.390  13.326  2.2996 -0.8751  0.6118
18333TIP3    H276415   5.765   4.266  13.298  0.5266  0.6407 -1.0102
18334TIP3   OH276416   2.459   6.386  14.944  0.2195 -0.2759 -0.4518
18334TIP3    H176417   2.527   6.344  14.893 -0.5983 -2.1742 -0.0289
18334TIP3    H276418   2.377   6.345  14.914 -0.5164  0.4601  0.5097
18335TIP3   OH276419   1.077   1.661   6.237  0.6528  0.6618  0.0866
18335TIP3    H176420   1.114   1.737   6.191 -0.6626  0.5560 -1.1920
18335TIP3    H276421   1.006   1.631   6.180  0.9781 -1.3680  0.7182
18336TIP3   OH276422   4.474   5.953   2.347  0.6020  0.1388  0.4385
18336TIP3    H176423   4.403   5.996   2.298  1.1476  0.6088  0.0576
18336TIP3    H276424   4.553   5.975   2.298  0.9363 -0.9684  0.4629
18337TIP3   OH276425   3.686   3.576   4.819  0.5164  0.0594 -0.2548
18337TIP3    H176426   3.771   3.537   4.797  0.3462 -1.5946  1.8237
18337TIP3    H276427   3.701   3.621   4.902 -0.6124 -0.1591  0.0777
18338TIP3   OH276428   3.866   0.989  15.728 -0.1824 -0.6886  0.1848
18338TIP3    H176429   3.945   0.938  15.709 -0.5184 -1.1463  0.0172
18338TIP3    H276430   3.892   1.047  15.800 -0.1515 -1.9574  1.2174
18339TIP3   OH276431   5.436   0.390   5.161  0.1466 -0.2788 -0.7342
18339TIP3    H176432   5.474   0.304   5.139 -0.0115 -0.4877 -0.1868
18339TIP3    H276433   5.511   0.443   5.187  0.0709 -0.7132  0.4158
18340TIP3   OH276434   6.211   3.327   1.257 -0.3450 -0.1727  0.1403
18340TIP3    H176435   6.219   3.252   1.317 -0.4496  0.0175  0.3918
18340TIP3    H276436   6.160   3.391   1.306  1.1341  0.7094  0.5333
18341TIP3   OH276437   3.624   4.619  14.225  0.3314  0.2351 -0.1080
18341TIP3    H176438   3.659   4.531  14.210 -0.2557  0.0755 -0.5885
18341TIP3    H276439   3.582   4.614  14.311 -0.3344 -0.1611 -0.4534
18342TIP3   OH276440   1.680   5.274   1.018  0.6289  0.2874 -0.0410
18342TIP3    H176441   1.625   5.306   1.089  0.1912 -1.2126  0.3325
18342TIP3    H276442   1.666   5.335   0.946  1.1467  1.8727  1.1932
18343TIP3   OH276443   5.066   4.379  12.753 -0.2679 -1.2322 -0.3253
18343TIP3    H176444   5.023   4.313  12.807  0.6378 -1.3953  0.1955
18343TIP3    H276445   5.004   4.452  12.752  0.6805 -0.3327  2.8012
18344TIP3   OH276446   0.540   3.738  16.115 -0.0915  0.7063  0.6589
18344TIP3    H176447   0.538   3.801  16.044 -2.5388 -0.7459 -0.6490
18344TIP3    H276448   0.496   3.783  16.188 -0.5938  0.9898  0.1805
18345TIP3   OH276449   3.935   2.807  12.220  0.2584 -0.6636  0.0144
18345TIP3    H176450   3.981   2.730  12.185  0.1817 -1.0768  0.8141
18345TIP3    H276451   3.868   2.771  12.279 -0.6690 -0.0415 -0.6324
18346TIP3   OH276452   5.162   2.868  14.195  0.2048 -0.1444  0.2396
18346TIP3    H176453   5.141   2.804  14.127 -0.5781  0.2678  0.0774
18346TIP3    H276454   5.117   2.948  14.167 -1.2149 -0.3182  1.8888
18347TIP3   OH276455   0.844   5.560  15.923  0.3186 -0.2937 -0.0207
18347TIP3    H176456   0.810   5.620  15.989  0.4468  0.6418 -0.7998
18347TIP3    H276457   0.909   5.507  15.969 -0.4534 -0.4725  0.8931
18348TIP3   OH276458   4.516   6.768   5.250  0.4056 -0.2726 -0.1607
18348TIP3    H176459   4.562   6.712   5.188 -0.6775 -1.8228  0.4242
18348TIP3    H276460   4.497   6.712   5.325 -2.4577  0.3185 -0.3787
18349TIP3   OH276461   0.640   1.462   0.155  0.4065  0.5903  0.6447
18349TIP3    H176462   0.571   1.450   0.090  0.7195  0.1949  0.3833
18349TIP3    H276463   0.602   1.430   0.237  0.7504 -0.9373  0.2272
18350TIP3   OH276464   1.703   0.189  14.728  0.7137 -0.2771 -0.2860
18350TIP3    H176465   1.787   0.182  14.773  0.5719 -0.5987 -0.0683
18350TIP3    H276466   1.680   0.098  14.707  1.6204 -0.0035 -2.5610
18351TIP3   OH276467   5.148   2.165  12.751 -0.3295  0.3250 -0.2414
18351TIP3    H176468   5.065   2.124  12.774  0.1079 -0.2934  0.2545
18351TIP3    H276469   5.169   2.128  12.665  0.4151 -1.0702  0.5146
18352TIP3   OH276470   1.212   3.066   0.612  0.0291 -0.3112 -0.5631
18352TIP3    H176471   1.191   3.051   0.704 -0.1993 -0.0457 -0.5712
18352TIP3    H276472   1.302   3.034   0.602  0.8531  1.6837  0.2508
18353TIP3   OH276473   1.137   1.148  14.305 -0.1324 -0.3824 -0.7305
18353TIP3    H176474   1.227   1.147  14.272 -0.3024 -0.5490 -1.1939
18353TIP3    H276475   1.140   1.094  14.384  0.5324  1.0009  0.2074
18354TIP3   OH276476   1.723   0.414  15.362 -0.2132 -0.4917 -0.6577
18354TIP3    H176477   1.698   0.347  15.299 -1.5198 -1.1529  0.5262
18354TIP3    H276478   1.665   0.488  15.342 -0.0519 -0.3942 -0.7668
18355TIP3   OH276479   0.396   5.919   4.406 -0.3164  0.7325 -0.7031
18355TIP3    H176480   0.315   5.886   4.444 -0.4686  1.2846 -0.5487
18355TIP3    H276481   0.462   5.855   4.432 -0.5890  0.6158 -0.2950
18356TIP3   OH276482   5.441   5.606  13.255 -0.1092 -0.0719  0.3454
18356TIP3    H176483   5.513   5.555  13.292 -0.3653 -0.1510  0.7384
18356TIP3    H276484   5.467   5.623  13.164  0.8936  0.8074  0.7841
18357TIP3   OH276485   1.867   4.887   2.323  0.1066  0.2805 -0.5196
18357TIP3    H176486   1.850   4.980   2.310  1.1524  0.6234  0.4868
18357TIP3    H276487   1.847   4.870   2.415  0.2047 -0.4187 -0.6194
18358TIP3   OH276488   6.208   1.876   5.621  0.2303  0.1627 -0.0221
18358TIP3    H176489   6.124   1.920   5.636  0.1784  0.5121 -1.2845
18358TIP3    H276490   6.207   1.854   5.528  1.7473  0.6098 -0.1480
18359TIP3   OH276491   2.152   5.805   2.895  0.2914 -0.0501  0.0800
18359TIP3    H176492   2.064   5.772   2.915 -0.0970  1.2638  0.6360
18359TIP3    H276493   2.145   5.839   2.806  0.4826 -0.7716 -0.2103
18360TIP3   OH276494   1.811   1.359  17.234 -0.5323  0.4445  0.1787
18360TIP3    H176495   1.750   1.430  17.257  0.1550  1.5167 -1.2411
18360TIP3    H276496   1.782   1.329  17.148 -0.0540 -0.1663  0.2240
18361TIP3   OH276497   2.884   6.743   0.385 -0.2807  0.0449  0.4286
18361TIP3    H176498   2.828   6.795   0.444 -1.4479 -0.1983 -0.4381
18361TIP3    H276499   2.848   6.760   0.298  2.8945  2.2916 -0.5165
18362TIP3   OH276500   6.376   0.771  16.838 -0.2652  0.1483 -0.3843
18362TIP3    H176501   6.362   0.860  16.806 -0.3479  0.1374 -0.3795
18362TIP3    H276502   6.288   0.733  16.843 -0.6465  1.3800  3.4620
18363TIP3   OH276503   2.300   0.790   0.540  0.3701  0.6542  0.4384
18363TIP3    H176504   2.387   0.816   0.572 -0.1869  1.8973  0.9397
18363TIP3    H276505   2.313   0.700   0.510  1.7878  0.7471  0.7075
18364TIP3   OH276506   2.343   3.440   3.417  0.3405  0.6350 -0.1358
18364TIP3    H176507   2.407   3.380   3.380  1.2431  1.2875  0.3684
18364TIP3    H276508   2.318   3.400   3.501 -1.0047 -0.3587 -0.9822
18365TIP3   OH276509   1.544   3.659  12.073 -0.3541  0.1848  0.0073
18365TIP3    H176510   1.638   3.649  12.082 -0.1313  0.2657 -2.0400
18365TIP3    H276511   1.514   3.573  12.042 -1.1459 -0.2578  1.9108
18366TIP3   OH276512   5.757   3.680  12.543 -0.1413 -0.0923  0.1531
18366TIP3    H176513   5.838   3.677  12.594  0.5116 -0.2876 -0.8816
18366TIP3    H276514   5.755   3.597  12.496  0.2180  0.8671 -1.5833
18367TIP3   OH276515   2.167   2.862   4.529  0.2905 -0.3096  0.2596
18367TIP3    H176516   2.109   2.923   4.484 -1.4151 -1.4821  0.7770
18367TIP3    H276517   2.235   2.917   4.568  0.2941  0.9690 -1.4932
18368TIP3   OH276518   0.269   5.443  16.097  0.3776  0.4491 -0.9535
18368TIP3    H176519   0.250   5.516  16.038  1.9561  0.8868 -0.9322
18368TIP3    H276520   0.353   5.409  16.068  0.7919  0.1604  0.5339
18369TIP3   OH276521   2.165   4.940   3.366 -0.2760 -0.1798  0.5464
18369TIP3    H176522   2.201   5.027   3.381 -1.7379  0.6133 -0.4840
18369TIP3    H276523   2.203   4.886   3.436  1.1269  1.1255  0.8116
18370TIP3   OH276524   5.396   5.320  16.802  0.4850  0.4137  0.7353
18370TIP3    H176525   5.471   5.370  16.768  1.7314 -1.2550  0.9844
18370TIP3    H276526   5.382   5.251  16.737  1.5118 -1.4952  2.4951
18371TIP3   OH276527   5.314   0.010   2.150 -0.1347  0.3213  0.0171
18371TIP3    H176528   5.258   0.087   2.139 -2.3501 -1.0820  1.0358
18371TIP3    H276529   5.323   0.001   2.245  0.6985 -0.2529 -0.1162
18372TIP3   OH276530   2.982   3.268  15.906  0.0398 -0.3723  0.0791
18372TIP3    H176531   3.074   3.260  15.882 -0.3547 -0.4859 -1.4428
18372TIP3    H276532   2.938   3.297  15.826 -1.2195 -0.0912  0.8469
18373TIP3   OH276533   2.108   4.068  12.519 -0.2191  0.4464  0.3230
18373TIP3    H176534   2.109   3.991  12.576  0.2942 -0.1549 -0.4962
18373TIP3    H276535   2.039   4.051  12.456  0.8244  0.0310 -0.7158
18374TIP3   OH276536   2.856   5.969  12.147 -0.0538  0.8242 -0.0133
18374TIP3    H176537   2.776   5.928  12.113  0.5039 -0.2464 -0.0459
18374TIP3    H276538   2.903   5.998  12.069  0.3910 -0.0601 -0.0764
18375TIP3   OH276539   6.321   4.013   0.969  0.0142  0.3249 -0.2908
18375TIP3    H176540   6.239   4.058   0.947 -1.7780 -2.7576 -0.3041
18375TIP3    H276541   6.355   3.982   0.886  0.2881  0.1506 -0.1140
18376TIP3   OH276542   4.756   4.752   2.926  0.1331  0.0655  0.1202
18376TIP3    H176543   4.727   4.791   3.009 -0.7054 -1.5151  0.5952
18376TIP3    H276544   4.850   4.738   2.939 -0.1358 -0.9075  1.1271
18377TIP3   OH276545   4.628   5.482   4.088 -0.3466 -0.4675 -0.3504
18377TIP3    H176546   4.643   5.547   4.157 -0.3313  1.6208 -2.2398
18377TIP3    H276547   4.686   5.410   4.109  2.1601  1.5971 -0.0117
18378TIP3   OH276548   1.821   6.153  11.987 -0.2697  0.2553  0.1361
18378TIP3    H176549   1.781   6.191  11.909 -0.6481  0.7543  0.5616
18378TIP3    H276550   1.823   6.059  11.971  2.5661  0.6097 -1.8169
18379TIP3   OH276551   3.663   5.337  14.225  0.0962  0.2298  0.4593
18379TIP3    H176552   3.739   5.299  14.180 -0.4671 -0.8832  0.4238
18379TIP3    H276553   3.624   5.263  14.272 -2.1537  0.3362 -1.1614
18380TIP3   OH276554   1.792   5.865   6.165  0.0728  1.0402 -0.5379
18380TIP3    H176555   1.765   5.856   6.257  0.5269 -0.4251 -0.5259
18380TIP3    H276556   1.718   5.908   6.122 -1.0038 -0.1177  0.1121
18381TIP3   OH276557   6.416   1.906   5.791  0.6773 -0.1866 -0.2562
18381TIP3    H176558   6.370   1.882   5.710  1.2664 -1.1703 -0.3035
18381TIP3    H276559   6.362   1.975   5.829  0.1525 -0.0364 -1.2611
18382TIP3   OH276560   2.396   6.157   3.037  0.1691 -0.3824  1.1168
18382TIP3    H176561   2.393   6.141   2.943  0.6096 -0.9909  1.2024
18382TIP3    H276562   2.310   6.128   3.069  0.6853 -1.9013  1.1583
18383TIP3   OH276563   6.670   6.533  13.756 -0.1971 -0.2897 -0.1834
18383TIP3    H176564   6.760   6.563  13.767  0.0087 -1.6472  2.0511
18383TIP3    H276565   6.619   6.586  13.818 -1.0717  0.9446 -1.9121
18384TIP3   OH276566   0.844   5.600   6.470  0.4092 -0.2257  0.3069
18384TIP3    H176567   0.810   5.574   6.555  0.2422  0.8986  0.5932
18384TIP3    H276568   0.881   5.520   6.433  1.4531 -0.4854  1.8791
18385TIP3   OH276569   6.291   4.012  13.387 -0.2730 -0.4131  0.2735
18385TIP3    H176570   6.200   4.000  13.413 -0.6911 -1.2609 -1.4945
18385TIP3    H276571   6.294   3.982  13.296  1.5940  0.3832  0.0532
18386TIP3   OH276572   6.194   0.850  14.465  0.1276 -0.8720 -0.3138
18386TIP3    H176573   6.247   0.772  14.480  0.5564 -0.4048  0.6225
18386TIP3    H276574   6.105   0.817  14.455  0.1190 -1.3672  1.3007
18387TIP3   OH276575   3.835   2.267   2.357  0.1579 -0.0417  0.2135
18387TIP3    H176576   3.789   2.197   2.404  1.5341 -2.5980 -2.0824
18387TIP3    H276577   3.770   2.302   2.296  0.1350 -1.0395 -0.3522
18388TIP3   OH276578   0.913   5.381  13.771 -0.4105  0.0736 -0.0302
18388TIP3    H176579   0.988   5.379  13.711 -0.3365 -1.3733  0.0843
18388TIP3    H276580   0.922   5.464  13.817  1.5726 -0.3876  0.5097
18389TIP3   OH276581   2.473   3.798   1.424 -0.4213 -0.2589 -0.0566
18389TIP3    H176582   2.522   3.761   1.498  2.5551 -0.5122 -2.0764
18389TIP3    H276583   2.517   3.881   1.405 -1.4796  0.0423 -1.2235
18390TIP3   OH276584   3.266   2.102  11.182  0.3123 -0.3802  0.5930
18390TIP3    H176585   3.331   2.157  11.140 -0.0810 -1.8073 -1.9853
18390TIP3    H276586   3.257   2.138  11.270  3.9438  0.3332  0.7179
18391TIP3   OH276587   6.263   6.178   1.408  0.0992 -0.0379 -0.0106
18391TIP3    H176588   6.233   6.131   1.330  0.6893  0.1017 -0.3238
18391TIP3    H276589   6.245   6.270   1.389 -0.4069 -0.0608  0.3167
18392TIP3   OH276590   4.103   6.749   1.079 -0.1815 -0.5171 -0.2338
18392TIP3    H176591   4.025   6.805   1.071 -0.7655 -1.1283  1.0041
18392TIP3    H276592   4.175   6.805   1.052 -0.7863  0.7887  0.7766
18393TIP3   OH276593   5.994   1.950  14.451  0.1117  0.4446  0.4863
18393TIP3    H176594   5.985   1.910  14.365 -0.6589 -0.9313  1.1771
18393TIP3    H276595   6.087   1.942  14.473  0.1016 -0.2470  0.2715
18394TIP3   OH276596   2.193   3.805  11.788  0.1577  0.2151  0.1389
18394TIP3    H176597   2.156   3.893  11.775  0.1462 -0.0011 -1.4825
18394TIP3    H276598   2.191   3.766  11.701 -1.1474 -1.9395  1.1195
18395TIP3   OH276599   4.152   3.439   3.396  0.2327 -0.0670  0.2628
18395TIP3    H176600   4.156   3.463   3.489  2.2163 -1.9159  0.7020
18395TIP3    H276601   4.208   3.503   3.352  0.8329 -0.3329  0.6279
18396TIP3   OH276602   5.459   2.725   3.682  0.0588 -0.1372  0.4752
18396TIP3    H176603   5.508   2.751   3.760 -1.6008 -0.1919  1.5745
18396TIP3    H276604   5.472   2.797   3.620  1.4509 -0.1234  0.7660
18397TIP3   OH276605   1.909   2.162   5.448  0.2430 -0.4710 -0.0691
18397TIP3    H176606   1.874   2.231   5.391  1.0665 -0.2224 -0.2776
18397TIP3    H276607   1.878   2.081   5.408 -1.7321 -0.2135  0.8352
18398TIP3   OH276608   2.854   1.341  10.408  0.6651 -0.1172 -0.2189
18398TIP3    H176609   2.789   1.403  10.374 -0.1102 -1.3134 -0.9419
18398TIP3    H276610   2.891   1.385  10.485 -0.8753  0.6554  0.0942
18399TIP3   OH276611   2.649   5.852  13.623 -0.2209 -0.0792  0.1119
18399TIP3    H176612   2.558   5.860  13.652 -0.1960  0.6091  0.0105
18399TIP3    H276613   2.699   5.848  13.705 -0.2660  0.4962  0.1720
18400TIP3   OH276614   0.423   0.508  11.522  0.4641 -0.3878 -0.6244
18400TIP3    H176615   0.348   0.565  11.540  0.4068 -0.3034 -1.1277
18400TIP3    H276616   0.444   0.525  11.430  3.0850  1.9553  0.3553
18401TIP3   OH276617   0.219   1.924   0.669 -0.5091 -0.0192 -0.3716
18401TIP3    H176618   0.278   1.912   0.744 -1.3337 -0.2301  0.2530
18401TIP3    H276619   0.132   1.933   0.708 -0.7392  1.5631 -1.2128
18402TIP3   OH276620   1.473   3.819   1.024 -0.5001  0.0072  0.9640
18402TIP3    H176621   1.514   3.849   0.943 -0.2584 -0.1808  1.0166
18402TIP3    H276622   1.436   3.733   1.002 -1.1603  0.3272  0.8236
18403TIP3   OH276623   4.389   5.107  14.261 -0.0602 -0.3757 -0.3265
18403TIP3    H176624   4.298   5.091  14.237  0.2588 -0.7278 -1.3548
18403TIP3    H276625   4.429   5.142  14.182  0.6864 -0.1816  0.1290
18404TIP3   OH276626   5.974   5.946  17.210 -0.2358 -0.6872  0.0588
18404TIP3    H176627   5.979   5.866  17.262 -1.0272 -1.4560 -1.0415
18404TIP3    H276628   6.040   5.934  17.141 -1.2299 -0.9359 -0.8493
18405TIP3   OH276629   2.811   5.662  15.641  0.1330 -0.3052  0.0028
18405TIP3    H176630   2.874   5.656  15.569 -0.8784  1.0207 -1.0271
18405TIP3    H276631   2.841   5.597  15.705  3.2045  1.1154  0.0828
18406TIP3   OH276632   0.733   5.985  12.370  0.3069  0.0798 -0.2237
18406TIP3    H176633   0.737   5.890  12.356  1.4336  0.1615 -0.4566
18406TIP3    H276634   0.820   6.008  12.402 -0.7936  0.6293  2.4797
18407TIP3   OH276635   5.178   5.704  14.771  0.4380  0.1487  0.3960
18407TIP3    H176636   5.172   5.661  14.856 -0.8799  0.1167  0.2985
18407TIP3    H276637   5.208   5.793  14.791 -0.9062  0.4814  1.0177
18408TIP3   OH276638   3.654   6.088   1.949 -0.0392 -0.4102  0.9386
18408TIP3    H176639   3.646   6.124   2.038  0.6128  1.0402  0.4333
18408TIP3    H276640   3.584   6.133   1.900 -0.4972 -1.3222  0.7498
18409TIP3   OH276641   0.598   5.534   4.963  0.0858 -0.1734 -0.2695
18409TIP3    H176642   0.675   5.490   4.926 -0.9373 -0.4950 -2.1044
18409TIP3    H276643   0.604   5.624   4.931  0.3765  0.1346  0.6526
18410TIP3   OH276644   4.561   4.575   2.767 -0.1821  0.3721 -0.0723
18410TIP3    H176645   4.507   4.653   2.750  0.2771  0.2490 -2.2497
18410TIP3    H276646   4.634   4.608   2.820 -0.2531  1.3380 -0.5575
18411TIP3   OH276647   2.758   0.431  16.195  0.0762  0.2194 -0.1238
18411TIP3    H176648   2.730   0.350  16.237  0.1864 -0.1288 -0.7086
18411TIP3    H276649   2.785   0.404  16.107  0.1552  0.8824 -0.3075
18412TIP3   OH276650   0.777   6.241   0.738 -0.6775 -0.2117 -0.5337
18412TIP3    H176651   0.770   6.146   0.745  1.5786 -0.4222 -0.5929
18412TIP3    H276652   0.713   6.275   0.800  1.7082 -1.8280  3.0175
18413TIP3   OH276653   0.073   0.564   2.029  0.0506  0.0037  0.7291
18413TIP3    H176654   0.071   0.522   2.115 -1.8647 -0.9751  0.2314
18413TIP3    H276655  -0.016   0.597   2.016  0.4474  0.5452 -0.6852
18414TIP3   OH276656   1.288   3.910  15.637 -0.1337  0.0722  0.3441
18414TIP3    H176657   1.332   3.825  15.631 -0.8279 -0.2320 -0.4698
18414TIP3    H276658   1.347   3.971  15.592  0.9173  0.2464  1.9332
18415TIP3   OH276659   3.258   1.382   1.540  0.3092 -0.8677 -0.4530
18415TIP3    H176660   3.189   1.390   1.606 -0.4473 -3.3203 -0.8689
18415TIP3    H276661   3.257   1.466   1.495 -2.3696 -0.7893 -0.3755
18416TIP3   OH276662   2.222   0.774   3.335 -0.8921 -0.2318  0.6345
18416TIP3    H176663   2.276   0.699   3.360 -1.1696 -1.8735 -3.2160
18416TIP3    H276664   2.142   0.734   3.299 -2.5402  2.0315  1.7006
18417TIP3   OH276665   0.874   4.406   0.851 -0.3318 -0.7053 -0.2759
18417TIP3    H176666   0.825   4.323   0.851 -1.8584  0.1645 -2.0658
18417TIP3    H276667   0.929   4.400   0.773  1.1919 -0.9441  0.7997
18418TIP3   OH276668   5.877   5.726  11.503  0.3755 -0.3826  0.5184
18418TIP3    H176669   5.787   5.716  11.472  0.2974  1.0440  0.2958
18418TIP3    H276670   5.930   5.675  11.442 -0.3375 -1.7217  0.9977
18419TIP3   OH276671   4.540   4.095  13.104  0.3493 -0.2251 -0.2516
18419TIP3    H176672   4.575   4.014  13.142  1.4543 -1.1271 -3.0357
18419TIP3    H276673   4.452   4.103  13.142  0.5605 -2.2552  0.7606
18420TIP3   OH276674   6.213   6.718   1.343 -0.0062  0.1244  0.1612
18420TIP3    H176675   6.263   6.799   1.338  0.6559 -0.3641 -1.2298
18420TIP3    H276676   6.199   6.704   1.437  1.2083  1.0206  0.4858
18421TIP3   OH276677   0.776   5.026  14.387  0.3278 -1.1874 -0.0414
18421TIP3    H176678   0.784   4.966  14.461  1.1212 -1.5933 -0.4589
18421TIP3    H276679   0.856   5.014  14.337 -0.3521 -1.1535 -1.1517
18422TIP3   OH276680   1.002   4.653  14.740  0.5013  0.7520  0.3728
18422TIP3    H176681   0.922   4.627  14.787 -1.8645  1.2116 -3.2209
18422TIP3    H276682   1.004   4.597  14.663  3.8579  0.5838  0.5093
18423TIP3   OH276683   6.458   5.339  12.559 -0.0154  0.0370  0.3118
18423TIP3    H176684   6.426   5.267  12.613  0.8119 -0.1383  0.5735
18423TIP3    H276685   6.461   5.303  12.470 -2.3518  0.6342 -0.0443
18424TIP3   OH276686   1.576   6.273  15.249 -0.0353 -0.2226 -0.2037
18424TIP3    H176687   1.601   6.180  15.252  1.4367  0.1715 -0.1550
18424TIP3    H276688   1.659   6.320  15.248 -0.7839  1.1264  0.4699
18425TIP3   OH276689   3.518   0.881   5.457  0.1830  0.2729 -0.1748
18425TIP3    H176690   3.486   0.845   5.539  1.1096 -0.3285 -0.0606
18425TIP3    H276691   3.573   0.955   5.483 -3.0267  2.8858 -0.4844
18426TIP3   OH276692   3.636   5.008  12.447 -0.1312  0.2374 -0.4012
18426TIP3    H176693   3.549   4.971  12.465  0.1480  0.4904  1.5699
18426TIP3    H276694   3.632   5.097  12.481  0.5686  0.6200 -1.2894
18427TIP3   OH276695   2.550   5.045  14.615 -0.3340  0.6684  0.4277
18427TIP3    H176696   2.511   4.992  14.545 -0.0658 -0.2463  0.9573
18427TIP3    H276697   2.486   5.039  14.687 -0.8088  1.9496  0.1137
18428TIP3   OH276698   5.993   2.652  15.655  0.1261 -0.0990  0.6573
18428TIP3    H176699   6.065   2.618  15.602  1.4115  0.6580  1.8838
18428TIP3    H276700   5.960   2.728  15.606 -1.2409 -1.6932 -0.9404
18429TIP3   OH276701   5.153   4.159  14.059 -0.4480 -0.1365  0.2067
18429TIP3    H176702   5.218   4.108  14.010  0.1103  0.3766  0.4060
18429TIP3    H276703   5.071   4.111  14.047  0.0945 -1.1803  0.5190
18430TIP3   OH276704   5.996   4.724   3.818  0.0607  0.5072  0.0839
18430TIP3    H176705   5.972   4.763   3.902 -4.3084 -0.1354 -0.7751
18430TIP3    H276706   6.005   4.799   3.758  1.4304  0.8302  0.6671
18431TIP3   OH276707   0.760   5.078  13.508  0.0683 -0.1042 -0.3639
18431TIP3    H176708   0.730   5.160  13.547 -0.2033 -0.1726 -0.4284
18431TIP3    H276709   0.683   5.044  13.463  0.7677  0.7116 -2.2255
18432TIP3   OH276710   3.208   2.480  14.479 -0.1534  0.0412  0.5025
18432TIP3    H176711   3.178   2.426  14.406 -0.5596  0.0899  0.6321
18432TIP3    H276712   3.221   2.419  14.551 -1.5536  0.2499  0.9355
18433TIP3   OH276713   0.673   6.052  11.842  0.7792 -0.1182  0.4891
18433TIP3    H176714   0.617   6.129  11.847  0.6678 -0.1134 -0.8252
18433TIP3    H276715   0.762   6.087  11.838  0.8088 -0.0981  1.1793
18434TIP3   OH276716   3.266   3.016   0.889 -0.3051  0.3017  0.0634
18434TIP3    H176717   3.246   2.943   0.830  0.4072 -0.0095  0.1991
18434TIP3    H276718   3.219   2.996   0.969 -0.0568 -0.0517  0.1242
18435TIP3   OH276719   1.188   5.654  16.462  0.1427 -0.6643 -0.1663
18435TIP3    H176720   1.269   5.704  16.469 -0.6264  0.6020 -0.2461
18435TIP3    H276721   1.216   5.562  16.461  1.5307 -0.2457  0.2922
18436TIP3   OH276722   6.104   5.882   0.822  0.0955  0.1079 -0.4208
18436TIP3    H176723   6.088   5.788   0.823  0.6544  0.0080  0.2240
18436TIP3    H276724   6.034   5.919   0.875  0.5057 -0.0676  0.2594
18437TIP3   OH276725   0.400   1.596   3.134 -0.2210  0.0838 -0.4404
18437TIP3    H176726   0.449   1.584   3.215  1.5375  0.9370 -1.3549
18437TIP3    H276727   0.388   1.691   3.126  0.0771  0.0413 -1.4463
18438TIP3   OH276728   5.281   4.269   3.405  0.2146  0.8333 -0.0998
18438TIP3    H176729   5.363   4.229   3.374  1.3827  2.3507  0.9475
18438TIP3    H276730   5.218   4.197   3.407  1.5228 -0.3527 -0.9430
18439TIP3   OH276731   5.522   1.497  11.669 -1.0548 -0.0354  0.9619
18439TIP3    H176732   5.452   1.559  11.691 -0.3821  0.7909  0.8068
18439TIP3    H276733   5.573   1.541  11.601 -0.8755 -0.9866  0.4701
18440TIP3   OH276734   3.123   5.244  12.313  0.1644  0.8361  0.7342
18440TIP3    H176735   3.124   5.273  12.405 -1.4044 -0.1145  1.0675
18440TIP3    H276736   3.037   5.270  12.281  0.3684  0.3428 -0.2046
18441TIP3   OH276737   6.693   0.227  14.500  0.7620 -0.3850  0.0793
18441TIP3    H176738   6.616   0.239  14.555 -1.8833  1.2745 -3.7204
18441TIP3    H276739   6.686   0.136  14.468 -0.8384  0.3928 -1.8840
18442TIP3   OH276740   1.729   4.236  11.789 -0.1795  0.1492  0.2533
18442TIP3    H176741   1.638   4.260  11.804  0.2286  1.3938  0.8588
18442TIP3    H276742   1.767   4.313  11.746  0.4469 -0.5775 -0.5045
18443TIP3   OH276743   0.021   5.752   4.749 -0.2570 -0.2757 -0.3383
18443TIP3    H176744   0.091   5.726   4.809  0.0211 -1.7994 -1.2745
18443TIP3    H276745  -0.029   5.818   4.796  0.8954 -0.2997  0.9447
18444TIP3   OH276746   4.131   3.445  12.290  0.1035  0.3731  0.5837
18444TIP3    H176747   4.150   3.461  12.382 -0.0136  0.6487  0.5609
18444TIP3    H276748   4.187   3.371  12.266  0.8105  0.8833  0.6410
18445TIP3   OH276749   1.038   6.127   0.799 -0.2877  0.2948  0.3204
18445TIP3    H176750   1.063   6.053   0.744 -1.3966  1.1472 -1.3696
18445TIP3    H276751   0.985   6.183   0.742 -0.5518  1.7501  1.9410
18446TIP3   OH276752   2.494   6.081   1.482 -0.2924 -0.1456  0.0270
18446TIP3    H176753   2.478   6.068   1.388  2.0636 -2.7889 -0.0644
18446TIP3    H276754   2.525   5.996   1.513  0.6065  1.1645  2.8800
18447TIP3   OH276755   3.698   3.617   4.548 -0.7554 -0.7151 -0.9593
18447TIP3    H176756   3.680   3.710   4.534  1.0684 -0.3274 -0.9407
18447TIP3    H276757   3.659   3.597   4.633  1.9081  0.9704  0.7528
18448TIP3   OH276758   5.577   2.590  16.380  0.6543 -0.0467 -0.0172
18448TIP3    H176759   5.542   2.675  16.406  0.8729  0.0575 -0.0719
18448TIP3    H276760   5.525   2.527  16.430  2.0356  0.2089  1.7989
18449TIP3   OH276761   2.341   6.093   0.371  0.1443 -0.3254 -0.7020
18449TIP3    H176762   2.349   6.137   0.455 -0.7370 -0.0510 -0.7609
18449TIP3    H276763   2.414   6.126   0.319  0.8940 -0.7487  0.0610
18450TIP3   OH276764   2.748   5.031   0.642 -0.4348  0.0720  0.3069
18450TIP3    H176765   2.676   4.989   0.690  0.8821 -1.4962  0.9686
18450TIP3    H276766   2.821   5.029   0.703  0.8201 -0.4480 -1.1802
18451TIP3   OH276767   6.132   1.842   1.180 -0.1840  0.4098  0.1696
18451TIP3    H176768   6.121   1.878   1.268 -0.6672  0.4170  0.1097
18451TIP3    H276769   6.069   1.891   1.126 -0.6727 -0.3555  0.0376
18452TIP3   OH276770   3.140   4.806  14.344 -0.0497 -0.2428 -0.1624
18452TIP3    H176771   3.233   4.800  14.363 -0.1478  0.1381  0.4503
18452TIP3    H276772   3.115   4.894  14.374 -0.4689 -0.0934 -0.9170
18453TIP3   OH276773   4.101   4.537  13.969 -0.2923  0.6203 -0.5721
18453TIP3    H176774   4.144   4.452  13.964 -1.0359  0.2911 -1.6621
18453TIP3    H276775   4.074   4.545  14.060  0.2117 -0.1048 -0.3578
18454TIP3   OH276776   1.876   5.863  12.289  0.3711  0.4858 -0.2984
18454TIP3    H176777   1.942   5.803  12.323 -1.3553 -1.3658 -0.1647
18454TIP3    H276778   1.912   5.950  12.307  2.4129 -0.4805  0.4659
18455TIP3   OH276779   0.005   2.689  13.944  0.3409 -0.0461  0.9674
18455TIP3    H176780   0.033   2.608  13.987 -1.0332 -0.0463  1.8691
18455TIP3    H276781  -0.052   2.732  14.007 -0.0348  0.9691 -0.0440
18456TIP3   OH276782   3.517   4.249   1.902  0.2901  0.0466 -0.4375
18456TIP3    H176783   3.494   4.164   1.865 -0.0412 -0.6105  1.2136
18456TIP3    H276784   3.609   4.262   1.879  0.0502 -0.2745 -1.5808
18457TIP3   OH276785   0.000   1.526  12.398  0.6936 -0.5772  0.0211
18457TIP3    H176786  -0.003   1.564  12.310 -0.5381 -0.4175  0.1297
18457TIP3    H276787   0.035   1.437  12.384  2.8053  0.2722 -0.3233
18458TIP3   OH276788   2.391   5.818  14.930 -0.3782 -0.0730 -0.3638
18458TIP3    H176789   2.445   5.781  14.860  0.4350  0.0878  0.1809
18458TIP3    H276790   2.352   5.741  14.973 -0.7800 -0.1772 -0.8992
18459TIP3   OH276791   4.523   6.356   5.069  0.4575  0.1334 -0.0264
18459TIP3    H176792   4.545   6.281   5.014 -1.2739  0.5453 -1.3018
18459TIP3    H276793   4.531   6.323   5.159 -2.0990 -2.1322 -0.5832
18460TIP3   OH276794   0.443   1.358   1.841  0.1724 -0.1281  0.3035
18460TIP3    H176795   0.376   1.360   1.909  0.4140  0.2363  0.5372
18460TIP3    H276796   0.478   1.447   1.840 -0.8844  0.2920 -1.3526
18461TIP3   OH276797   3.766   5.999   3.938  0.6688 -0.3518 -0.5984
18461TIP3    H176798   3.796   6.049   4.014 -0.4172 -0.4121 -0.1294
18461TIP3    H276799   3.681   6.038   3.916 -0.2471 -2.0878 -0.1550
18462TIP3   OH276800   4.337   4.901  14.007 -0.1073 -0.9458 -0.1765
18462TIP3    H176801   4.306   4.863  13.925  1.1229 -0.9953 -0.6389
18462TIP3    H276802   4.423   4.861  14.020 -0.0286 -0.4626  0.8067
18463TIP3   OH276803   4.424   0.610  12.711 -0.1971 -0.4991  0.3113
18463TIP3    H176804   4.480   0.687  12.699 -1.1700  0.3604  1.2368
18463TIP3    H276805   4.425   0.567  12.626 -0.0012  0.7792 -0.3536
18464TIP3   OH276806   4.922   2.947   6.212 -0.1952 -0.0572  0.7522
18464TIP3    H176807   5.012   2.964   6.185  0.3775 -1.2811  1.8677
18464TIP3    H276808   4.877   3.031   6.197  1.3177  0.8238  1.0101
18465TIP3   OH276809   1.041   3.605  11.206 -0.0094 -0.3043 -0.7631
18465TIP3    H176810   0.999   3.529  11.167  0.0505 -0.4114 -0.6187
18465TIP3    H276811   0.980   3.635  11.272  0.1409 -0.4636 -0.5505
18466TIP3   OH276812   5.871   2.335  15.896  0.1085 -0.4422  0.2212
18466TIP3    H176813   5.894   2.302  15.983  0.5463 -0.6183  0.0396
18466TIP3    H276814   5.952   2.327  15.845 -0.2570 -0.7099 -0.3146
18467TIP3   OH276815   4.862   6.409  16.321 -0.5802  0.0464 -0.0716
18467TIP3    H176816   4.926   6.338  16.308  0.4011  1.0889 -1.1770
18467TIP3    H276817   4.788   6.384  16.266 -1.0666 -1.1116  1.1146
18468TIP3   OH276818   3.961   4.706  13.828 -0.4801  0.3650  0.8239
18468TIP3    H176819   3.996   4.626  13.868 -1.0555 -0.4605 -0.2782
18468TIP3    H276820   3.896   4.738  13.890  0.0042  0.1638  1.4321
18469TIP3   OH276821   0.098   2.291   5.780 -0.1718  0.3938 -0.0697
18469TIP3    H176822   0.096   2.201   5.811  2.2876  0.2214 -0.3097
18469TIP3    H276823   0.145   2.339   5.849  0.5775  1.0331 -1.0175
18470TIP3   OH276824   1.665   1.940   5.020 -0.2971 -0.3940  0.5296
18470TIP3    H176825   1.627   2.020   4.984 -1.0255 -1.6975 -1.6386
18470TIP3    H276826   1.726   1.910   4.953  0.8428 -1.0415  1.8327
18471TIP3   OH276827   1.647   2.738   5.679 -0.0731  0.3745  0.2458
18471TIP3    H176828   1.654   2.658   5.626  0.3025  0.4822  0.1302
18471TIP3    H276829   1.589   2.795   5.628  0.1394  0.4059  0.0328
18472TIP3   OH276830   1.385   2.869   2.683  0.5833 -0.4794 -0.0788
18472TIP3    H176831   1.416   2.781   2.705 -0.1407 -0.4315  1.1508
18472TIP3    H276832   1.356   2.906   2.766 -2.0081 -0.2189 -1.0395
18473TIP3   OH276833   4.688   4.837  16.329 -0.2594  0.6119 -0.6458
18473TIP3    H176834   4.653   4.758  16.286  1.8193 -0.2856 -0.7672
18473TIP3    H276835   4.611   4.891  16.346 -2.0560 -2.4956  1.6228
18474TIP3   OH276836   2.046   3.997   3.160  0.1802  0.8442  0.4842
18474TIP3    H176837   2.112   3.927   3.163 -1.0502 -0.4781 -1.9588
18474TIP3    H276838   1.982   3.971   3.226 -1.1254 -1.3068 -1.5290
18475TIP3   OH276839   3.954   6.538  15.073  0.5910 -0.5202 -0.1293
18475TIP3    H176840   3.994   6.543  14.986  0.8487  2.4804  0.1071
18475TIP3    H276841   3.860   6.549  15.057  0.7896  1.7339  0.0615
18476TIP3   OH276842   6.540   2.444   3.737 -0.1976 -0.0799  0.0964
18476TIP3    H176843   6.516   2.362   3.695  0.2184  1.3128 -3.0185
18476TIP3    H276844   6.458   2.477   3.774 -0.8822 -0.6774 -0.8699
18477TIP3   OH276845   3.927   2.344  12.548  0.3465  0.3964 -0.0956
18477TIP3    H176846   3.996   2.278  12.546 -1.1081 -1.1404 -0.7049
18477TIP3    H276847   3.883   2.331  12.632  0.0267  0.5662 -0.2358
18478TIP3   OH276848   2.574   4.681   3.963 -0.5495 -0.1409 -0.7697
18478TIP3    H176849   2.597   4.686   3.870  1.8481  0.8077 -0.1827
18478TIP3    H276850   2.631   4.746   4.005 -1.8338 -0.3111  1.3271
18479TIP3   OH276851   5.694   5.295   2.292 -0.3449  0.7953  0.3062
18479TIP3    H176852   5.722   5.365   2.233  0.0273 -0.1873 -0.6910
18479TIP3    H276853   5.754   5.301   2.367  0.5542  0.6989 -0.3910
18480TIP3   OH276854   4.736   1.076   3.105 -0.1712  0.2504  0.4999
18480TIP3    H176855   4.727   0.983   3.122 -0.1113 -0.5668 -3.4340
18480TIP3    H276856   4.645   1.109   3.104 -0.3430 -0.2402 -0.4207
18481TIP3   OH276857   1.173   2.177  12.202  0.4544 -0.3562 -0.2263
18481TIP3    H176858   1.150   2.084  12.191  2.9332 -0.9721 -0.4185
18481TIP3    H276859   1.160   2.194  12.295  0.3409 -0.9969 -0.1219
18482TIP3   OH276860   4.613   6.008  10.383  0.6075  0.7497  0.2927
18482TIP3    H176861   4.700   6.037  10.355  0.6912 -2.0942 -2.6317
18482TIP3    H276862   4.613   5.913  10.371 -3.2987  0.7971 -1.0709
18483TIP3   OH276863   4.044   5.183   1.761  0.2506  0.4478  0.3573
18483TIP3    H176864   3.978   5.168   1.828 -0.6730 -0.0554 -0.6559
18483TIP3    H276865   4.099   5.104   1.765 -0.3389  0.0148 -0.0930
18484TIP3   OH276866   1.374   6.171   1.001 -0.9109 -0.1370 -0.7019
18484TIP3    H176867   1.281   6.189   1.013 -0.8621 -1.2809  1.6447
18484TIP3    H276868   1.378   6.080   0.972 -0.4742 -0.4472  0.3014
18485TIP3   OH276869   5.800   0.524   6.359 -0.1015  0.0315 -0.6281
18485TIP3    H176870   5.856   0.519   6.436 -1.1651 -0.2453  0.1415
18485TIP3    H276871   5.809   0.439   6.316 -0.1070 -0.0888 -0.3875
18486TIP3   OH276872   2.353   2.288  11.363  0.5214  0.2090 -0.1856
18486TIP3    H176873   2.386   2.377  11.357  1.9529 -0.2686  0.5806
18486TIP3    H276874   2.268   2.297  11.406  1.1367  1.0915  0.8504
18487TIP3   OH276875   3.275   5.270  11.489  0.7681 -0.8151 -0.1660
18487TIP3    H176876   3.360   5.311  11.502  0.2925  0.3132 -0.5750
18487TIP3    H276877   3.213   5.327  11.535  0.2080 -1.5460  0.0063
18488TIP3   OH276878   2.984   5.130   4.739 -0.0115 -0.0750 -0.1148
18488TIP3    H176879   2.940   5.145   4.823 -0.6989 -4.3571  0.3931
18488TIP3    H276880   3.076   5.145   4.757 -0.3857  1.3091  0.7702
18489TIP3   OH276881   5.131   5.682   4.388  0.0014 -0.2675  0.0600
18489TIP3    H176882   5.098   5.662   4.300  0.0272 -3.0089  0.6319
18489TIP3    H276883   5.054   5.672   4.445  0.4874 -0.8173  0.6298
18490TIP3   OH276884   0.322   2.186   2.873  0.1197 -0.7048 -0.3804
18490TIP3    H176885   0.244   2.182   2.928  0.5348 -1.8054  0.1463
18490TIP3    H276886   0.295   2.152   2.788 -0.8103  2.0394 -1.2221
18491TIP3   OH276887   4.666   6.152  10.659  0.1322  0.0295  0.6541
18491TIP3    H176888   4.750   6.140  10.703  0.1274 -0.2076  0.6012
18491TIP3    H276889   4.676   6.104  10.576 -0.2570 -0.4799  0.9006
18492TIP3   OH276890   4.195   3.021   0.808  0.1389 -0.6478  0.3492
18492TIP3    H176891   4.179   2.929   0.790 -3.4668 -0.2717  1.2890
18492TIP3    H276892   4.167   3.034   0.898  1.0477  1.2736  0.3897
18493TIP3   OH276893   6.074   3.480  14.965  0.3423  0.0517 -0.0979
18493TIP3    H176894   6.050   3.570  14.940 -0.2087  0.1511  0.7708
18493TIP3    H276895   6.097   3.486  15.058 -1.7241 -1.0822  0.5190
18494TIP3   OH276896   0.154   6.505   2.803 -0.3090  0.2667 -0.6337
18494TIP3    H176897   0.078   6.513   2.745  0.5569  0.0794 -1.8185
18494TIP3    H276898   0.147   6.418   2.841 -0.4880  0.1177 -1.0133
18495TIP3   OH276899   4.375   0.086  11.335  0.0547 -0.5828  0.2689
18495TIP3    H176900   4.370   0.040  11.419  0.6916 -1.8325 -0.3540
18495TIP3    H276901   4.302   0.148  11.336 -1.5041 -2.3723  0.7012
18496TIP3   OH276902   5.213   3.213   4.853  0.4690  0.1102  0.3988
18496TIP3    H176903   5.275   3.178   4.789 -2.3113 -1.8322 -1.3643
18496TIP3    H276904   5.196   3.141   4.913  0.3548  0.8018  1.2149
18497TIP3   OH276905   3.335   1.997   6.110  0.4224  0.0414  0.4046
18497TIP3    H176906   3.280   1.921   6.091  1.5882 -0.1417 -2.4585
18497TIP3    H276907   3.312   2.021   6.200 -1.9447 -2.0075  0.4074
18498TIP3   OH276908   3.008   2.165   4.377 -0.1525 -0.5618  0.0238
18498TIP3    H176909   2.973   2.086   4.337  1.7481 -1.2412 -0.3223
18498TIP3    H276910   2.945   2.233   4.354 -0.7052 -1.5570 -1.4681
18499TIP3   OH276911   3.686   5.209   4.675  0.0636  0.3465 -0.2141
18499TIP3    H176912   3.748   5.185   4.607  1.2942  0.5973  0.8033
18499TIP3    H276913   3.733   5.194   4.757 -1.8059 -1.1599  0.6340
18500TIP3   OH276914   5.016   5.565   3.676 -0.0552  0.1722 -0.2087
18500TIP3    H176915   5.004   5.659   3.688  0.5431  0.3566 -0.9895
18500TIP3    H276916   5.086   5.542   3.737 -1.9114 -0.2530  1.8172
18501TIP3   OH276917   5.090   1.527   0.567 -0.3482  0.2926  0.2114
18501TIP3    H176918   5.014   1.585   0.571 -1.3603 -1.0018 -0.0906
18501TIP3    H276919   5.058   1.448   0.524  1.8055  0.7316 -2.3513
18502TIP3   OH276920   4.821   0.009  17.127 -0.2719  0.4772  1.1826
18502TIP3    H176921   4.758  -0.056  17.158 -0.3576 -0.7837 -1.4502
18502TIP3    H276922   4.906  -0.024  17.157 -0.5688  0.6052  2.1775
18503TIP3   OH276923   6.326   4.863   1.004 -0.1139  0.0995 -0.3067
18503TIP3    H176924   6.316   4.956   1.026  0.8917 -0.4293  2.7028
18503TIP3    H276925   6.352   4.862   0.912 -0.1952  2.7970 -0.3844
18504TIP3   OH276926   5.803   3.250  14.050  0.6269 -0.5574  0.0707
18504TIP3    H176927   5.730   3.305  14.022  0.6162 -0.3230  0.5701
18504TIP3    H276928   5.785   3.229  14.141  1.7120  0.3477  0.5026
18505TIP3   OH276929   2.856   2.987   2.577  0.2672 -0.1833 -0.4511
18505TIP3    H176930   2.927   3.029   2.530 -0.5891  0.3343 -1.3120
18505TIP3    H276931   2.826   3.052   2.640 -0.0524 -0.0608 -0.7283
18506TIP3   OH276932   3.260   2.192   0.272 -0.0231  0.1401 -0.6201
18506TIP3    H176933   3.329   2.259   0.270  0.0420  0.0637 -1.0496
18506TIP3    H276934   3.211   2.207   0.191 -0.5670  0.2514 -0.2704
18507TIP3   OH276935   4.833   3.741  15.136  0.2273  0.8807  0.1435
18507TIP3    H176936   4.839   3.832  15.163  0.3793  0.0385  3.1244
18507TIP3    H276937   4.743   3.732  15.102  0.2706  2.1469 -0.3408
18508TIP3   OH276938   3.311   5.614  17.201 -0.4261  0.1761 -0.0174
18508TIP3    H176939   3.308   5.519  17.208  1.2024  0.2145  1.4600
18508TIP3    H276940   3.402   5.634  17.178 -0.5856  1.4227  0.3971
18509TIP3   OH276941   5.129   3.495   0.561  0.4169 -0.2728  0.0446
18509TIP3    H176942   5.052   3.443   0.586 -0.2464  0.6756  0.0220
18509TIP3    H276943   5.171   3.445   0.492 -0.7232 -0.3593 -0.6128
18510TIP3   OH276944   3.326   5.847   3.131 -0.4080 -0.2197  0.8431
18510TIP3    H176945   3.245   5.879   3.171 -1.2686 -1.0748 -0.1843
18510TIP3    H276946   3.297   5.783   3.067  0.9859  0.6625 -0.7091
18511TIP3   OH276947   4.975   3.227  15.223 -0.2604  0.2133 -0.1890
18511TIP3    H176948   4.979   3.132  15.214  0.0464  0.0635  1.3285
18511TIP3    H276949   5.065   3.252  15.245 -0.8325  0.5502  1.8975
18512TIP3   OH276950   0.235   6.105  13.678  0.1181  0.5049 -0.4631
18512TIP3    H176951   0.269   6.155  13.752 -1.3472  1.5676 -0.4798
18512TIP3    H276952   0.197   6.026  13.717 -0.3174  0.8886 -0.1046
18513TIP3   OH276953   1.484   4.791  16.598  0.3312 -0.0550 -0.7152
18513TIP3    H176954   1.443   4.789  16.512 -0.9357 -2.3779 -0.1145
18513TIP3    H276955   1.498   4.884  16.616 -0.1929  0.5072 -3.0290
18514TIP3   OH276956   5.681   5.097   6.239  0.1034  0.9115 -0.5138
18514TIP3    H176957   5.616   5.167   6.229 -1.1138 -0.0272  0.6084
18514TIP3    H276958   5.633   5.017   6.218  0.8086  0.1633  0.6933
18515TIP3   OH276959   4.241   4.567   4.629 -0.3584 -0.2394  0.1264
18515TIP3    H176960   4.222   4.478   4.600 -0.2271  0.4864 -2.2921
18515TIP3    H276961   4.330   4.584   4.598 -1.1859  1.4918 -1.4692
18516TIP3   OH276962   0.540   6.336  15.856 -0.4164 -0.1055 -0.5468
18516TIP3    H176963   0.503   6.379  15.778  1.6292 -0.5050 -1.7710
18516TIP3    H276964   0.601   6.400  15.892 -0.0832 -0.5815 -0.2631
18517TIP3   OH276965   5.851   6.012  14.016  0.0040  0.0702 -0.3079
18517TIP3    H176966   5.829   5.981  13.928  0.1126  0.0116 -0.3150
18517TIP3    H276967   5.833   5.937  14.073 -0.0171  0.0911 -0.2867
18518TIP3   OH276968   1.462   1.871   3.635 -0.0276  0.0078 -0.2500
18518TIP3    H176969   1.471   1.879   3.540 -0.8800 -1.0299 -0.4126
18518TIP3    H276970   1.549   1.842   3.664  0.2650  0.4176 -0.6921
18519TIP3   OH276971   3.580   4.705  11.848  0.2753  0.0459 -0.9470
18519TIP3    H176972   3.520   4.737  11.780 -0.6115 -1.5078 -0.9268
18519TIP3    H276973   3.623   4.630  11.808  0.3645 -0.3598 -0.0899
18520TIP3   OH276974   4.204   1.117  12.571 -0.0737 -0.1282 -0.7849
18520TIP3    H176975   4.143   1.176  12.615 -2.0844 -3.0549  0.5246
18520TIP3    H276976   4.242   1.065  12.641  2.1315 -0.0183 -1.8521
18521TIP3   OH276977   0.219   5.317  12.294  0.1068 -0.2592  0.1877
18521TIP3    H176978   0.143   5.339  12.347  0.9736  0.5189  1.1277
18521TIP3    H276979   0.212   5.222  12.281  0.5824 -0.6979  2.8387
18522TIP3   OH276980   5.548   2.112   5.556  0.1794 -0.5678 -0.1366
18522TIP3    H176981   5.591   2.196   5.574 -0.3922 -0.0532 -1.0896
18522TIP3    H276982   5.481   2.105   5.624 -0.5631  0.3377 -0.7602
18523TIP3   OH276983   2.956   5.254   0.840 -0.1686 -0.6139  0.3730
18523TIP3    H176984   3.016   5.257   0.765 -1.2762 -1.4908 -0.5731
18523TIP3    H276985   2.955   5.161   0.865  0.5619 -0.2545  1.7973
18524TIP3   OH276986   6.767   2.751   4.244  0.4079 -0.6716  0.3142
18524TIP3    H176987   6.799   2.664   4.269  1.3244 -1.0590 -2.0162
18524TIP3    H276988   6.679   2.734   4.208  1.2627 -0.9231 -1.7400
18525TIP3   OH276989   0.382   4.155  11.720 -0.1082  0.2955 -0.0695
18525TIP3    H176990   0.433   4.141  11.640  0.6769  3.4566 -0.1861
18525TIP3    H276991   0.445   4.146  11.791  0.5239  3.4173 -0.1723
18526TIP3   OH276992   1.515   2.642   3.383 -0.1367 -0.4056 -0.3114
18526TIP3    H176993   1.560   2.698   3.319  0.2092  0.1865  0.4393
18526TIP3    H276994   1.455   2.589   3.330  0.3560 -0.1337 -1.1599
18527TIP3   OH276995   5.116   2.638  14.341 -0.6021  0.5730  0.3128
18527TIP3    H176996   5.033   2.633  14.389 -0.3907  1.7181  0.8270
18527TIP3    H276997   5.121   2.729  14.313  0.3442  0.4385  0.0425
18528TIP3   OH276998   2.430   4.084  14.326 -0.5856  0.5670 -0.1788
18528TIP3    H176999   2.393   4.032  14.397  0.7912 -2.4023 -1.5279
18528TIP3    H277000   2.355   4.101  14.268 -0.7058 -1.8393 -0.7990
18529TIP3   OH277001   1.426   0.078   1.170  0.0009 -0.3028  0.2683
18529TIP3    H177002   1.347   0.117   1.132  0.3858 -0.1551 -0.3911
18529TIP3    H277003   1.396   0.038   1.251 -0.7688 -0.3095 -0.0135
18530TIP3   OH277004   1.429   3.155  14.471  0.0744 -0.8459  0.2784
18530TIP3    H177005   1.491   3.223  14.445  0.5865 -1.5989 -0.5084
18530TIP3    H277006   1.475   3.105  14.539  1.1247 -2.5831 -1.6339
18531TIP3   OH277007   2.646   4.948   3.367 -0.2198 -0.0588 -0.5391
18531TIP3    H177008   2.611   4.996   3.442  0.1513  1.2083 -1.1496
18531TIP3    H277009   2.629   4.856   3.386 -1.5032  0.3653  0.3837
18532TIP3   OH277010   4.732   5.846  11.714 -0.1402  0.0085 -0.1075
18532TIP3    H177011   4.776   5.880  11.793 -0.7567 -1.9301  1.0971
18532TIP3    H277012   4.687   5.922  11.677 -0.2934  0.8283  1.7190
18533TIP3   OH277013   3.926   3.534  11.947  0.0731 -0.1754  0.3812
18533TIP3    H177014   3.992   3.473  11.914 -0.0841 -0.3796  0.4398
18533TIP3    H277015   3.855   3.477  11.977 -0.6567  0.0815 -0.8125
18534TIP3   OH277016   6.479   2.418   5.232 -0.1611 -0.1262 -0.6426
18534TIP3    H177017   6.478   2.349   5.165  0.2166  0.1561 -0.9486
18534TIP3    H277018   6.507   2.374   5.312 -1.2636 -0.6038 -0.5109
18535TIP3   OH277019   5.119   5.118  17.008 -0.1618 -0.4259 -0.2261
18535TIP3    H177020   5.196   5.137  17.062 -0.6069  0.7829 -0.0043
18535TIP3    H277021   5.155   5.078  16.928  0.6426 -0.4688  0.1560
18536TIP3   OH277022   3.614   1.000  13.736 -0.4550  0.0046 -0.1255
18536TIP3    H177023   3.525   1.034  13.749 -0.9848 -0.5724 -2.1271
18536TIP3    H277024   3.601   0.915  13.694  1.0184 -0.5572  0.5183
18537TIP3   OH277025   5.340   1.258   3.004  0.0023 -0.4246 -0.1337
18537TIP3    H177026   5.257   1.226   2.968 -0.7172 -0.4879  1.5355
18537TIP3    H277027   5.315   1.307   3.083  1.3587  1.5293 -0.8637
18538TIP3   OH277028   1.031   2.858   3.869  0.3295 -0.3076 -0.2480
18538TIP3    H177029   1.068   2.913   3.938 -0.3759 -0.6967  0.4454
18538TIP3    H277030   1.089   2.871   3.794 -1.2984  3.5335 -0.9955
18539TIP3   OH277031   5.669   1.718   1.911 -0.0226  0.6306  0.2011
18539TIP3    H177032   5.698   1.698   1.999  1.6327  0.7988 -0.2966
18539TIP3    H277033   5.633   1.635   1.878  2.9670 -0.5064 -0.3575
18540TIP3   OH277034   5.827   6.244  16.688  0.1004  0.0652  0.3616
18540TIP3    H177035   5.877   6.322  16.713 -0.0144  0.4652 -0.6323
18540TIP3    H277036   5.798   6.262  16.599 -0.8047 -0.6814  0.5002
18541TIP3   OH277037   4.798   4.015   1.184  0.5827 -0.1456 -0.5114
18541TIP3    H177038   4.769   3.932   1.146 -1.0037 -0.2087  0.7279
18541TIP3    H277039   4.716   4.061   1.204  1.4579  2.0772 -1.9320
18542TIP3   OH277040   3.471   4.005   3.044  0.0957 -0.5758 -0.0719
18542TIP3    H177041   3.551   4.045   3.078  1.4827 -2.5239 -0.9584
18542TIP3    H277042   3.489   3.911   3.045 -1.5081 -0.9346 -1.9714
18543TIP3   OH277043   4.079   5.225  12.297  0.3258 -0.3451 -0.5296
18543TIP3    H177044   4.136   5.301  12.285 -0.0891  0.1548  0.6091
18543TIP3    H277045   4.112   5.160  12.234  1.2893  0.4217 -0.8289
18544TIP3   OH277046   0.785   0.809  15.337  0.6575  0.0653  0.4155
18544TIP3    H177047   0.800   0.777  15.248  0.9157  0.8130  0.1898
18544TIP3    H277048   0.755   0.732  15.385  0.8931 -0.4297 -0.2230
18545TIP3   OH277049   5.774   3.946  13.615 -0.2250 -0.0115  0.3404
18545TIP3    H177050   5.798   3.926  13.705 -0.2228 -0.0760  0.3255
18545TIP3    H277051   5.796   4.038  13.604  1.8182 -0.5563 -0.2648
18546TIP3   OH277052   1.659   2.901   2.854 -0.6197  0.0257  0.0353
18546TIP3    H177053   1.744   2.944   2.863 -0.7022 -0.3073  3.1989
18546TIP3    H277054   1.598   2.971   2.834 -0.5759  1.3531  4.0481
18547TIP3   OH277055   2.687   0.030   5.939 -0.0243 -0.0983  0.7126
18547TIP3    H177056   2.763   0.040   5.996  1.5035 -1.9084 -0.9473
18547TIP3    H277057   2.614   0.016   5.999  1.3303 -0.6360  2.2648
18548TIP3   OH277058   1.269   2.030   1.145  0.1372  0.3535 -0.4942
18548TIP3    H177059   1.364   2.030   1.162  0.5181  0.3116 -2.5503
18548TIP3    H277060   1.255   2.107   1.090 -1.0464  0.4071 -0.1209
18549TIP3   OH277061   4.651   0.291   1.018 -0.2420 -0.2921  0.1637
18549TIP3    H177062   4.591   0.272   0.946 -0.2215 -1.6851  0.5042
18549TIP3    H277063   4.738   0.288   0.979 -0.1732 -1.9004  0.4009
18550TIP3   OH277064   2.717   0.884   6.093 -0.2879  0.1058 -0.4336
18550TIP3    H177065   2.749   0.928   6.171 -0.0297 -0.3136 -0.3041
18550TIP3    H277066   2.629   0.920   6.080 -1.4374 -1.8228  1.6332
18551TIP3   OH277067   3.009   2.799   1.906 -0.7364 -0.1985 -0.3940
18551TIP3    H177068   3.101   2.795   1.935 -1.0149  1.5132  0.8375
18551TIP3    H277069   3.005   2.739   1.832  1.3447 -0.4519 -0.3524
18552TIP3   OH277070   6.155   1.717  11.437 -0.3417  0.1372  0.3267
18552TIP3    H177071   6.120   1.628  11.433 -1.0652  0.4603 -1.4753
18552TIP3    H277072   6.212   1.724  11.361  2.1030  0.2819  2.1269
18553TIP3   OH277073   3.278   5.992  14.438 -0.5165  0.7518  0.3592
18553TIP3    H177074   3.355   5.949  14.401  0.5917  2.5060  0.5160
18553TIP3    H277075   3.275   5.962  14.529 -1.1129 -0.7560 -0.1529
18554TIP3   OH277076   1.162   5.755   3.933 -0.0523  0.0404 -0.2698
18554TIP3    H177077   1.145   5.721   3.845  1.1430 -3.6532  0.8678
18554TIP3    H277078   1.228   5.824   3.919 -0.8239  0.3863 -2.3862
18555TIP3   OH277079   0.337   1.581   2.844 -0.0341 -0.1584 -1.0059
18555TIP3    H177080   0.341   1.585   2.940 -1.8431  1.5969 -0.9569
18555TIP3    H277081   0.399   1.648   2.815 -0.3326  0.1146 -1.0221
18556TIP3   OH277082   0.513   3.838   5.370  0.2372 -0.2298  0.1398
18556TIP3    H177083   0.559   3.763   5.331  1.8485  1.3253 -1.0367
18556TIP3    H277084   0.427   3.804   5.393  0.9170 -2.4248 -0.4556
18557TIP3   OH277085   5.030   1.620   5.522  0.6761  0.7519  0.4765
18557TIP3    H177086   4.952   1.620   5.579  0.4069  1.5086  0.1078
18557TIP3    H277087   4.995   1.638   5.435  1.1975  0.4665  0.2093
18558TIP3   OH277088   3.405   2.908   5.283 -0.4131 -0.5807 -0.3743
18558TIP3    H177089   3.311   2.895   5.284 -0.8143  1.9232 -1.7892
18558TIP3    H277090   3.425   2.937   5.194  1.4306  0.5032  0.3563
18559TIP3   OH277091   3.152   2.416  12.053  0.2645  0.8162  0.0877
18559TIP3    H177092   3.176   2.508  12.042  0.8927  0.5281 -1.0336
18559TIP3    H277093   3.206   2.369  11.989 -0.7558 -0.2279 -0.0302
18560TIP3   OH277094   0.719   1.500  13.747  0.3766  0.2222  0.1088
18560TIP3    H177095   0.750   1.516  13.658 -1.8527 -1.2284 -0.9732
18560TIP3    H277096   0.790   1.449  13.788  1.3807  0.8436 -0.8220
18561TIP3   OH277097   6.171   5.871   1.879 -0.1308  0.1419 -0.1606
18561TIP3    H177098   6.086   5.888   1.920 -0.6314 -2.3826 -0.0466
18561TIP3    H277099   6.231   5.859   1.952  0.0335  0.5277 -0.2301
18562TIP3   OH277100   1.973   3.252  13.464  0.3954 -0.4523 -0.8566
18562TIP3    H177101   1.951   3.321  13.526 -1.1242 -1.2016 -0.5381
18562TIP3    H277102   2.020   3.297  13.394 -0.2216  0.8443 -0.4605
18563TIP3   OH277103   0.657   6.737   1.581  0.0094 -0.7327 -0.0826
18563TIP3    H177104   0.569   6.709   1.554 -0.5883  0.6762  0.3852
18563TIP3    H277105   0.708   6.738   1.500 -0.6568 -0.6317 -0.4986
18564TIP3   OH277106   6.623   3.561  15.160  0.3281 -0.2517 -0.1653
18564TIP3    H177107   6.668   3.481  15.188 -1.7944 -1.1529  0.7636
18564TIP3    H277108   6.621   3.617  15.238 -0.7240 -0.4932 -0.0102
18565TIP3   OH277109   1.587   5.931   4.921  0.3244  0.5135 -0.3818
18565TIP3    H177110   1.631   5.975   4.849  0.3291  0.6264 -0.3112
18565TIP3    H277111   1.636   5.957   4.999  0.3006  0.4174 -0.3338
18566TIP3   OH277112   6.378   4.850  10.561  0.5684 -0.6572 -0.2615
18566TIP3    H177113   6.336   4.871  10.645 -0.9611  0.4747 -1.2729
18566TIP3    H277114   6.306   4.816  10.507  1.3464 -0.4754 -1.4177
18567TIP3   OH277115   6.438   4.629  13.357 -0.0379  0.7672  0.1854
18567TIP3    H177116   6.497   4.561  13.391 -0.0862  1.8476  2.5218
18567TIP3    H277117   6.447   4.623  13.262  2.2399 -0.4846  0.4445
18568TIP3   OH277118   4.341   4.824   0.657 -0.1664  0.2558 -0.0711
18568TIP3    H177119   4.427   4.867   0.653  0.6050 -1.3416 -0.9244
18568TIP3    H277120   4.336   4.789   0.746  0.2992 -0.1190 -0.1924
18569TIP3   OH277121   2.022   4.505   2.936  0.1403 -0.0628 -0.0894
18569TIP3    H177122   2.086   4.521   2.867 -1.5337 -2.0875 -2.1804
18569TIP3    H277123   1.987   4.418   2.917 -2.0936  0.3401  1.9254
18570TIP3   OH277124   3.732   5.846   4.869 -0.9759 -0.1066 -0.2570
18570TIP3    H177125   3.704   5.768   4.822 -0.1480  0.3002 -1.4473
18570TIP3    H277126   3.786   5.813   4.942 -0.0731 -0.6156 -1.1492
18571TIP3   OH277127   5.123   4.581  16.687  0.2085  0.0556 -0.2128
18571TIP3    H177128   5.032   4.556  16.697  0.9154 -2.8187 -0.4331
18571TIP3    H277129   5.164   4.560  16.771  0.6173  1.6671  0.0132
18572TIP3   OH277130   1.941   3.198   0.529  0.0843  0.4335 -0.5286
18572TIP3    H177131   1.947   3.281   0.482 -0.2671 -0.1400 -1.6063
18572TIP3    H277132   1.915   3.223   0.617  0.2283  1.4909 -0.7745
18573TIP3   OH277133   2.608   1.176   4.604  0.5964 -0.0182 -0.7575
18573TIP3    H177134   2.520   1.212   4.592  0.9131  0.5170 -1.4715
18573TIP3    H277135   2.644   1.169   4.516  2.0524  1.7414 -0.3454
18574TIP3   OH277136   3.771   0.449  14.137  0.0937 -0.0365  0.4422
18574TIP3    H177137   3.714   0.388  14.090  0.8401  0.9784 -1.8819
18574TIP3    H277138   3.857   0.408  14.135  0.5842  1.0171 -1.0614
18575TIP3   OH277139   0.615   3.457   2.049 -0.4635 -0.6215 -0.1633
18575TIP3    H177140   0.591   3.407   2.127  0.0331  0.4154  0.6730
18575TIP3    H277141   0.610   3.548   2.077 -0.2466 -0.2410 -1.3437
18576TIP3   OH277142   1.730   1.348   5.098  0.3221 -0.2325  0.3554
18576TIP3    H177143   1.694   1.280   5.156 -2.6556 -0.1699 -1.3248
18576TIP3    H277144   1.792   1.301   5.042 -0.5094 -1.2547  0.2748
18577TIP3   OH277145   4.860   2.859   6.892 -0.3678 -0.4511  0.0731
18577TIP3    H177146   4.786   2.901   6.849  0.5262  0.3814 -0.6720
18577TIP3    H277147   4.930   2.859   6.827  0.0823 -1.8424  0.5366
18578TIP3   OH277148   5.724   2.733  13.647  0.0100  0.3346  0.1057
18578TIP3    H177149   5.706   2.688  13.565  0.4421  0.4638 -0.0636
18578TIP3    H277150   5.819   2.747  13.646  0.2941 -1.3489  1.4785
18579TIP3   OH277151   1.933   2.195  11.801  0.0352 -0.2345 -0.3528
18579TIP3    H177152   1.888   2.278  11.821 -2.5904 -1.3101 -1.5606
18579TIP3    H277153   1.933   2.147  11.884  0.3841  0.4121  0.0296
18580TIP3   OH277154   3.635   0.925   1.300 -0.1576  0.0186 -1.1724
18580TIP3    H177155   3.675   0.923   1.387  1.3235 -2.1538 -1.8503
18580TIP3    H277156   3.595   1.011   1.294  0.3747  0.4905  1.3679
18581TIP3   OH277157   0.456   4.294  13.629 -0.5907 -0.2383 -0.2323
18581TIP3    H177158   0.527   4.236  13.601  0.0572  0.6619 -0.4782
18581TIP3    H277159   0.380   4.236  13.639 -0.4841 -0.8271 -2.4769
18582TIP3   OH277160   4.195   3.875  12.963  0.3804  0.8072  0.1918
18582TIP3    H177161   4.238   3.921  12.891  2.2244  0.6416  1.1518
18582TIP3    H277162   4.238   3.789  12.965  0.2516  0.7610  1.3720
18583TIP3   OH277163   5.905   4.505   4.723  0.0145 -0.0294  0.2220
18583TIP3    H177164   5.848   4.434   4.692  0.2045  0.9463 -2.4661
18583TIP3    H277165   5.972   4.514   4.655  2.2261  0.2297  2.3557
18584TIP3   OH277166   5.582   1.281  12.726  0.9835  0.0618  0.0442
18584TIP3    H177167   5.495   1.321  12.721  1.2286  0.5603 -0.2489
18584TIP3    H277168   5.609   1.295  12.816  0.3537 -0.9597  0.4033
18585TIP3   OH277169   3.174   1.620   0.185  0.2651  0.1177  0.3034
18585TIP3    H177170   3.230   1.696   0.202 -0.7709  1.2585 -1.2079
18585TIP3    H277171   3.106   1.626   0.252  2.3171 -1.7085  2.6318
18586TIP3   OH277172   3.562   4.053  15.247 -0.8860  0.3048  0.2634
18586TIP3    H177173   3.487   4.009  15.208 -0.3721  0.2714 -0.7016
18586TIP3    H277174   3.556   4.143  15.216 -0.8509  0.4486  0.6623
18587TIP3   OH277175   5.941   1.534   4.105 -0.5712 -0.1704 -0.4971
18587TIP3    H177176   5.974   1.567   4.022 -2.0838 -0.1212 -1.0963
18587TIP3    H277177   5.933   1.440   4.092  1.8160 -0.5581  0.5371
18588TIP3   OH277178   2.788   3.014  12.800  0.3159 -0.1623 -0.8062
18588TIP3    H177179   2.793   2.930  12.845 -0.0418 -0.6544 -1.6706
18588TIP3    H277180   2.779   2.991  12.707 -0.3178  0.8209 -0.9937
18589TIP3   OH277181   0.579   6.069  16.125 -0.1929  0.0089  0.3709
18589TIP3    H177182   0.670   6.074  16.096 -0.5857  1.4432 -0.6442
18589TIP3    H277183   0.584   6.021  16.208  1.0252 -3.4452 -1.5628
18590TIP3   OH277184   1.615   3.326  16.331 -0.3684  0.7164  0.3672
18590TIP3    H177185   1.710   3.323  16.316 -0.6310  1.2882 -1.4833
18590TIP3    H277186   1.593   3.418  16.326 -1.1025  0.5386  0.3360
18591TIP3   OH277187   3.716   0.396   5.000  0.0768  0.1031  0.3570
18591TIP3    H177188   3.773   0.469   5.024  1.4547 -0.0593 -2.2017
18591TIP3    H277189   3.641   0.437   4.958 -0.0043  0.1413  0.5400
18592TIP3   OH277190   0.900   0.416   4.879 -0.9487  0.4809 -0.5180
18592TIP3    H177191   0.920   0.485   4.943 -0.9267  1.5324 -1.6361
18592TIP3    H277192   0.893   0.336   4.931  0.4872  1.0759  0.6311
18593TIP3   OH277193   6.027   2.863  11.415 -0.2113  0.0364 -0.2986
18593TIP3    H177194   6.055   2.773  11.432  0.4763 -0.0669 -1.8609
18593TIP3    H277195   6.026   2.905  11.501  3.5231 -0.2961 -0.0086
18594TIP3   OH277196   2.080   3.596   4.327 -0.2096  0.4319 -0.1738
18594TIP3    H177197   2.101   3.503   4.331 -2.7534 -0.1036  2.8485
18594TIP3    H277198   2.052   3.610   4.237  0.4114 -1.6762 -0.7313
18595TIP3   OH277199   2.355   0.564   4.067 -0.0004  0.0876  0.0667
18595TIP3    H177200   2.364   0.612   3.984  1.7267 -0.0633  0.1496
18595TIP3    H277201   2.392   0.622   4.133  1.1109 -0.8831  0.3232
18596TIP3   OH277202   3.042   6.732   0.930  0.0643  0.2684  0.9829
18596TIP3    H177203   3.130   6.696   0.943 -0.3788 -0.6580  1.4359
18596TIP3    H277204   2.991   6.660   0.894 -0.8740  0.3944  2.0422
18597TIP3   OH277205   4.576   2.616   0.686  0.7429 -0.1971 -0.2888
18597TIP3    H177206   4.524   2.676   0.631  1.1838  0.0616 -0.4259
18597TIP3    H277207   4.657   2.664   0.702  1.0979 -0.7634 -0.4023
18598TIP3   OH277208   0.053   3.478   2.765 -0.5338 -0.0794  0.5576
18598TIP3    H177209   0.099   3.395   2.752  1.7864  1.4260 -1.1345
18598TIP3    H277210   0.043   3.515   2.677  0.0170  2.2409  1.4377
18599TIP3   OH277211   3.488   1.612   6.139 -0.5751  0.1459  0.2268
18599TIP3    H177212   3.547   1.660   6.196 -0.2937 -0.7966  0.7480
18599TIP3    H277213   3.404   1.611   6.186  0.3697 -3.0744  2.0398
18600TIP3   OH277214   5.760   3.973  11.940 -0.2516 -0.3206  0.1146
18600TIP3    H177215   5.694   3.991  11.873  0.0630  1.0480  0.1490
18600TIP3    H277216   5.842   3.962  11.891 -0.1415  0.0219  0.2200
18601TIP3   OH277217   4.117   6.141   5.974  0.1123 -0.0856  0.0027
18601TIP3    H177218   4.050   6.073   5.974 -0.2959  0.2355  3.6251
18601TIP3    H277219   4.068   6.223   5.986  0.8275  0.6004 -1.6141
18602TIP3   OH277220   5.185   2.797  15.186  0.6803  0.4669  0.5152
18602TIP3    H177221   5.223   2.882  15.167  2.0922  0.1733  1.9121
18602TIP3    H277222   5.258   2.746  15.223 -0.3795 -1.0180  0.5950
18603TIP3   OH277223   4.411   4.043  16.794 -1.0235  0.2372 -0.1068
18603TIP3    H177224   4.436   4.022  16.884 -0.4467  1.0210 -0.0851
18603TIP3    H277225   4.315   4.037  16.794 -0.9582 -1.0565  0.2363
18604TIP3   OH277226   0.953   3.897   3.144 -0.3926  0.1985  0.6021
18604TIP3    H177227   0.912   3.813   3.122 -1.8218  0.6027  1.7093
18604TIP3    H277228   1.001   3.879   3.226  1.8442 -0.3175 -0.7656
18605TIP3   OH277229   2.292   4.382  11.878 -0.0157 -0.0251 -0.5922
18605TIP3    H177230   2.228   4.428  11.931  1.2903  0.8765  0.2378
18605TIP3    H277231   2.250   4.299  11.855 -1.0120  0.0387  0.9334
18606TIP3   OH277232   6.753   3.778  11.737  0.3805  0.3990 -0.3487
18606TIP3    H177233   6.756   3.759  11.831 -2.3322 -0.0861 -0.3286
18606TIP3    H277234   6.838   3.818  11.718  1.4103 -0.5578  2.0757
18607TIP3   OH277235   3.708   2.035   5.339 -0.3116 -0.0278 -0.1571
18607TIP3    H177236   3.647   2.040   5.413  0.6333  0.0761  0.6187
18607TIP3    H277237   3.781   2.091   5.364 -0.3210  0.5940 -1.5019
18608TIP3   OH277238   3.638   3.051   0.773 -0.5642 -0.3833  0.2382
18608TIP3    H177239   3.592   3.132   0.754 -1.8349 -1.1084  0.1985
18608TIP3    H277240   3.730   3.077   0.782 -0.9721  1.0564  0.2857
18609TIP3   OH277241   6.176   3.413  14.084 -0.2431 -0.8191 -0.2130
18609TIP3    H177242   6.097   3.468  14.077  0.1273 -0.2691 -0.1165
18609TIP3    H277243   6.201   3.397  13.993  0.4961  0.4243 -0.2504
18610TIP3   OH277244   2.648   6.021  12.720 -0.0374 -0.3639  0.2297
18610TIP3    H177245   2.625   6.079  12.793 -0.8393  2.9049 -2.5350
18610TIP3    H277246   2.564   5.996  12.681  0.4791 -0.2776 -0.9578
18611TIP3   OH277247   6.655   2.039   3.653 -0.1944 -0.0941  0.2022
18611TIP3    H177248   6.601   2.099   3.602  1.4355  0.3848 -1.0220
18611TIP3    H277249   6.709   2.097   3.707  0.6149 -0.4909 -0.1732
18612TIP3   OH277250   2.606   5.819   1.445 -0.8757  0.3994 -0.6556
18612TIP3    H177251   2.576   5.746   1.390 -1.8685  1.1218 -1.0826
18612TIP3    H277252   2.680   5.783   1.494  0.2963 -0.1350 -2.7724
18613TIP3   OH277253   2.468   5.120  13.710  0.2750  0.1659  0.1523
18613TIP3    H177254   2.534   5.138  13.777  1.7454 -2.4741 -0.5428
18613TIP3    H277255   2.471   5.197  13.653  2.8730  0.0519  0.0534
18614TIP3   OH277256   6.478   3.265   5.839 -0.6859 -0.7164 -0.6001
18614TIP3    H177257   6.537   3.299   5.771  0.5240  0.3572  0.9473
18614TIP3    H277258   6.482   3.331   5.908 -1.3745 -2.1362  0.8020
18615TIP3   OH277259   5.333   6.300  12.147  0.4227 -0.1259 -0.4936
18615TIP3    H177260   5.400   6.291  12.216  0.1079 -0.1317 -0.1872
18615TIP3    H277261   5.290   6.214  12.145 -1.0188  0.5531  0.8090
18616TIP3   OH277262   1.889   4.095  10.169 -0.1901  0.2817 -0.0859
18616TIP3    H177263   1.922   4.033  10.235 -0.5185  0.9511  0.7071
18616TIP3    H277264   1.905   4.051  10.085  0.3207 -0.5329  0.4313
18617TIP3   OH277265   0.221   5.413  15.078 -0.8149 -0.0883 -0.0641
18617TIP3    H177266   0.234   5.500  15.116 -2.0980 -0.7842  2.0853
18617TIP3    H277267   0.247   5.422  14.986  1.7187  1.8395  0.7856
18618TIP3   OH277268   3.704   5.701  14.610 -0.0285 -0.4342 -0.0449
18618TIP3    H177269   3.689   5.667  14.698 -3.4890  0.6736 -0.1648
18618TIP3    H277270   3.756   5.633  14.567  1.3520 -1.1744  2.6801
18619TIP3   OH277271   0.904   6.389   1.175  0.1551  0.4805 -0.7954
18619TIP3    H177272   0.992   6.428   1.173  1.1490 -1.6457  0.2627
18619TIP3    H277273   0.916   6.302   1.137 -1.3537 -0.1244  0.0879
18620TIP3   OH277274   4.111   0.341  11.245 -0.1304  0.4166 -0.0956
18620TIP3    H177275   4.115   0.338  11.340 -0.1871  3.0781  0.0294
18620TIP3    H277276   4.018   0.326  11.224 -0.1627  0.0921  0.2848
18621TIP3   OH277277   3.215   1.576   2.035  0.6890  0.4004 -0.0346
18621TIP3    H177278   3.176   1.503   1.987  2.0719 -1.1836  1.1774
18621TIP3    H277279   3.162   1.652   2.011  0.2986 -0.6616 -2.6939
18622TIP3   OH277280   4.615   1.025  16.200 -0.5342 -0.0101  0.2829
18622TIP3    H177281   4.620   1.004  16.293 -0.1395 -0.6063  0.1343
18622TIP3    H277282   4.687   0.975  16.160  1.3698  2.7456  0.0892
18623TIP3   OH277283   1.333   6.543   4.457 -0.4433  0.3381  0.0306
18623TIP3    H177284   1.383   6.469   4.491 -1.9915 -1.1214 -0.7875
18623TIP3    H277285   1.344   6.537   4.362  0.5722  2.0033  0.0322
18624TIP3   OH277286   4.508   5.012   4.370 -0.1806  0.1898 -0.0388
18624TIP3    H177287   4.543   5.056   4.292 -2.0368  1.6659 -0.0835
18624TIP3    H277288   4.569   4.940   4.387 -0.4689 -0.9903 -3.6473
18625TIP3   OH277289   6.119   3.039   2.193  0.2908 -0.1567 -0.1676
18625TIP3    H177290   6.098   2.948   2.171 -1.5899  0.0499  0.7470
18625TIP3    H277291   6.141   3.036   2.287  1.5996  0.1175 -0.4506
18626TIP3   OH277292   1.925   1.677   2.575  0.3122 -0.2641 -0.1545
18626TIP3    H177293   1.963   1.684   2.662 -0.9475  0.2149  0.3635
18626TIP3    H277294   1.984   1.618   2.528  0.3629 -1.4664  1.3767
18627TIP3   OH277295   4.506   6.759  11.808 -0.1265  0.2743  0.2465
18627TIP3    H177296   4.566   6.687  11.827 -1.0979  0.0317  2.5153
18627TIP3    H277297   4.551   6.837  11.841  0.0807  0.4606 -0.4614
18628TIP3   OH277298   5.787   0.192   1.215  0.5756 -0.4185 -0.3110
18628TIP3    H177299   5.873   0.150   1.226  1.9770  2.5405  0.6617
18628TIP3    H277300   5.786   0.260   1.282 -2.4551 -0.2218 -0.5132
18629TIP3   OH277301   1.759   0.584   5.440 -0.3718 -0.1333  0.0735
18629TIP3    H177302   1.729   0.564   5.528 -0.3266 -1.5657 -0.2233
18629TIP3    H277303   1.838   0.636   5.453 -0.1282 -0.6984  0.8862
18630TIP3   OH277304   6.586   5.805  15.293  0.0047 -0.1589 -0.1930
18630TIP3    H177305   6.515   5.790  15.230 -0.5695  0.8347  0.1912
18630TIP3    H277306   6.638   5.875  15.254 -0.0177  0.0580  0.1632
18631TIP3   OH277307   3.541   3.126  13.350  0.4657  0.1439  0.2520
18631TIP3    H177308   3.637   3.131  13.346  0.6351 -0.0353  2.7755
18631TIP3    H277309   3.523   3.113  13.443 -2.0520  0.8271 -0.1224
18632TIP3   OH277310   5.051   3.528   6.386 -0.2278  0.0983  0.0095
18632TIP3    H177311   5.070   3.450   6.333 -1.9436 -0.7643  0.6306
18632TIP3    H277312   4.960   3.516   6.414  0.2793  1.1036  2.1916
18633TIP3   OH277313   0.378   3.727   1.565  0.1638 -0.0765  0.2202
18633TIP3    H177314   0.302   3.668   1.568  0.2289 -0.3942 -2.5593
18633TIP3    H277315   0.344   3.812   1.592 -0.7616 -0.6306  0.8115
18634TIP3   OH277316   3.082   5.285   5.587 -0.7918 -0.4399 -0.1587
18634TIP3    H177317   3.051   5.366   5.549  0.5708 -0.5555 -1.5556
18634TIP3    H277318   3.118   5.236   5.514  0.4150 -1.3568  1.0197
18635TIP3   OH277319   2.521   0.953   5.802  0.3623 -0.2686  0.0939
18635TIP3    H177320   2.545   0.920   5.715 -2.6641  1.1076 -1.3298
18635TIP3    H277321   2.576   1.030   5.815  1.9262 -1.3718  0.0750
18636TIP3   OH277322   5.442   6.472   1.803  0.7281 -0.5570  0.0762
18636TIP3    H177323   5.478   6.541   1.858 -0.5683  0.6238 -0.5208
18636TIP3    H277324   5.375   6.431   1.858 -0.9855  1.0142 -0.7853
18637TIP3   OH277325   4.955   6.117  14.199  0.9180 -0.3563 -0.3066
18637TIP3    H177326   4.952   6.022  14.187 -0.1684 -0.7821  2.8916
18637TIP3    H277327   4.869   6.140  14.234  2.3868  1.2296  2.4567
18638TIP3   OH277328   1.107   3.658  14.697  0.0981  0.1378  0.4062
18638TIP3    H177329   1.179   3.713  14.669  0.4116  0.0630  1.0671
18638TIP3    H277330   1.052   3.715  14.752 -0.5049  0.2795 -0.3322
18639TIP3   OH277331   3.719   6.159  13.917 -0.5269  0.2289  1.0210
18639TIP3    H177332   3.660   6.157  13.992  0.6260  0.2653  1.9452
18639TIP3    H277333   3.723   6.251  13.892 -1.4695  0.1198  0.4643
18640TIP3   OH277334   4.191   3.208   2.380 -0.3665  0.0171  0.2571
18640TIP3    H177335   4.187   3.214   2.284 -1.0925 -0.0836  0.2751
18640TIP3    H277336   4.269   3.155   2.397 -0.2554 -0.0017 -0.2841
18641TIP3   OH277337   1.995   2.547   5.425  0.4148  0.5519  0.3873
18641TIP3    H177338   2.088   2.525   5.422  0.1307 -0.8048  1.2850
18641TIP3    H277339   1.988   2.630   5.378  2.0601  0.5924  0.2153
18642TIP3   OH277340   4.648   5.900  14.488  0.9386 -0.2283 -0.1617
18642TIP3    H177341   4.743   5.887  14.494  0.8942 -0.1326  0.6830
18642TIP3    H277342   4.625   5.949  14.567  0.2823  0.3160 -0.6778
18643TIP3   OH277343   4.248   0.696  17.220  0.1217 -0.0937 -0.4969
18643TIP3    H177344   4.208   0.621  17.265  0.2766  0.8926  1.3332
18643TIP3    H277345   4.199   0.703  17.138 -0.1276 -1.9799 -0.5379
18644TIP3   OH277346   5.629   6.128  12.623  0.4010  0.0583 -0.0039
18644TIP3    H177347   5.607   6.077  12.701  1.7834  0.5134  0.7086
18644TIP3    H277348   5.688   6.071  12.573  1.3118  0.6235  0.4050
18645TIP3   OH277349   4.458   6.668  14.898  0.1264  0.0103 -0.2475
18645TIP3    H177350   4.513   6.677  14.976 -1.0293 -0.7112  0.6598
18645TIP3    H277351   4.447   6.573  14.887 -1.2509  0.1620 -0.2121
18646TIP3   OH277352   2.343   3.750  12.782 -0.6294  0.4672  0.3888
18646TIP3    H177353   2.438   3.743  12.775 -0.8440 -2.3492 -0.2278
18646TIP3    H277354   2.311   3.712  12.700 -2.3162 -0.2696  1.3743
18647TIP3   OH277355   6.326   2.287  11.942 -0.4258  0.2258 -0.1679
18647TIP3    H177356   6.264   2.224  11.904  0.1555 -0.1516 -0.5046
18647TIP3    H277357   6.411   2.245  11.932 -0.1238  0.6942  0.3918
18648TIP3   OH277358   6.097   5.880  13.914 -0.1520 -0.0543 -0.4740
18648TIP3    H177359   6.040   5.941  13.960  0.0855 -0.6902  0.6656
18648TIP3    H277360   6.065   5.881  13.824 -1.0116  0.7218 -0.1651
18649TIP3   OH277361   1.905   0.828   1.112 -0.5430 -0.0709 -0.4098
18649TIP3    H177362   1.851   0.823   1.033 -0.9993 -2.2077  0.0029
18649TIP3    H277363   1.988   0.787   1.088 -0.0150  0.9270 -0.3090
18650TIP3   OH277364   0.922   0.615   5.061  0.3033 -0.1835  0.2745
18650TIP3    H177365   0.928   0.708   5.039  2.8224 -0.1993  0.8338
18650TIP3    H277366   0.943   0.611   5.154 -2.0025 -1.0849  0.7848
18651TIP3   OH277367   0.257   4.950   1.686 -0.4299 -0.6479 -0.7178
18651TIP3    H177368   0.197   4.941   1.612 -1.2718 -0.1112 -0.1067
18651TIP3    H277369   0.285   5.041   1.682  1.5957 -1.2845 -1.9387
18652TIP3   OH277370   1.421   3.105   3.731  0.9192  0.0638 -0.0019
18652TIP3    H177371   1.353   3.166   3.758  1.3316  0.4704  0.1223
18652TIP3    H277372   1.375   3.021   3.720  0.9039 -0.3662  2.9908
18653TIP3   OH277373   1.733   6.187   5.100 -0.5761 -0.3560 -0.2665
18653TIP3    H177374   1.710   6.107   5.147  0.0801 -1.9268 -2.5153
18653TIP3    H277375   1.826   6.199   5.117 -0.6952 -0.0456  0.1427
18654TIP3   OH277376   1.541   4.507   5.260  0.4860  0.0774  0.7779
18654TIP3    H177377   1.599   4.507   5.336  0.1714 -4.0400  1.1294
18654TIP3    H277378   1.598   4.485   5.186 -0.0418 -0.6036  0.5732
18655TIP3   OH277379   3.307   5.194  12.702 -0.2883  0.5022  0.2537
18655TIP3    H177380   3.276   5.271  12.654 -1.5515  1.3566  2.3741
18655TIP3    H277381   3.340   5.135  12.634 -2.2646  1.5403 -1.6761
18656TIP3   OH277382   4.664   4.272  12.959  0.3682  0.0842 -0.0344
18656TIP3    H177383   4.612   4.223  13.023 -0.6238  0.6603 -0.3853
18656TIP3    H277384   4.616   4.263  12.877  1.9613 -1.1552 -0.8425
18657TIP3   OH277385   2.404   0.540  15.042 -0.0642  0.1455  0.2109
18657TIP3    H177386   2.326   0.574  15.084  0.2762 -0.0705  1.0179
18657TIP3    H277387   2.372   0.488  14.968 -0.5894  2.4379 -1.2279
18658TIP3   OH277388   6.374   2.875  14.715 -0.0557 -0.5661  0.5096
18658TIP3    H177389   6.307   2.823  14.671 -1.5877 -1.3131  3.5459
18658TIP3    H277390   6.353   2.966  14.692 -0.7914 -0.9439 -0.3140
18659TIP3   OH277391   4.243   0.841   0.661 -0.5130 -0.4400  0.8203
18659TIP3    H177392   4.289   0.763   0.631 -0.2094  0.3976 -0.9671
18659TIP3    H277393   4.305   0.913   0.646 -1.6432  0.4411  0.2924
18660TIP3   OH277394   3.539   3.883   2.211 -0.2996  1.0493  0.1787
18660TIP3    H177395   3.624   3.899   2.252 -0.3976  1.0477  0.3806
18660TIP3    H277396   3.486   3.959   2.235 -0.0665  1.5037 -0.7131
18661TIP3   OH277397   2.570   2.238  14.039  0.3238 -0.2243 -0.2302
18661TIP3    H177398   2.537   2.327  14.039 -1.1927 -0.6635  3.7674
18661TIP3    H277399   2.497   2.186  14.004  0.9877  0.0141 -1.9965
18662TIP3   OH277400   3.234   2.725  12.068 -0.4057 -0.1442  0.2221
18662TIP3    H177401   3.211   2.814  12.096  0.5386 -0.0255  0.6544
18662TIP3    H277402   3.315   2.736  12.018 -0.0943 -0.7941  0.5673
18663TIP3   OH277403   4.851   0.118   3.582  0.0587  0.1260  0.6356
18663TIP3    H177404   4.879   0.081   3.498 -0.6874 -0.5583  0.6787
18663TIP3    H277405   4.907   0.194   3.595  0.9425 -0.4156  0.0539
18664TIP3   OH277406   6.522   6.363   6.018 -0.1565  0.1756 -0.3455
18664TIP3    H177407   6.546   6.277   5.985  1.1478 -0.1350  1.3218
18664TIP3    H277408   6.441   6.350   6.066 -0.4502  0.0548 -0.8751
18665TIP3   OH277409   0.423   1.483   6.613 -0.4976  0.0704  0.0422
18665TIP3    H177410   0.330   1.469   6.596 -0.2756  1.4137 -2.5290
18665TIP3    H277411   0.443   1.566   6.569  0.8203  2.3752  4.7378
18666TIP3   OH277412   0.419   2.154   5.620  0.7942  0.0950  0.4967
18666TIP3    H177413   0.431   2.237   5.665  1.1467 -0.3356  1.2057
18666TIP3    H277414   0.370   2.100   5.682 -1.8497  0.6682 -1.0033
18667TIP3   OH277415   3.198   1.021  11.116 -0.1145 -0.3759 -0.0500
18667TIP3    H177416   3.137   1.094  11.104  2.1096  1.7159  0.7773
18667TIP3    H277417   3.166   0.975  11.194 -2.0792 -0.8983 -1.1288
18668TIP3   OH277418   4.522   3.205  16.592 -0.5239 -0.5118  0.1009
18668TIP3    H177419   4.427   3.194  16.598 -0.2798 -2.0469  1.4549
18668TIP3    H277420   4.551   3.135  16.534 -0.0423 -0.9992  0.9285
18669TIP3   OH277421   2.590   4.221   1.639 -0.1333  0.1051 -0.3022
18669TIP3    H177422   2.570   4.315   1.641  1.1352  0.3554  1.1608
18669TIP3    H277423   2.668   4.215   1.584 -0.1624 -0.0824 -0.3215
18670TIP3   OH277424   5.042   1.224   5.720 -0.0896  0.7085  0.0419
18670TIP3    H177425   4.966   1.279   5.702 -1.5007 -0.5381  1.9946
18670TIP3    H277426   5.020   1.178   5.801  2.5085 -0.1096  0.3414
18671TIP3   OH277427   3.211   1.221  14.826  0.8911 -0.3320 -0.3103
18671TIP3    H177428   3.154   1.234  14.901  1.3311 -1.7407  0.2967
18671TIP3    H277429   3.173   1.146  14.780  0.5411  0.6049 -1.5952
18672TIP3   OH277430   6.644   3.644   3.845 -0.2746  0.0936 -0.3560
18672TIP3    H177431   6.552   3.644   3.873 -0.1736 -0.3069 -0.0346
18672TIP3    H277432   6.649   3.718   3.784 -0.4821  1.0085  0.7128
18673TIP3   OH277433   0.652   1.343   5.865  0.6650 -0.2515 -0.1130
18673TIP3    H177434   0.645   1.295   5.948  0.0577  0.0605  0.0200
18673TIP3    H277435   0.574   1.318   5.816 -0.7526  2.1801  0.8064
18674TIP3   OH277436   4.808   6.428   4.377 -0.0813  0.6247  0.3236
18674TIP3    H177437   4.859   6.347   4.379  2.8277  2.3859 -0.2785
18674TIP3    H277438   4.782   6.442   4.468  1.3681  0.2078  0.8221
18675TIP3   OH277439   4.213   3.076   6.663 -0.7049 -0.5260 -0.3186
18675TIP3    H177440   4.238   2.983   6.662 -1.0403 -0.6482  1.2590
18675TIP3    H277441   4.123   3.076   6.694 -0.6096  0.3369 -0.0404
18676TIP3   OH277442   4.651   3.334  15.779 -0.0331  0.3269 -0.3964
18676TIP3    H177443   4.711   3.262  15.800  0.1880  0.7568  0.4623
18676TIP3    H277444   4.631   3.374  15.864 -2.3747 -0.4882 -0.5071
18677TIP3   OH277445   2.109   0.528  14.304 -0.2540 -0.1515  0.3839
18677TIP3    H177446   2.187   0.503  14.353 -0.0715  0.3240  0.3354
18677TIP3    H277447   2.103   0.462  14.235  1.4035  1.1174 -1.0062
18678TIP3   OH277448   5.730   2.446  13.447 -0.2433 -0.0315 -0.0996
18678TIP3    H177449   5.806   2.417  13.396  0.2858  0.8082  0.2011
18678TIP3    H277450   5.694   2.365  13.484 -0.1398 -0.5555 -1.1212
18679TIP3   OH277451   4.406   6.367   2.746  0.0030  0.5395 -0.1011
18679TIP3    H177452   4.399   6.412   2.662  0.9980 -0.1870 -0.5843
18679TIP3    H277453   4.477   6.412   2.792 -0.4839  0.8811  0.3234
18680TIP3   OH277454   0.950   5.213  11.010 -0.1159  0.3535 -0.3614
18680TIP3    H177455   0.902   5.209  10.927 -0.9545 -0.2915  0.1450
18680TIP3    H277456   1.029   5.264  10.990  0.0900 -0.4951 -1.7478
18681TIP3   OH277457   1.309   5.638  12.500 -0.3098 -0.2060 -0.2967
18681TIP3    H177458   1.376   5.573  12.479 -0.8337 -1.3256  1.4177
18681TIP3    H277459   1.233   5.611  12.449  0.0585  0.1684 -1.0515
18682TIP3   OH277460   4.762   0.392  14.532 -0.3223 -0.5674 -0.3727
18682TIP3    H177461   4.843   0.353  14.500  1.5312  1.9735  0.9962
18682TIP3    H277462   4.697   0.369  14.467  1.4145 -2.9886 -1.3162
18683TIP3   OH277463   3.117   1.627  15.515 -0.1898 -0.0752  0.1266
18683TIP3    H177464   3.172   1.683  15.569 -0.0506 -0.1163  0.0273
18683TIP3    H277465   3.124   1.664  15.427 -0.9659  0.4159  0.2614
18684TIP3   OH277466   4.961   6.329   2.855  0.9240  0.5704 -0.0591
18684TIP3    H177467   4.885   6.278   2.882 -0.5132  2.2616 -0.7541
18684TIP3    H277468   4.927   6.390   2.789  2.6707  2.0385  0.3273
18685TIP3   OH277469   1.596   5.158  15.805 -0.0994 -0.1155  0.2137
18685TIP3    H177470   1.622   5.246  15.778  2.0796 -0.5611  0.7713
18685TIP3    H277471   1.571   5.168  15.897 -0.5947  0.0517  0.0646
18686TIP3   OH277472   1.585   0.000   0.867 -0.1304  0.3737  0.4120
18686TIP3    H177473   1.622   0.074   0.817 -0.8123  1.7590  1.9013
18686TIP3    H277474   1.490   0.013   0.861 -0.2934 -1.0526 -0.2645
18687TIP3   OH277475   4.306   5.554   5.412  0.0791 -0.3286  0.3820
18687TIP3    H177476   4.319   5.460   5.399  1.5390 -0.1410  0.3299
18687TIP3    H277477   4.308   5.590   5.323  0.4159 -0.1534  0.4581
18688TIP3   OH277478   1.531   3.599  15.363  0.5769  0.3898 -0.0643
18688TIP3    H177479   1.563   3.676  15.316 -0.8191 -0.8081 -3.1587
18688TIP3    H277480   1.438   3.595  15.341 -0.3220  0.2188  3.5695
18689TIP3   OH277481   5.312   2.263   2.614  1.0588 -0.1353  0.4007
18689TIP3    H177482   5.344   2.277   2.703  0.3770  1.6340  0.3874
18689TIP3    H277483   5.241   2.200   2.623  0.4747  0.6353  1.2156
18690TIP3   OH277484   1.642   1.160   0.819  0.4898 -0.4026  0.0490
18690TIP3    H177485   1.658   1.171   0.912 -0.6308 -0.9353  0.3125
18690TIP3    H277486   1.603   1.073   0.811  0.0958 -0.1523 -0.8520
18691TIP3   OH277487   0.791   3.117  11.649 -0.6905  0.4762  0.1146
18691TIP3    H177488   0.757   3.033  11.620  2.4997 -0.7684 -0.2458
18691TIP3    H277489   0.863   3.136  11.589  0.0843  2.3517  1.5741
18692TIP3   OH277490   2.746   3.662  15.661 -0.4929  0.0750 -0.2951
18692TIP3    H177491   2.724   3.572  15.639  0.6524 -0.2025 -0.3229
18692TIP3    H277492   2.772   3.660  15.753  0.2495  0.2516 -0.4996
18693TIP3   OH277493   5.490   4.450   5.175 -0.6195 -0.3754 -0.1880
18693TIP3    H177494   5.582   4.472   5.189 -0.6452 -0.3607 -0.0375
18693TIP3    H277495   5.487   4.355   5.181 -0.9585 -0.2398  1.8645
18694TIP3   OH277496   2.679   1.325   5.087  0.0867 -0.2089 -0.5995
18694TIP3    H177497   2.646   1.238   5.064  1.2716 -0.7793 -0.1630
18694TIP3    H277498   2.724   1.355   5.008  0.1094 -0.2086 -0.5864
18695TIP3   OH277499   6.029   4.820  11.224 -0.9144 -0.1199 -0.0408
18695TIP3    H177500   6.091   4.824  11.151 -1.3259 -1.2577 -0.4632
18695TIP3    H277501   5.968   4.892  11.208  0.5459  1.3158  0.6322
18696TIP3   OH277502   2.712   3.827   5.106  0.1446 -0.3871  0.6219
18696TIP3    H177503   2.617   3.830   5.120  0.2743 -0.2884  1.5049
18696TIP3    H277504   2.739   3.918   5.097  0.2346 -0.3785  0.9527
18697TIP3   OH277505   5.562   3.299   3.048  0.1028 -0.5134 -0.3107
18697TIP3    H177506   5.538   3.295   3.141 -0.2810 -2.6610 -0.4780
18697TIP3    H277507   5.487   3.339   3.005 -0.6816 -1.6288  0.0034
18698TIP3   OH277508   0.463   6.343  12.919  0.0044  0.8927 -0.1061
18698TIP3    H177509   0.466   6.365  12.825  0.0079  1.9652  0.1362
18698TIP3    H277510   0.388   6.284  12.927 -0.8988  1.9563 -0.5689
18699TIP3   OH277511   1.234   0.610  15.704 -0.0131 -0.3419 -0.3799
18699TIP3    H177512   1.299   0.680  15.709 -0.7308  0.3720 -0.8062
18699TIP3    H277513   1.217   0.586  15.795  0.3539 -0.0620 -0.2396
18700TIP3   OH277514   3.851   0.529   0.678 -0.1345 -0.2886  0.3967
18700TIP3    H177515   3.795   0.465   0.722  0.8067 -1.2924  0.1589
18700TIP3    H277516   3.845   0.607   0.733 -1.7168 -0.3884  0.4112
18701TIP3   OH277517   2.717   3.537  14.841  0.2803  0.2559 -0.2925
18701TIP3    H177518   2.678   3.499  14.920 -0.2955  1.2479 -0.0875
18701TIP3    H277519   2.646   3.538  14.777  0.5880 -0.0043 -0.6426
18702TIP3   OH277520   3.172   2.498  15.838 -0.0767 -0.0167 -0.2127
18702TIP3    H177521   3.141   2.414  15.807  0.3419 -0.1478 -0.2798
18702TIP3    H277522   3.260   2.506  15.803 -0.6808  1.1478 -1.5018
18703TIP3   OH277523   0.103   2.937  16.242  0.2557  0.4471 -0.3618
18703TIP3    H177524   0.044   2.862  16.231  0.9611  0.0382 -1.3537
18703TIP3    H277525   0.138   2.953  16.155 -0.9820  2.8509 -0.4611
18704TIP3   OH277526   4.228   3.660  12.128 -0.5963 -0.7812  0.0704
18704TIP3    H177527   4.146   3.614  12.149  0.5195 -2.7736  0.2522
18704TIP3    H277528   4.290   3.629  12.194  0.2066  1.0250  0.1813
18705TIP3   OH277529   2.274   4.805  16.839  0.6926 -0.0871 -0.7148
18705TIP3    H177530   2.330   4.775  16.910 -0.1433 -1.6295 -0.6906
18705TIP3    H277531   2.194   4.753  16.847 -0.5725  1.7413 -1.0283
18706TIP3   OH277532   3.036   1.004  13.840 -0.0961 -0.0917 -0.1753
18706TIP3    H177533   2.953   1.014  13.792 -0.8238  0.9812  1.2734
18706TIP3    H277534   3.018   1.042  13.926  1.5814 -0.8614  0.5197
18707TIP3   OH277535   6.002   0.640  14.794  0.1257  0.2234 -0.3158
18707TIP3    H177536   6.055   0.588  14.854 -0.0239  0.6668  0.2049
18707TIP3    H277537   5.981   0.720  14.843  1.1870  1.2312 -1.4438
18708TIP3   OH277538   4.280   1.117   5.507 -0.0510  0.6019  0.1139
18708TIP3    H177539   4.239   1.204   5.513 -1.5037  0.0732 -1.5651
18708TIP3    H277540   4.302   1.108   5.415 -1.6320 -1.5432 -0.0975
18709TIP3   OH277541   5.393   3.626   2.198 -0.6996 -0.1823  0.3296
18709TIP3    H177542   5.442   3.606   2.118  0.2134  0.5294  0.6994
18709TIP3    H277543   5.366   3.717   2.187  0.2434  0.2158  1.2436
18710TIP3   OH277544   2.025   4.501  11.554 -0.1914  0.6251  0.6073
18710TIP3    H177545   2.096   4.441  11.576  0.8071  1.9959  1.2114
18710TIP3    H277546   1.968   4.500  11.632 -1.2699 -1.0729 -0.1891
18711TIP3   OH277547   4.861   6.694  15.711  0.1289  0.0832 -0.0952
18711TIP3    H177548   4.952   6.707  15.739 -0.3942 -1.0691  2.3278
18711TIP3    H277549   4.817   6.774  15.737  0.4437  0.6578 -1.3028
18712TIP3   OH277550   3.026   5.425   4.980 -0.9943  0.4925 -0.0074
18712TIP3    H177551   3.106   5.477   4.987 -0.2262 -1.0516  3.7018
18712TIP3    H277552   2.986   5.428   5.067 -2.6541 -2.3893 -0.5649
18713TIP3   OH277553   5.832   2.870  15.505  0.2114  0.4214  0.1627
18713TIP3    H177554   5.864   2.952  15.469  0.7518  0.7702  1.4035
18713TIP3    H277555   5.737   2.876  15.497  0.2962  0.7495 -0.6263
18714TIP3   OH277556   4.241   4.021   2.526  0.1765  0.8145  0.2312
18714TIP3    H177557   4.290   4.100   2.505  0.9399  0.9219  2.3007
18714TIP3    H277558   4.206   4.038   2.614 -2.3254  0.1407 -0.5945
18715TIP3   OH277559   6.138   1.173  15.301 -0.3291  0.2201 -0.0061
18715TIP3    H177560   6.151   1.142  15.390 -0.7094 -1.3891 -0.5001
18715TIP3    H277561   6.169   1.264  15.303 -2.6620  1.0280  2.3776
18716TIP3   OH277562   4.770   6.457  15.226  0.4991  0.2517  0.0809
18716TIP3    H177563   4.850   6.494  15.189 -1.4755  2.2358 -2.4141
18716TIP3    H277564   4.748   6.383  15.168  0.4527 -0.2134  0.6846
18717TIP3   OH277565   0.859   3.838  13.596 -0.7580  0.5886 -0.1774
18717TIP3    H177566   0.831   3.884  13.517 -0.0625  0.3944 -0.5421
18717TIP3    H277567   0.790   3.854  13.659 -1.3354  0.7285 -0.8399
18718TIP3   OH277568   6.630   0.057  15.637  0.3908  0.0166 -0.2624
18718TIP3    H177569   6.668   0.108  15.708  1.8135 -2.5093  0.8741
18718TIP3    H277570   6.545   0.098  15.620 -0.9288 -0.5135  4.3414
18719TIP3   OH277571   5.265   2.639   0.709  0.0523 -0.0802 -0.2340
18719TIP3    H177572   5.334   2.583   0.674  0.2189 -0.6074  0.8955
18719TIP3    H277573   5.230   2.590   0.784  0.5978  1.5685  1.1475
18720TIP3   OH277574   0.864   0.575  13.842 -0.0598 -0.0530 -0.1897
18720TIP3    H177575   0.804   0.567  13.916  0.5447 -1.4210  0.1547
18720TIP3    H277576   0.929   0.639  13.871 -0.1758 -0.1216  0.2257
18721TIP3   OH277577   2.674   4.121   2.466 -0.2026 -0.2402  0.0804
18721TIP3    H177578   2.760   4.163   2.473  1.0867 -2.4475 -1.6906
18721TIP3    H277579   2.636   4.160   2.387 -2.0585  2.7360  2.3359
18722TIP3   OH277580   4.762   6.275  11.771 -0.3925  0.2428 -0.4571
18722TIP3    H177581   4.825   6.324  11.718 -1.5563  2.5923  0.2464
18722TIP3    H277582   4.682   6.274  11.717  0.0602 -2.2402 -1.1162
18723TIP3   OH277583   5.422   2.245   0.268 -0.0066 -0.1792 -0.2663
18723TIP3    H177584   5.458   2.276   0.185  0.6600 -0.3912 -0.0628
18723TIP3    H277585   5.370   2.168   0.244 -0.6245  0.3453 -0.6093
18724TIP3   OH277586   2.283   4.137  15.058 -0.4221 -0.0486 -0.1552
18724TIP3    H177587   2.319   4.059  15.015 -0.7390  1.0405 -2.4508
18724TIP3    H277588   2.318   4.210  15.009 -0.7433  1.2658  1.5116
18725TIP3   OH277589   3.144   4.781   3.378  0.0047  0.1029 -0.3021
18725TIP3    H177590   3.176   4.847   3.316 -1.2829 -1.4592 -2.6811
18725TIP3    H277591   3.059   4.754   3.344  0.0025 -1.9882  1.2426
18726TIP3   OH277592   0.135   3.203   4.503 -0.4348 -0.4276 -0.2498
18726TIP3    H177593   0.191   3.256   4.446  0.6413 -0.6509  0.5590
18726TIP3    H277594   0.137   3.116   4.464 -1.9831  0.0457 -1.4267
18727TIP3   OH277595   0.598   6.261   4.314  0.1500  0.5631 -0.0939
18727TIP3    H177596   0.690   6.265   4.341  0.4462  0.9233 -1.1658
18727TIP3    H277597   0.559   6.340   4.350  0.3782  0.6753 -0.0930
18728TIP3   OH277598   2.219   2.352  16.634  1.2893  0.1509  0.2559
18728TIP3    H177599   2.201   2.330  16.543 -0.4928 -1.1067  0.8718
18728TIP3    H277600   2.308   2.319  16.650  1.5670  0.2908 -0.9855
18729TIP3   OH277601   1.210   4.912   1.043  0.5040  0.1871  0.3289
18729TIP3    H177602   1.173   4.823   1.046  0.4759  0.1268 -1.3190
18729TIP3    H277603   1.305   4.898   1.040  0.5069  0.2196  0.2751
18730TIP3   OH277604   0.867   0.479  13.387  0.3587  0.6467  0.1984
18730TIP3    H177605   0.788   0.456  13.338 -0.3687  1.0741  1.1424
18730TIP3    H277606   0.914   0.540  13.330  0.7025 -0.6915 -0.9483
18731TIP3   OH277607   2.855   2.640   0.094 -0.1785  0.1957  0.0001
18731TIP3    H177608   2.805   2.606   0.020 -1.8467 -0.0837  1.2353
18731TIP3    H277609   2.921   2.573   0.112 -0.3278 -0.1322 -0.6643
18732TIP3   OH277610   3.227   2.770   0.747 -0.6011  0.5101 -0.7278
18732TIP3    H177611   3.176   2.711   0.802  0.6456 -0.6013 -0.7484
18732TIP3    H277612   3.317   2.737   0.753 -0.2039  1.2933 -2.2343
18733TIP3   OH277613   6.160   0.999  15.627 -0.6113  0.0872  0.3908
18733TIP3    H177614   6.094   1.062  15.657 -2.2622 -2.1561  1.7351
18733TIP3    H277615   6.242   1.029  15.666 -1.1196  2.0552 -0.0083
18734TIP3   OH277616   3.765   1.969   4.093  0.7135 -0.1977 -0.2224
18734TIP3    H177617   3.802   1.881   4.100  2.3505  0.5600  1.0157
18734TIP3    H277618   3.825   2.024   4.142 -0.9634  1.4264  0.0675
18735TIP3   OH277619   0.841   0.140   0.988  0.3091  1.3487  0.3881
18735TIP3    H177620   0.767   0.166   1.042 -0.2790  1.6647 -0.5472
18735TIP3    H277621   0.803   0.079   0.924  1.0711  0.6426  0.6152
18736TIP3   OH277622   2.904   5.723  14.028 -0.4161  0.2898  0.3686
18736TIP3    H177623   2.989   5.764  14.044 -0.6898  0.3013  1.9393
18736TIP3    H277624   2.920   5.660  13.958  0.8505  0.4006  0.5469
18737TIP3   OH277625   6.102   1.477   0.837 -0.1534 -0.1391  0.1275
18737TIP3    H177626   6.152   1.467   0.756 -0.1251 -0.8993  0.2286
18737TIP3    H277627   6.161   1.447   0.905 -0.4339 -0.2103  0.3420
18738TIP3   OH277628   0.573   2.002   2.025 -0.4864  0.2309  0.0809
18738TIP3    H177629   0.621   1.969   2.101 -0.1084 -0.0026 -0.2564
18738TIP3    H277630   0.641   2.029   1.963 -0.6996 -2.4488 -1.4366
18739TIP3   OH277631   3.712   5.771  14.321  0.2878  0.1960  0.3647
18739TIP3    H177632   3.705   5.814  14.406 -1.5661  1.4302 -0.3878
18739TIP3    H277633   3.765   5.831  14.268 -1.4312  1.0885 -0.3703
18740TIP3   OH277634   2.148   6.273   3.559  0.5177  0.2575  0.0603
18740TIP3    H177635   2.072   6.329   3.578 -0.8057 -1.1955 -0.8892
18740TIP3    H277636   2.131   6.193   3.609  1.2294 -0.2248 -0.4806
18741TIP3   OH277637   2.099   2.387  15.100 -0.2604  0.2569  0.1331
18741TIP3    H177638   2.192   2.390  15.076 -0.5631 -0.0214 -1.1321
18741TIP3    H277639   2.095   2.429  15.186  0.6593  2.8409 -1.0419
18742TIP3   OH277640   1.029   1.901  12.882  0.6072 -0.6694 -0.1503
18742TIP3    H177641   1.061   1.983  12.920  0.3288 -0.0096 -1.3155
18742TIP3    H277642   0.935   1.915  12.871  0.7764 -0.6253 -1.6077
18743TIP3   OH277643   5.611   1.540   0.467  0.0485  0.3880 -0.1896
18743TIP3    H177644   5.673   1.602   0.429  0.1465  0.1838 -0.3652
18743TIP3    H277645   5.534   1.545   0.410  0.4732 -0.4548 -0.8518
18744TIP3   OH277646   1.121   6.571   1.779 -0.2980  0.4310  0.2082
18744TIP3    H177647   1.075   6.517   1.716  1.5622 -1.6998  0.6030
18744TIP3    H277648   1.199   6.602   1.732  1.1696 -1.2779  1.4511
18745TIP3   OH277649   2.147   0.538   4.404 -0.6825  0.0068  0.0429
18745TIP3    H177650   2.100   0.470   4.357 -0.4239  0.3908 -0.7872
18745TIP3    H277651   2.188   0.493   4.477 -1.8038 -0.4394  0.3993
18746TIP3   OH277652   2.173   5.526   3.135  0.0575  0.6135  0.1469
18746TIP3    H177653   2.206   5.440   3.109 -0.1591  0.1888  1.2610
18746TIP3    H277654   2.147   5.567   3.052  0.0203 -0.4456 -0.3772
18747TIP3   OH277655   0.082   0.762  11.309 -0.0864  0.1035  0.2865
18747TIP3    H177656   0.109   0.785  11.398  0.7288  3.4556 -0.7379
18747TIP3    H277657  -0.012   0.775  11.308  0.1712  2.1872  0.1366
18748TIP3   OH277658   0.601   4.192   1.425 -0.8929 -0.1631  0.9397
18748TIP3    H177659   0.684   4.170   1.383 -1.4539  0.1219 -0.3272
18748TIP3    H277660   0.599   4.137   1.503 -0.3049 -1.4539  0.0699
18749TIP3   OH277661   1.923   6.649  16.404 -0.1313 -0.3696  0.0540
18749TIP3    H177662   2.007   6.695  16.408  0.2372 -1.1684  2.2841
18749TIP3    H277663   1.946   6.559  16.381 -0.1948 -0.9677  2.2356
18750TIP3   OH277664   4.704   6.684   5.649  0.0104  0.1918 -0.2502
18750TIP3    H177665   4.619   6.643   5.665 -0.2498 -0.1376 -2.4039
18750TIP3    H277666   4.720   6.735   5.728 -3.0976  1.8087 -0.5533
18751TIP3   OH277667   1.676   1.794  11.835 -0.0140 -0.2359 -0.0078
18751TIP3    H177668   1.744   1.733  11.865  0.5937  0.5185  0.1755
18751TIP3    H277669   1.614   1.740  11.788  0.1443 -1.1147  0.7810
18752TIP3   OH277670   3.115   6.698   3.257  0.0936  0.2790 -0.2221
18752TIP3    H177671   3.051   6.682   3.188  1.3357 -0.7042 -1.1499
18752TIP3    H277672   3.066   6.747   3.323 -1.2952  0.5951 -1.4586
18753TIP3   OH277673   3.272   4.282   6.679  0.0638 -0.1337 -0.0190
18753TIP3    H177674   3.351   4.242   6.642 -0.1283 -0.0156 -0.5636
18753TIP3    H277675   3.211   4.208   6.691  0.0692 -0.1515 -0.0971
18754TIP3   OH277676   0.101   6.364   6.089 -0.7701  0.0743 -0.4254
18754TIP3    H177677   0.058   6.408   6.163 -1.0185 -0.2733 -0.3618
18754TIP3    H277678   0.077   6.272   6.099 -0.2308 -0.0767 -0.5496
18755TIP3   OH277679   0.872   2.488   2.992  0.2453  0.5049  0.2281
18755TIP3    H177680   0.909   2.541   2.922 -1.2478  0.2159 -0.7821
18755TIP3    H277681   0.905   2.529   3.073  0.5445  1.8780 -0.5817
18756TIP3   OH277682   5.151   6.573  15.764  0.2439  0.2588  0.2997
18756TIP3    H177683   5.195   6.593  15.682 -0.0406 -0.5321 -0.0521
18756TIP3    H277684   5.093   6.499  15.743  0.6887 -0.4072  1.3661
18757TIP3   OH277685   4.807   5.386   3.676 -0.0065 -0.7159 -0.1312
18757TIP3    H177686   4.883   5.443   3.690 -0.3159 -0.1072 -0.8710
18757TIP3    H277687   4.839   5.315   3.622 -0.1094 -0.0968 -1.0241
18758TIP3   OH277688   2.010   5.189   2.166 -0.1337 -0.4146  0.4420
18758TIP3    H177689   1.934   5.154   2.213  1.6403 -4.3535  0.5751
18758TIP3    H277690   2.070   5.216   2.235 -0.9002  1.6610  0.3354
18759TIP3   OH277691   3.501   0.788  13.938  0.2156  0.2855  0.2323
18759TIP3    H177692   3.554   0.868  13.942 -0.0177  0.3454  2.2494
18759TIP3    H277693   3.564   0.717  13.938  0.3249  0.3870  1.3615
18760TIP3   OH277694   1.384   6.483   1.044 -0.1291  0.2898 -0.1064
18760TIP3    H177695   1.441   6.560   1.045  1.5507 -0.9385  1.4498
18760TIP3    H277696   1.343   6.485   0.957  1.2195  1.9765 -0.7421
18761TIP3   OH277697   1.791   0.019   4.460 -0.2043  0.5540 -0.2933
18761TIP3    H177698   1.742  -0.058   4.432 -2.0326  1.9499 -1.0575
18761TIP3    H277699   1.730   0.092   4.448  0.5001  1.7972  3.0466
18762TIP3   OH277700   3.187   1.110   1.532 -0.2487  0.0978  0.6455
18762TIP3    H177701   3.213   1.202   1.532 -0.3209  0.1237 -0.0118
18762TIP3    H277702   3.123   1.104   1.461 -1.7452 -0.0431  1.9860
18763TIP3   OH277703   4.004   2.234  12.954  0.4087 -0.9460  0.4935
18763TIP3    H177704   4.067   2.214  13.023 -0.1152 -0.1070  1.2170
18763TIP3    H277705   3.931   2.276  12.999 -0.3220 -1.1939 -0.4537
18764TIP3   OH277706   0.483   0.963  13.370  0.2502 -0.1166 -0.2065
18764TIP3    H177707   0.420   0.991  13.436  1.4254  0.1932  0.7993
18764TIP3    H277708   0.477   0.867  13.371  0.8169 -0.1480  0.9114
18765TIP3   OH277709   1.916   3.506   3.821  0.2657  0.0414  0.6989
18765TIP3    H177710   1.905   3.564   3.746  2.2504  1.0017  1.1470
18765TIP3    H277711   1.836   3.518   3.872  0.0491  1.3246  0.0745
18766TIP3   OH277712   3.584   3.032  16.965 -0.3051  0.5576  0.0667
18766TIP3    H177713   3.668   2.992  16.988 -1.0614 -0.6116  0.8470
18766TIP3    H277714   3.588   3.120  17.004 -0.6179 -0.5333  2.6572
18767TIP3   OH277715   2.182   0.050   2.504  0.1207  0.3358  0.1723
18767TIP3    H177716   2.209   0.070   2.593  1.9947 -0.6374 -0.1628
18767TIP3    H277717   2.166  -0.044   2.504  1.8179  0.0421 -0.9513
18768TIP3   OH277718   5.907   6.120   2.166  0.4005  0.2247 -0.1795
18768TIP3    H177719   5.914   6.151   2.076 -0.9980  0.6136 -0.1630
18768TIP3    H277720   5.899   6.025   2.158  2.2895  0.0515 -0.3441
18769TIP3   OH277721   6.611   2.270   4.974  0.5773  0.0076  0.0310
18769TIP3    H177722   6.590   2.241   4.885  1.6866 -0.1421 -0.1889
18769TIP3    H277723   6.589   2.195   5.030  1.5763 -0.5593 -0.3203
18770TIP3   OH277724   1.122   4.514   0.544 -0.1265  0.1178  0.6111
18770TIP3    H177725   1.073   4.440   0.579 -1.8273  0.6603 -0.5801
18770TIP3    H277726   1.062   4.558   0.485  0.9519  2.2728  1.0291
18771TIP3   OH277727   4.469   3.586   2.864 -0.0403  0.1571  0.1936
18771TIP3    H177728   4.396   3.586   2.925  0.6018 -0.6658  0.9807
18771TIP3    H277729   4.535   3.643   2.905 -0.0534  0.5210 -0.2835
18772TIP3   OH277730   1.975   3.231  11.938 -0.5245  0.1412  0.0579
18772TIP3    H177731   1.962   3.202  11.848  1.0482 -0.6678  0.0707
18772TIP3    H277732   1.912   3.180  11.989 -1.0016  0.1669 -0.4975
18773TIP3   OH277733   0.305   5.584  12.632 -0.3743  0.0300  0.4715
18773TIP3    H177734   0.290   5.520  12.702 -0.1810 -0.7125 -0.1495
18773TIP3    H277735   0.336   5.531  12.558  2.1848  1.1232  0.6937
18774TIP3   OH277736   3.988   5.116  12.537  0.1273  0.1912  0.3236
18774TIP3    H177737   3.999   5.192  12.595  1.9829  0.1865  0.0117
18774TIP3    H277738   4.007   5.151  12.450 -1.5035 -0.0661 -0.1326
18775TIP3   OH277739   4.239   6.288  11.960 -0.0074 -0.2606 -0.4654
18775TIP3    H177740   4.188   6.360  11.998  0.5936 -0.9297  1.7231
18775TIP3    H277741   4.293   6.329  11.892 -0.8548  1.0638 -0.3506
18776TIP3   OH277742   0.565   5.034   5.677  0.1877  0.1838  0.0925
18776TIP3    H177743   0.604   5.062   5.594  1.6864  0.0713  0.7353
18776TIP3    H277744   0.617   4.958   5.704 -1.8353 -1.3182 -0.0619
18777TIP3   OH277745   4.420   1.942   5.857  0.6281  0.0038  0.1894
18777TIP3    H177746   4.459   1.927   5.943 -0.3781 -0.1655  0.6174
18777TIP3    H277747   4.440   2.034   5.837  3.2924 -0.6900 -0.6594
18778TIP3   OH277748   2.763   4.573  11.925  1.0448  0.0216  0.2973
18778TIP3    H177749   2.689   4.513  11.926  0.6359  0.5345  0.8561
18778TIP3    H277750   2.775   4.595  11.832  1.4180 -1.1788  0.0381
18779TIP3   OH277751   0.091   4.208   4.713 -0.2444  0.2942  0.1165
18779TIP3    H177752   0.171   4.218   4.663 -0.6306  0.3730 -0.4941
18779TIP3    H277753   0.110   4.139   4.776  0.4078  0.5449  0.1948
18780TIP3   OH277754   3.584   1.820  13.273  0.1288 -0.4303  0.4766
18780TIP3    H177755   3.578   1.802  13.179 -1.5094 -1.1223  0.6911
18780TIP3    H277756   3.625   1.906  13.279 -1.0041  0.2243 -0.9310
18781TIP3   OH277757   1.076   0.235  14.542  0.0588 -0.5859 -0.2851
18781TIP3    H177758   1.169   0.213  14.536 -0.1598 -0.8135 -4.3945
18781TIP3    H277759   1.031   0.156  14.511 -1.2006  1.3851 -3.8112
18782TIP3   OH277760   5.112   4.713   3.780  0.5466 -0.1167  0.4723
18782TIP3    H177761   5.203   4.692   3.760  0.2195 -1.2483  0.0783
18782TIP3    H277762   5.116   4.775   3.852  1.7172  2.2835 -1.6029
18783TIP3   OH277763   2.838   0.996   5.854  0.4679  0.3159  0.0052
18783TIP3    H177764   2.837   1.091   5.867  1.1781  0.2086  0.9520
18783TIP3    H277765   2.765   0.964   5.908 -0.3915  0.3999 -1.0845
18784TIP3   OH277766   6.282   5.346  13.819 -0.3035  0.3243 -0.1642
18784TIP3    H177767   6.371   5.377  13.805 -0.1377  0.2434  0.6484
18784TIP3    H277768   6.281   5.319  13.911 -1.2937  0.7788 -0.0308
18785TIP3   OH277769   4.902   5.739  11.537 -0.4914  0.5670  0.1322
18785TIP3    H177770   4.861   5.791  11.606  0.5967  1.7489 -0.0930
18785TIP3    H277771   4.995   5.737  11.560 -0.5948 -1.6677  0.3711
18786TIP3   OH277772   1.802   4.416  13.077  0.4068 -0.5764  0.2796
18786TIP3    H177773   1.880   4.376  13.114  0.3981  0.8976  1.9456
18786TIP3    H277774   1.823   4.509  13.072 -0.3998 -0.4670 -1.4288
18787TIP3   OH277775   4.054   2.545   1.117  0.2285 -0.0482 -0.2615
18787TIP3    H177776   3.998   2.621   1.105  0.7181  0.1492 -1.4021
18787TIP3    H277777   4.002   2.484   1.168 -1.2590 -0.1231 -1.8283
18788TIP3   OH277778   4.397   4.854   1.358  0.0676  0.2750  0.0797
18788TIP3    H177779   4.386   4.934   1.307  1.0662 -0.2610 -1.0073
18788TIP3    H277780   4.492   4.848   1.374  0.0333 -0.7920 -0.0477
18789TIP3   OH277781   5.755   5.877   2.610 -0.1833  0.3323 -0.3287
18789TIP3    H177782   5.730   5.887   2.702 -0.0657  1.1740 -0.3844
18789TIP3    H277783   5.714   5.795   2.582  0.1844 -0.1842  0.6123
18790TIP3   OH277784   2.361   2.156  16.351  0.6013 -0.1851 -0.1300
18790TIP3    H177785   2.317   2.143  16.434  0.1390 -2.1346 -0.6467
18790TIP3    H277786   2.290   2.163  16.287  0.9558  1.0636 -0.3907
18791TIP3   OH277787   5.153   2.453  16.291  0.2809  0.3708  0.4979
18791TIP3    H177788   5.085   2.425  16.353 -1.3760 -2.1022 -2.2849
18791TIP3    H277789   5.104   2.491  16.218  2.0165  0.5328 -0.6035
18792TIP3   OH277790   6.043   5.051  14.394  0.5177 -0.2510  0.0116
18792TIP3    H177791   5.978   5.106  14.439  0.1965 -0.7300  0.1377
18792TIP3    H277792   6.008   4.962  14.402  2.0606 -0.7496  1.6548
18793TIP3   OH277793   1.381   4.303   6.205  0.5255 -0.2278  0.0799
18793TIP3    H177794   1.378   4.377   6.145  2.0044  0.8923  1.3472
18793TIP3    H277795   1.343   4.337   6.286  1.6536 -0.7084  0.8144
18794TIP3   OH277796   2.908   1.556   2.206 -0.0919 -0.0947  0.3803
18794TIP3    H177797   2.942   1.559   2.295  1.3449 -0.4987 -0.1456
18794TIP3    H277798   2.900   1.648   2.180  0.9468 -0.0097  0.3743
18795TIP3   OH277799   2.712   6.409  15.628  0.6941 -0.1043 -0.2018
18795TIP3    H177800   2.671   6.494  15.611  1.6137  1.0251  2.9062
18795TIP3    H277801   2.803   6.420  15.600  0.9101  0.0610  0.5627
18796TIP3   OH277802   0.303   1.161  15.604  0.2462  0.1187 -0.4407
18796TIP3    H177803   0.234   1.215  15.565  0.5994  0.1249 -1.0513
18796TIP3    H277804   0.260   1.078  15.624 -0.5575  0.9548  1.4224
18797TIP3   OH277805   2.198   5.143  11.972 -0.9803  0.3994  0.3475
18797TIP3    H177806   2.112   5.183  11.960 -0.6514  1.0213  0.0506
18797TIP3    H277807   2.207   5.084  11.897 -0.6302  1.2684 -0.3118
18798TIP3   OH277808   5.517   2.245  14.622 -0.0368 -0.2300  0.3626
18798TIP3    H177809   5.484   2.178  14.683  1.9356 -1.0394  0.5637
18798TIP3    H277810   5.550   2.195  14.548  0.5616  0.5762  0.0816
18799TIP3   OH277811   0.343   4.766  16.498  0.0899  0.5798 -0.4047
18799TIP3    H177812   0.363   4.735  16.410  1.0484  0.5920 -0.1973
18799TIP3    H277813   0.256   4.806  16.490  0.6671  1.6313 -1.6023
18800TIP3   OH277814   0.335   1.858   4.495  0.2815 -0.3457  0.2838
18800TIP3    H177815   0.305   1.807   4.569  1.5802 -0.2276  0.9085
18800TIP3    H277816   0.406   1.913   4.530  0.6551 -0.0160 -0.9422
18801TIP3   OH277817   4.077   1.703  11.540 -0.4148 -0.6596  0.1480
18801TIP3    H177818   4.017   1.645  11.492 -0.6918  0.5052 -0.9508
18801TIP3    H277819   4.078   1.669  11.629 -1.2919 -1.7894 -0.2639
18802TIP3   OH277820   0.020   4.324   4.977  0.6029  0.2368 -0.4536
18802TIP3    H177821   0.111   4.343   4.956  0.4419  1.2565 -0.2415
18802TIP3    H277822   0.025   4.258   5.047  1.1834  1.2367  0.4509
18803TIP3   OH277823   6.240   0.358  16.804 -0.1380 -0.0295  0.0010
18803TIP3    H177824   6.335   0.347  16.801  0.1047  2.2208 -1.4022
18803TIP3    H277825   6.205   0.269  16.797  1.8475 -0.7785 -0.6610
18804TIP3   OH277826   6.591   1.444   3.170  0.3286 -0.2993 -0.0733
18804TIP3    H177827   6.664   1.382   3.176  0.6460  0.0645 -0.1768
18804TIP3    H277828   6.579   1.475   3.260  0.9015  0.3348 -0.2176
18805TIP3   OH277829   4.694   1.582   6.473  0.6470  0.6207  0.0612
18805TIP3    H177830   4.783   1.613   6.490  1.6286 -1.4441 -1.2217
18805TIP3    H277831   4.686   1.584   6.377 -0.2593 -0.4081  0.1145
18806TIP3   OH277832   6.704   3.610   1.439 -0.1496  0.1255 -0.1608
18806TIP3    H177833   6.686   3.688   1.492 -1.1276  0.2619 -0.6826
18806TIP3    H277834   6.781   3.570   1.480 -0.1508  0.9097  0.6125
18807TIP3   OH277835   4.821   5.918   0.915 -0.2657 -0.0356 -0.4616
18807TIP3    H177836   4.880   5.881   0.850  0.7614  0.9151 -0.0776
18807TIP3    H277837   4.747   5.952   0.864 -0.7925 -1.7580 -0.8905
18808TIP3   OH277838   3.124   1.273  10.719  0.1226 -0.4639  0.2839
18808TIP3    H177839   3.198   1.334  10.715  0.6292 -1.0684  0.2418
18808TIP3    H277840   3.051   1.320  10.680  0.4094  0.2556  0.6050
18809TIP3   OH277841   3.582   2.739   2.124  0.6515  0.2448 -0.1320
18809TIP3    H177842   3.661   2.701   2.159  1.3362 -0.8111 -2.6839
18809TIP3    H277843   3.612   2.813   2.071 -0.1149  0.2032 -0.6409
18810TIP3   OH277844   1.887   6.195  14.092 -0.5714 -0.2833  0.1696
18810TIP3    H177845   1.869   6.280  14.131  1.8047 -0.0172  0.7965
18810TIP3    H277846   1.812   6.140  14.116 -2.0962  1.6034 -0.1993
18811TIP3   OH277847   2.868   4.846   3.610  0.0461 -0.2273 -0.1922
18811TIP3    H177848   2.876   4.909   3.681  0.2476 -1.7089  1.1450
18811TIP3    H277849   2.949   4.795   3.615  0.5573  0.3424 -2.1926
18812TIP3   OH277850   3.134   3.174   0.064 -0.1212  0.0969  0.7546
18812TIP3    H177851   3.075   3.248   0.051 -1.3008 -0.9532  0.0479
18812TIP3    H277852   3.130   3.156   0.158 -0.6372  0.2828  0.7691
18813TIP3   OH277853   4.036   2.583   4.248  0.2704 -0.7331  0.0239
18813TIP3    H177854   3.963   2.533   4.210  0.0955 -0.8500  0.5167
18813TIP3    H277855   4.100   2.516   4.272 -0.2142 -0.7732  1.2314
18814TIP3   OH277856   3.234   4.659  15.614 -0.1324  0.4225 -0.1569
18814TIP3    H177857   3.282   4.637  15.534  0.0331 -1.0175  0.3151
18814TIP3    H277858   3.145   4.629  15.598  0.3991 -1.9336  0.9934
18815TIP3   OH277859   6.128   0.654  11.059  0.3093  0.6132 -0.2930
18815TIP3    H177860   6.059   0.631  10.996 -0.1851  0.0296  0.4469
18815TIP3    H277861   6.103   0.741  11.090  0.1659  0.6052 -0.3815
18816TIP3   OH277862   5.832   1.610  11.550  0.0924 -0.2931  0.0627
18816TIP3    H177863   5.824   1.514  11.556  1.5336 -0.5973 -2.3097
18816TIP3    H277864   5.808   1.630  11.460 -2.0364  1.8418  1.0582
18817TIP3   OH277865   0.749   5.082  17.239 -0.0723 -0.4176 -0.1047
18817TIP3    H177866   0.823   5.059  17.183 -0.7036 -0.7673 -0.8102
18817TIP3    H277867   0.784   5.081  17.328  1.0487  0.5967 -0.5282
18818TIP3   OH277868   0.129   6.371  12.814  0.4346  1.0238 -0.0650
18818TIP3    H177869   0.146   6.281  12.843 -1.3947  0.4607 -0.6230
18818TIP3    H277870   0.117   6.421  12.895 -0.0508  0.4282  0.2375
18819TIP3   OH277871   5.627   1.089  13.725 -0.4623 -0.0019 -0.0356
18819TIP3    H177872   5.687   1.016  13.736  2.0715  2.1004  0.5319
18819TIP3    H277873   5.591   1.105  13.812  2.1124  1.9933  0.7105
18820TIP3   OH277874   0.146   6.413  11.856  0.1798 -0.0635 -0.7524
18820TIP3    H177875   0.189   6.426  11.940  0.2931 -1.9221 -0.4952
18820TIP3    H277876   0.217   6.406  11.793  0.0847  1.6759 -1.0700
18821TIP3   OH277877   0.610   4.192  11.383  0.2878  0.4604  0.3395
18821TIP3    H177878   0.555   4.215  11.308 -0.7463 -0.3743  0.8303
18821TIP3    H277879   0.609   4.270  11.438  0.5740  0.8695 -0.2235
18822TIP3   OH277880   1.498   0.940   0.989  0.2256 -0.2744  0.4163
18822TIP3    H177881   1.441   0.994   1.044 -0.4608  0.2153 -0.7572
18822TIP3    H277882   1.446   0.862   0.970  0.6813 -0.7100  0.9310
18823TIP3   OH277883   1.428   1.025   3.931 -0.0345  0.1120  0.0685
18823TIP3    H177884   1.514   1.041   3.890 -0.3592  0.6131 -0.4278
18823TIP3    H277885   1.369   1.009   3.858 -0.4313  0.0754  0.3957
18824TIP3   OH277886   5.490   6.581  11.519  0.2954  0.1784  0.1939
18824TIP3    H177887   5.394   6.587  11.522  0.2570 -0.9640  2.0045
18824TIP3    H277888   5.519   6.631  11.595  1.0557 -0.8319  0.5762
18825TIP3   OH277889   3.187   6.499  15.678  0.5310  0.2643  0.5079
18825TIP3    H177890   3.225   6.568  15.731  0.6446  0.4061  0.2398
18825TIP3    H277891   3.132   6.449  15.739  1.3601 -0.1199  0.9537
18826TIP3   OH277892   2.292   4.252  14.498 -0.1479  0.1423  0.4738
18826TIP3    H177893   2.381   4.238  14.465 -0.5069 -0.8334 -0.1197
18826TIP3    H277894   2.296   4.335  14.545  0.6041  1.0866 -1.2196
18827TIP3   OH277895   3.401   5.602   4.149  0.2117 -0.1213 -0.4241
18827TIP3    H177896   3.470   5.642   4.096  1.7790 -3.4163 -0.9929
18827TIP3    H277897   3.444   5.577   4.230 -0.6595 -0.8663 -0.1768
18828TIP3   OH277898   4.658   0.026   6.300 -0.1657 -0.2673  0.4594
18828TIP3    H177899   4.646  -0.038   6.229  1.6023  1.4306 -1.4677
18828TIP3    H277900   4.585   0.086   6.291  0.7357  0.6860 -0.8192
18829TIP3   OH277901   4.353   4.358   6.571  0.1570  0.0643 -0.1602
18829TIP3    H177902   4.260   4.358   6.593  0.1862 -0.5001 -0.0376
18829TIP3    H277903   4.369   4.271   6.535 -0.0446  1.1716 -3.0574
18830TIP3   OH277904   6.383   0.330  11.358  0.6102 -0.1005  0.6601
18830TIP3    H177905   6.457   0.316  11.299  1.8643 -1.1462  2.4116
18830TIP3    H277906   6.403   0.276  11.434 -1.5894  0.2259  1.5129
18831TIP3   OH277907   2.794   5.498   1.916  0.0004 -0.0133  0.5230
18831TIP3    H177908   2.707   5.467   1.942 -0.1705 -0.5206 -0.6377
18831TIP3    H277909   2.777   5.570   1.855  0.3786 -0.8829 -0.6261
18832TIP3   OH277910   1.951   1.268  14.298  0.3783  0.0860  0.0327
18832TIP3    H177911   1.975   1.355  14.329  1.4514 -0.4737  0.8213
18832TIP3    H277912   2.032   1.217  14.305 -0.7755 -1.5921  1.8349
18833TIP3   OH277913   4.963   0.682   5.266 -0.1461 -0.0439  0.5779
18833TIP3    H177914   5.014   0.715   5.340 -0.7822  2.0664  0.1009
18833TIP3    H277915   4.895   0.748   5.252 -1.7457 -1.8035 -0.1204
18834TIP3   OH277916   1.343   3.857  11.570 -0.0061  0.3263  0.5184
18834TIP3    H177917   1.250   3.857  11.548  0.2768  0.6153 -0.7310
18834TIP3    H277918   1.365   3.948  11.586 -0.3116  0.0752  2.5640
18835TIP3   OH277919   0.392   4.823   4.372  0.0024  0.1778 -0.4645
18835TIP3    H177920   0.309   4.805   4.416  0.6333 -3.7137 -0.7622
18835TIP3    H277921   0.456   4.830   4.443 -0.0027 -0.0607 -0.4385
18836TIP3   OH277922   5.339   5.198   3.400  0.0386  0.5052 -0.1530
18836TIP3    H177923   5.360   5.116   3.445  1.7967 -0.0652 -1.9278
18836TIP3    H277924   5.256   5.226   3.437  0.7605 -0.6618  2.4283
18837TIP3   OH277925   4.360   1.678  12.871 -0.5081 -0.6163 -0.2443
18837TIP3    H177926   4.270   1.696  12.843 -0.1517  1.0268 -0.3870
18837TIP3    H277927   4.415   1.714  12.801  0.2883 -0.4274  0.4638
18838TIP3   OH277928   2.946   4.542  16.199  0.2785  0.4016  0.3893
18838TIP3    H177929   3.011   4.558  16.130 -0.6403  1.6173 -0.2181
18838TIP3    H277930   2.888   4.617  16.194 -1.4807 -0.9316  0.5805
18839TIP3   OH277931   1.831   1.976   3.426  0.0543 -0.3750 -0.9115
18839TIP3    H177932   1.842   2.070   3.439 -0.7783 -0.5593  1.2589
18839TIP3    H277933   1.770   1.969   3.353 -0.3938  0.7673 -0.6583
18840TIP3   OH277934   6.725   6.296   0.172  0.1577 -0.0117  0.4171
18840TIP3    H177935   6.708   6.358   0.242  1.0836  0.8623 -0.1199
18840TIP3    H277936   6.686   6.335   0.095  1.3573  0.2530 -0.0673
18841TIP3   OH277937   3.693   1.710   2.810 -0.1178  0.5183 -0.3700
18841TIP3    H177938   3.655   1.697   2.724  0.4831  0.2322 -0.6005
18841TIP3    H277939   3.750   1.634   2.823  1.3689  1.5508 -0.5878
18842TIP3   OH277940   6.434   0.003   3.218 -0.3940 -0.4968  0.2175
18842TIP3    H177941   6.423  -0.056   3.293 -0.4752  1.6946  1.9675
18842TIP3    H277942   6.348   0.007   3.178  0.4832 -4.8284 -2.5124
18843TIP3   OH277943   2.346   0.231   1.184  0.0614 -0.0657  0.1628
18843TIP3    H177944   2.328   0.177   1.261  0.8588  1.0825  1.1791
18843TIP3    H277945   2.428   0.276   1.205  0.0551  0.6111 -1.1781
18844TIP3   OH277946   5.940   5.239   5.243 -0.2188 -0.6599 -0.4416
18844TIP3    H177947   5.866   5.278   5.198  0.1995 -0.7550 -1.2279
18844TIP3    H277948   5.922   5.253   5.336 -0.7761  0.1171 -0.6596
18845TIP3   OH277949   6.591   5.092  13.836 -0.1861 -0.2771  0.1390
18845TIP3    H177950   6.670   5.043  13.814  0.7194  0.5606  1.4582
18845TIP3    H277951   6.580   5.079  13.930 -1.7196 -0.5307 -0.0706
18846TIP3   OH277952   5.936   3.231  16.262  0.4352 -0.3410  0.7357
18846TIP3    H177953   5.920   3.243  16.169 -1.7379  0.9929  1.2591
18846TIP3    H277954   5.936   3.136  16.275  1.0695 -0.5375 -0.6519
18847TIP3   OH277955   1.775   3.012   2.316  0.1266  0.1671  0.6395
18847TIP3    H177956   1.860   3.054   2.327  0.3432 -0.4236  1.3083
18847TIP3    H277957   1.717   3.081   2.284  0.7800  0.6469  0.4841
18848TIP3   OH277958   0.468   5.163   4.612  1.0193 -0.3317  0.2307
18848TIP3    H177959   0.468   5.202   4.699  3.4441  0.6765 -0.1602
18848TIP3    H277960   0.548   5.110   4.610  0.9116 -0.4504 -1.3025
18849TIP3   OH277961   3.254   0.903  14.883 -0.2351  0.3477 -0.5906
18849TIP3    H177962   3.246   0.877  14.975  0.4345  1.2380 -0.2739
18849TIP3    H277963   3.171   0.878  14.844 -0.3451 -0.4664  0.1557
18850TIP3   OH277964   1.033   4.846  15.904 -0.0776  0.0645 -0.5201
18850TIP3    H177965   1.122   4.855  15.871  0.0203 -0.3585 -0.3695
18850TIP3    H277966   1.012   4.932  15.940  0.3552  0.0936 -0.3363
18851TIP3   OH277967   0.185   1.255  11.688 -0.8229  0.0886 -0.5086
18851TIP3    H177968   0.147   1.232  11.773  0.9576  0.3196  0.3667
18851TIP3    H277969   0.226   1.341  11.702  0.4832 -0.3908 -1.2636
18852TIP3   OH277970   2.285   3.287  13.668  0.5481  0.1011  0.1466
18852TIP3    H177971   2.228   3.226  13.714  0.8300  1.0468  1.8105
18852TIP3    H277972   2.364   3.292  13.723  1.5146  0.1161 -1.2312
18853TIP3   OH277973   4.943   6.764  15.077  0.3388  0.6103  0.5976
18853TIP3    H177974   4.976   6.680  15.111  2.1808  2.6271  4.1494
18853TIP3    H277975   5.003   6.785  15.005  1.7293  0.2513  1.6133
18854TIP3   OH277976   5.915   2.888  14.368 -0.3626  0.7619  0.3110
18854TIP3    H177977   5.915   2.798  14.400 -0.7496  0.5939 -0.1628
18854TIP3    H277978   5.854   2.934  14.427  0.7897  1.0079  1.3471
18855TIP3   OH277979   4.071   2.794   0.215  0.6438  0.5405 -0.6196
18855TIP3    H177980   4.049   2.886   0.232 -2.1222  0.0542 -1.3920
18855TIP3    H277981   4.088   2.758   0.302 -0.4507  1.2648 -0.0862
18856TIP3   OH277982   4.995   1.255   4.391 -0.1738  0.1394  0.2535
18856TIP3    H177983   4.958   1.224   4.474  0.5393  0.6118  0.7637
18856TIP3    H277984   5.070   1.308   4.418  0.3053 -0.0419 -0.7222
18857TIP3   OH277985   2.156   2.461  17.211 -0.4283 -0.4189  0.1227
18857TIP3    H177986   2.126   2.435  17.124 -0.4788 -2.1968  0.6519
18857TIP3    H277987   2.135   2.555  17.217 -2.8964 -0.8757 -0.7686
18858TIP3   OH277988   4.762   0.140   5.432  0.2003 -0.4341 -0.1199
18858TIP3    H177989   4.723   0.182   5.355  0.5686 -1.6404 -0.9893
18858TIP3    H277990   4.687   0.106   5.481 -0.0864  1.0708  0.5014
18859TIP3   OH277991   2.300   5.423   0.144  0.4582 -0.1915 -0.0264
18859TIP3    H177992   2.295   5.511   0.182 -2.5729 -0.0808 -0.5775
18859TIP3    H277993   2.375   5.426   0.085  0.1300  2.1575 -0.3545
18860TIP3   OH277994   2.121   2.630   4.223  0.1312 -0.2299  0.3136
18860TIP3    H177995   2.148   2.540   4.206  2.1064  0.0032  2.0238
18860TIP3    H277996   2.035   2.621   4.265  0.6429 -1.3621  1.1443
18861TIP3   OH277997   5.360   4.238   0.785 -0.0827 -0.3969  0.3511
18861TIP3    H177998   5.431   4.273   0.731  0.1040 -3.2411 -1.3307
18861TIP3    H277999   5.324   4.315   0.829  0.0844  2.0185 -3.4487
18862TIP3   OH278000   3.546   2.128   5.976  0.2252  0.4554 -0.5726
18862TIP3    H178001   3.472   2.095   6.027  0.4122  0.8280 -0.0587
18862TIP3    H278002   3.618   2.068   5.996  0.2124  0.4139 -0.6496
18863TIP3   OH278003   0.709   1.763  11.069  0.1666 -0.2056 -0.1089
18863TIP3    H178004   0.723   1.739  10.978  0.3707 -2.9759  0.6138
18863TIP3    H278005   0.616   1.787  11.073  0.4760  1.2741 -1.2997
18864TIP3   OH278006   5.894   2.780   5.157  0.3968 -0.0161  0.1317
18864TIP3    H178007   5.902   2.701   5.211 -1.3054  0.4187  1.0738
18864TIP3    H278008   5.949   2.845   5.200 -2.4742  0.9161  2.5409
18865TIP3   OH278009   6.155   1.829  12.374 -0.2464  0.0399  0.1450
18865TIP3    H178010   6.090   1.895  12.396 -0.9197  0.3544 -2.5241
18865TIP3    H278011   6.198   1.863  12.295  0.2964 -2.0972 -0.5200
18866TIP3   OH278012   1.826   3.515   0.601  0.3910 -0.2715 -0.3298
18866TIP3    H178013   1.731   3.527   0.601  0.1768 -1.7887  1.0006
18866TIP3    H278014   1.853   3.539   0.513 -1.0727  1.3360 -0.3709
18867TIP3   OH278015   1.722   3.955  15.816  0.3958 -0.6784 -0.0312
18867TIP3    H178016   1.686   4.033  15.775  1.0080 -0.9774 -1.1549
18867TIP3    H278017   1.746   3.898  15.743 -0.4993 -2.1249  0.7928
18868TIP3   OH278018   0.136   6.351  14.074  0.5450  0.2734 -0.2388
18868TIP3    H178019   0.117   6.442  14.093  0.9019  0.0752  1.1396
18868TIP3    H278020   0.055   6.304  14.092  0.1532  0.4102 -1.6368
18869TIP3   OH278021   1.277   2.384  15.751  0.3992  0.0758  0.2338
18869TIP3    H178022   1.305   2.295  15.773  0.4617 -0.3347 -1.4195
18869TIP3    H278023   1.223   2.373  15.673 -2.1599  1.1653  1.8178
18870TIP3   OH278024   3.801   1.712  10.817 -0.6638  0.4642  0.0087
18870TIP3    H178025   3.762   1.798  10.834  1.0896  1.5154 -1.0867
18870TIP3    H278026   3.893   1.730  10.799 -0.8551 -1.2664 -3.2930
18871TIP3   OH278027   1.590   5.375   3.187  0.3464  0.4556 -0.4103
18871TIP3    H178028   1.550   5.370   3.100  1.1842 -0.4464 -0.7542
18871TIP3    H278029   1.536   5.318   3.242 -0.0292  0.8241 -0.3917
18872TIP3   OH278030   0.360   1.622   4.976 -0.0044 -0.9890 -0.5395
18872TIP3    H178031   0.429   1.631   5.042 -0.2066 -0.0675 -0.4512
18872TIP3    H278032   0.301   1.696   4.992 -2.1930 -2.9197  0.7727
18873TIP3   OH278033   3.837   1.576   4.757 -0.5293 -0.1015 -0.6790
18873TIP3    H178034   3.821   1.666   4.784  1.6757  0.3416 -0.7239
18873TIP3    H278035   3.879   1.536   4.834  0.9124 -0.3319 -1.5772
18874TIP3   OH278036   4.687   0.764   2.153  0.3509 -0.6837  0.1071
18874TIP3    H178037   4.599   0.746   2.121  0.8378  2.4615 -3.2551
18874TIP3    H278038   4.676   0.838   2.213  0.4982 -1.4662  1.1155
18875TIP3   OH278039   6.000   6.509  13.533  0.2566 -0.0019  0.9491
18875TIP3    H178040   5.999   6.604  13.538 -0.7242  0.0526 -0.0854
18875TIP3    H278041   5.946   6.480  13.607 -0.5481  0.2857  0.4768
18876TIP3   OH278042   3.793   6.599   4.105 -0.5434  0.1457 -0.9062
18876TIP3    H178043   3.795   6.691   4.131  0.1104  0.1939 -1.1180
18876TIP3    H278044   3.858   6.592   4.035 -0.1453 -0.5974 -0.4844
18877TIP3   OH278045   6.293   1.940   6.273 -0.4811 -0.1198  0.2450
18877TIP3    H178046   6.346   1.939   6.352  1.1375  0.9691 -0.7919
18877TIP3    H278047   6.293   1.849   6.242 -0.4024 -0.3833  1.0095
18878TIP3   OH278048   5.141   5.419  11.172 -0.5285  0.2304 -0.1006
18878TIP3    H178049   5.235   5.418  11.153 -0.5352 -1.1675 -0.0772
18878TIP3    H278050   5.136   5.440  11.265 -0.1166 -2.3712  0.5386
18879TIP3   OH278051   2.540   0.484   4.642  0.5199  0.2651  0.0101
18879TIP3    H178052   2.598   0.434   4.700  0.7358  0.2511 -0.2200
18879TIP3    H278053   2.484   0.534   4.702  1.9636  1.6508  0.2135
18880TIP3   OH278054   6.443   0.581  11.737 -0.3027  0.4661  0.3468
18880TIP3    H178055   6.395   0.552  11.814 -0.3863 -2.0437 -0.5882
18880TIP3    H278056   6.422   0.674  11.728 -3.0023 -0.0131  1.3771
18881TIP3   OH278057   4.367   1.871  16.261 -0.4277 -0.5856 -0.3981
18881TIP3    H178058   4.367   1.944  16.323 -0.7761  0.2212 -1.3397
18881TIP3    H278059   4.455   1.833  16.269  0.5578  1.3799 -1.5695
18882TIP3   OH278060   2.902   0.264   4.021 -0.5452  0.1199  0.2223
18882TIP3    H178061   2.872   0.222   3.940 -0.5078 -1.0307  0.7923
18882TIP3    H278062   2.877   0.356   4.011 -0.6183 -0.0280 -1.0598
18883TIP3   OH278063   4.497   6.226   1.922 -0.2340 -0.4925  0.3838
18883TIP3    H178064   4.451   6.309   1.920  1.8358  0.8036  2.9761
18883TIP3    H278065   4.557   6.230   1.847 -1.3665 -0.4365 -0.5360
18884TIP3   OH278066   3.308   0.206   1.532  0.0449 -0.4679 -0.0552
18884TIP3    H178067   3.340   0.157   1.456 -1.7989 -1.3080 -0.3449
18884TIP3    H278068   3.314   0.144   1.604 -1.2808 -0.7858 -0.2015
18885TIP3   OH278069   2.566   2.276   0.137 -0.6132  0.8362  0.3389
18885TIP3    H178070   2.495   2.303   0.079 -0.4514 -0.2294 -0.3625
18885TIP3    H278071   2.521   2.237   0.212 -0.8000  1.5089  0.5854
18886TIP3   OH278072   0.727   4.195  11.076  0.0936  0.1940 -0.0968
18886TIP3    H178073   0.639   4.230  11.062 -0.3008 -0.5124  0.5849
18886TIP3    H278074   0.767   4.196  10.989 -1.3493 -1.4819 -0.8216
18887TIP3   OH278075   1.300   0.167  15.368  0.6822 -0.0163 -0.2394
18887TIP3    H178076   1.381   0.146  15.322  0.6223 -0.5841 -0.0859
18887TIP3    H278077   1.240   0.197  15.299  0.6867 -0.5856 -0.4923
18888TIP3   OH278078   1.574   5.466   5.124 -0.4059 -0.3100  0.1894
18888TIP3    H178079   1.560   5.390   5.067  0.3163  0.8894 -1.6350
18888TIP3    H278080   1.669   5.477   5.125 -0.3289 -1.0552  2.6483
18889TIP3   OH278081   3.859   6.666  14.228  0.2042 -0.3736 -0.4259
18889TIP3    H178082   3.946   6.640  14.257  0.6327 -0.7084 -1.9656
18889TIP3    H278083   3.808   6.585  14.228  0.2870 -0.4246 -0.9068
18890TIP3   OH278084   0.009   0.172  12.941 -0.3964 -0.6883  0.1173
18890TIP3    H178085  -0.006   0.243  13.003  2.4246 -0.5092  0.6648
18890TIP3    H278086  -0.041   0.197  12.863 -1.1308  0.8159  1.0507
18891TIP3   OH278087   2.033   1.848   2.867 -0.6275 -0.2210 -0.5636
18891TIP3    H178088   2.010   1.919   2.927 -0.3156  0.8695 -1.7157
18891TIP3    H278089   2.063   1.892   2.787  1.4293 -1.6344 -0.6084
18892TIP3   OH278090   0.874   0.628   1.466 -0.4811  0.0937  0.3081
18892TIP3    H178091   0.943   0.693   1.455  0.4410 -1.0757 -0.9571
18892TIP3    H278092   0.828   0.655   1.545  1.0697  1.2199  0.8476
18893TIP3   OH278093   4.521   1.754   5.669 -0.7021  0.6155  0.0798
18893TIP3    H178094   4.609   1.720   5.689 -0.5667  0.3722 -0.8851
18893TIP3    H278095   4.485   1.779   5.754  0.2504  0.5865  0.4998
18894TIP3   OH278096   0.408   2.523  15.612  0.0519 -0.1199 -0.6534
18894TIP3    H178097   0.423   2.468  15.689 -0.2396  0.6034 -0.0742
18894TIP3    H278098   0.478   2.499  15.551 -0.2086 -1.2933 -0.5011
18895TIP3   OH278099   1.827   5.299  10.569 -0.2912  0.2642 -0.1495
18895TIP3    H178100   1.830   5.282  10.663 -1.2459 -0.9015 -0.3183
18895TIP3    H278101   1.915   5.330  10.548 -0.1530  0.8222  1.1758
18896TIP3   OH278102   2.829   6.261   3.507  1.0458 -0.5050  0.5230
18896TIP3    H178103   2.876   6.334   3.547  1.6367 -0.4976 -0.1711
18896TIP3    H278104   2.874   6.183   3.540  1.4126 -0.5051  0.0154
18897TIP3   OH278105   6.360   6.209   2.203  0.4638  0.2378 -0.0932
18897TIP3    H178106   6.289   6.147   2.221  0.7142 -0.2665 -0.8300
18897TIP3    H278107   6.393   6.233   2.290 -0.2068  0.0106  0.2313
18898TIP3   OH278108   0.023   0.797  15.025  0.0261 -0.2256 -0.9265
18898TIP3    H178109   0.107   0.791  14.980  0.2170 -1.2468 -0.4686
18898TIP3    H278110  -0.041   0.814  14.956  0.6888  1.1844 -1.1936
18899TIP3   OH278111   1.477   2.551  17.039 -0.3539  0.0648 -0.0459
18899TIP3    H178112   1.476   2.532  16.945  0.6478 -0.1973 -0.0124
18899TIP3    H278113   1.537   2.487  17.076  1.9964  2.3435  0.2730
18900TIP3   OH278114   5.206   5.400   4.272  0.2318 -0.1047 -0.0251
18900TIP3    H178115   5.128   5.436   4.315 -1.1460 -2.2752 -0.6594
18900TIP3    H278116   5.267   5.383   4.344  0.3834  2.1633  0.4206
18901TIP3   OH278117   2.247   1.690  13.839 -0.6071 -0.1449  0.0179
18901TIP3    H178118   2.165   1.677  13.792  0.2693 -1.3084 -1.2285
18901TIP3    H278119   2.303   1.618  13.810  1.1393  1.0943  0.2075
18902TIP3   OH278120   6.001   0.526   6.582 -0.3291 -0.1215 -0.2701
18902TIP3    H178121   6.064   0.482   6.524 -1.5072 -1.3778 -0.6380
18902TIP3    H278122   6.046   0.534   6.666  1.9794  3.1253 -1.7332
18903TIP3   OH278123   0.963   3.368  11.742 -0.1308 -0.1983 -0.4261
18903TIP3    H178124   1.022   3.441  11.721 -0.9200  0.3373 -0.7941
18903TIP3    H278125   1.014   3.290  11.720  1.5602  0.1440  2.0669
18904TIP3   OH278126   6.361   5.149   1.034  0.4597  0.0995 -0.3978
18904TIP3    H178127   6.453   5.168   1.052 -0.1173  2.6349  0.1065
18904TIP3    H278128   6.312   5.200   1.100 -1.2901 -1.5603 -0.3689
18905TIP3   OH278129   3.719   5.939  13.243  0.1511 -0.4884  0.2037
18905TIP3    H178130   3.691   6.007  13.182  0.7494  0.6265  1.1491
18905TIP3    H278131   3.650   5.935  13.310  0.2391 -0.6300  0.2889
18906TIP3   OH278132   1.555   6.085  15.823 -0.1920 -0.4243 -0.2416
18906TIP3    H178133   1.526   6.104  15.734 -0.8332 -0.1440  0.0246
18906TIP3    H278134   1.558   5.990  15.828  0.4311 -0.4330 -0.7526
18907TIP3   OH278135   3.883   4.780   1.429  0.0078 -0.4377 -0.1255
18907TIP3    H178136   3.930   4.817   1.355  1.3932 -2.3565 -0.2375
18907TIP3    H278137   3.903   4.686   1.427 -1.0269 -0.7457  1.8660
18908TIP3   OH278138   2.012   5.321   1.721  0.2522 -0.4758  0.0794
18908TIP3    H178139   2.048   5.250   1.668  0.4006 -0.0129 -0.4563
18908TIP3    H278140   2.084   5.346   1.780  0.7056  0.2113 -0.7484
18909TIP3   OH278141   6.318   5.558  12.675 -0.1163  0.2285 -0.5401
18909TIP3    H178142   6.361   5.489  12.625 -2.4538 -0.5993 -1.4953
18909TIP3    H278143   6.346   5.639  12.633  0.1029 -0.3278 -1.4801
18910TIP3   OH278144   3.789   5.399   5.641 -0.0491  0.2446  0.2862
18910TIP3    H178145   3.788   5.423   5.733  1.6275  0.3146  0.2926
18910TIP3    H278146   3.839   5.317   5.637 -0.9758 -0.3068 -0.4411
18911TIP3   OH278147   3.852   4.188   4.515  0.0603 -0.0045  0.2942
18911TIP3    H178148   3.802   4.211   4.593 -0.8485 -0.2274 -0.2149
18911TIP3    H278149   3.786   4.171   4.448  0.8393  0.4688 -0.6097
18912TIP3   OH278150   4.959   5.773  13.431  0.2685  0.5392  0.4123
18912TIP3    H178151   4.936   5.706  13.367 -1.4573 -0.1750  1.7485
18912TIP3    H278152   4.875   5.806  13.463  1.0599 -0.0714  3.2765
18913TIP3   OH278153   2.134   0.250  15.691  0.2021 -0.3457  0.4753
18913TIP3    H178154   2.064   0.260  15.627  0.9276 -1.6213 -0.5494
18913TIP3    H278155   2.197   0.319  15.668 -0.0726 -0.0744  0.5349
18914TIP3   OH278156   4.893   1.987   4.764 -0.2783 -0.3174  0.3335
18914TIP3    H178157   4.813   2.013   4.809 -0.0698  0.9018  0.0280
18914TIP3    H278158   4.867   1.914   4.708 -1.2355  0.2220  0.0595
18915TIP3   OH278159   5.127   1.277   1.662  0.2864 -0.0515 -0.0120
18915TIP3    H178160   5.171   1.306   1.582  0.5421 -1.4402 -0.3882
18915TIP3    H278161   5.104   1.358   1.707  1.1800  0.7296 -0.9251
18916TIP3   OH278162   2.611   1.729  15.749  0.3341  0.1135 -0.0347
18916TIP3    H178163   2.690   1.756  15.795  0.5440 -1.6844  0.7349
18916TIP3    H278164   2.630   1.640  15.720 -1.9196 -0.9381  1.5263
18917TIP3   OH278165   3.548   1.318  17.201  0.0145  0.1568  0.0417
18917TIP3    H178166   3.493   1.256  17.248  0.7350 -1.6670 -1.4625
18917TIP3    H278167   3.499   1.336  17.121 -0.9520  2.8181  1.1752
18918TIP3   OH278168   3.790   3.018  12.079 -0.7843 -0.1876 -0.0356
18918TIP3    H178169   3.810   3.069  12.001 -0.9750  0.1286  0.1205
18918TIP3    H278170   3.860   2.953  12.084  0.0275  0.6989  0.3360
18919TIP3   OH278171   6.587   4.766   2.848  0.1475  0.0436  0.1376
18919TIP3    H178172   6.496   4.792   2.860  0.7808  2.3235  0.2196
18919TIP3    H278173   6.630   4.789   2.930  0.7960 -1.0306  0.1039
18920TIP3   OH278174   3.368   2.664  10.969  0.4415 -0.4525 -0.1835
18920TIP3    H178175   3.452   2.707  10.953  0.0960 -0.4068 -2.0233
18920TIP3    H278176   3.327   2.717  11.038  1.6517 -0.1285  0.2990
18921TIP3   OH278177   6.332   3.693   6.101  0.0019 -0.0719  0.1729
18921TIP3    H178178   6.253   3.652   6.136  0.3224 -1.0691 -0.2681
18921TIP3    H278179   6.339   3.776   6.149 -0.6902 -0.4938  1.0146
18922TIP3   OH278180   6.587   1.443   2.606 -0.4193 -0.2699 -0.5857
18922TIP3    H178181   6.604   1.386   2.681 -1.1916 -0.3421 -0.4592
18922TIP3    H278182   6.497   1.423   2.582 -1.1471  1.8813  0.2952
18923TIP3   OH278183   2.214   4.329   5.155 -0.1179 -0.5858 -0.1436
18923TIP3    H178184   2.241   4.386   5.082  0.1572  0.7779  1.0066
18923TIP3    H278185   2.135   4.285   5.122 -0.2563  0.3488 -1.1045
18924TIP3   OH278186   0.452   0.946  16.664 -0.7037 -0.0263  0.0584
18924TIP3    H178187   0.510   1.018  16.689  0.4070  0.6956 -4.1022
18924TIP3    H278188   0.505   0.868  16.676 -0.3101  0.2636  0.2297
18925TIP3   OH278189   1.711   3.707   4.368  0.2239  0.6535  0.0020
18925TIP3    H178190   1.621   3.680   4.353  0.6949 -1.8311  1.4802
18925TIP3    H278191   1.756   3.687   4.286 -0.5118  1.7759 -0.6916
18926TIP3   OH278192   2.854   3.113  13.077  0.1316  0.2252 -0.0574
18926TIP3    H178193   2.789   3.158  13.022  1.2556 -0.0676 -1.6266
18926TIP3    H278194   2.839   3.020  13.061  0.5504  0.1411  0.0490
18927TIP3   OH278195   1.854   4.385  12.338  1.0145  0.2107 -0.9289
18927TIP3    H178196   1.833   4.299  12.375  1.1163  0.1745 -0.9556
18927TIP3    H278197   1.792   4.396  12.266 -0.9899  1.4533  0.9277
18928TIP3   OH278198   4.113   4.543  16.040 -0.4279 -1.2265 -0.4163
18928TIP3    H178199   4.116   4.491  15.960 -2.1500 -1.0295 -0.6228
18928TIP3    H278200   4.081   4.484  16.107 -1.0830 -0.8030 -0.3527
18929TIP3   OH278201   4.612   0.986  15.537  0.5134  0.8872  0.0854
18929TIP3    H178202   4.689   0.935  15.514 -0.9043 -1.1591 -0.3312
18929TIP3    H278203   4.604   1.050  15.466 -0.0829 -1.1137 -1.7259
18930TIP3   OH278204   2.108   1.767  11.741  0.0100 -0.3167 -0.1485
18930TIP3    H178205   2.111   1.675  11.715  0.0474 -0.0280 -1.1745
18930TIP3    H278206   2.094   1.815  11.659  3.1881  0.8307 -0.0741
18931TIP3   OH278207   6.556   1.935  15.176 -0.2569  0.5632  0.1922
18931TIP3    H178208   6.567   1.866  15.242  1.1402  0.6159  0.0127
18931TIP3    H278209   6.512   2.006  15.224  0.0271  0.2950  0.8632
18932TIP3   OH278210   6.606   3.154   5.524  0.1186 -0.1762  0.0233
18932TIP3    H178211   6.654   3.235   5.542  0.3957 -0.2171 -0.5522
18932TIP3    H278212   6.540   3.179   5.460  0.3945 -0.4722 -0.3767
18933TIP3   OH278213   5.905   0.725   5.131 -0.0689  0.3985  0.2018
18933TIP3    H178214   5.871   0.675   5.057  1.8824  1.2441 -1.3203
18933TIP3    H278215   5.999   0.731   5.114  0.4384  0.4724  2.8437
18934TIP3   OH278216   2.046   6.547  14.955  0.2760 -0.0406  0.1491
18934TIP3    H178217   1.996   6.539  15.037 -0.3029 -1.0481 -0.2974
18934TIP3    H278218   2.134   6.572  14.984 -0.1351  0.4212  1.0313
18935TIP3   OH278219   0.097   2.976  16.612  0.9329 -0.5778  0.1471
18935TIP3    H178220   0.122   2.884  16.612  0.6713 -0.6509 -0.4070
18935TIP3    H278221   0.034   2.984  16.540  1.4715  0.1747 -0.2580
18936TIP3   OH278222   0.992   4.376   2.328 -0.1132 -0.0921 -0.7039
18936TIP3    H178223   1.021   4.465   2.348  0.2726 -0.5713  0.9159
18936TIP3    H278224   1.050   4.347   2.257  0.2418  0.6817 -0.7313
18937TIP3   OH278225   1.227   5.438   3.272 -0.2312  0.1779  0.0109
18937TIP3    H178226   1.293   5.377   3.241 -0.9090 -0.4706 -0.1846
18937TIP3    H278227   1.194   5.480   3.193  1.4859  2.1237  0.2926
18938TIP3   OH278228   3.418   0.202  16.374  0.4758  0.1785  0.3703
18938TIP3    H178229   3.415   0.200  16.469  1.5620 -1.7692  0.3946
18938TIP3    H278230   3.511   0.209  16.353  0.4116 -1.3646 -0.5370
18939TIP3   OH278231   1.941   1.913   5.635  0.3578  0.4035 -0.0340
18939TIP3    H178232   1.993   1.931   5.714  0.9230  1.8396 -0.7268
18939TIP3    H278233   1.982   1.966   5.567 -1.0465  0.3179 -0.9486
18940TIP3   OH278234   2.421   4.920   2.758 -0.5623 -0.1947 -0.5540
18940TIP3    H178235   2.353   4.854   2.741 -2.0357  0.8861  0.9404
18940TIP3    H278236   2.426   4.925   2.853  1.3485  0.0573 -0.6519
18941TIP3   OH278237   5.265   3.284   4.463 -0.7937  0.2118  0.6460
18941TIP3    H178238   5.259   3.189   4.450 -0.6475  0.3540 -0.5687
18941TIP3    H278239   5.198   3.303   4.529  0.3458 -0.9590  2.1707
18942TIP3   OH278240   1.321   3.678  11.296 -0.0765 -0.2358  0.0749
18942TIP3    H178241   1.249   3.739  11.283 -0.4068 -0.3669  1.2569
18942TIP3    H278242   1.278   3.593  11.307  0.3019 -0.4362  0.0066
18943TIP3   OH278243   4.194   4.222   1.281 -0.4012  0.3057  0.5027
18943TIP3    H178244   4.212   4.170   1.358  0.3223  0.5207  0.4795
18943TIP3    H278245   4.278   4.229   1.236 -0.9084 -0.1991 -0.5427
18944TIP3   OH278246   1.097   5.235   0.799  0.4212  0.1942 -0.0028
18944TIP3    H178247   1.164   5.232   0.867  1.4486  1.7747 -0.8843
18944TIP3    H278248   1.144   5.268   0.722 -1.2249  0.6627 -0.8253
18945TIP3   OH278249   2.549   1.326   1.400 -0.3235 -0.0882 -0.4925
18945TIP3    H178250   2.608   1.396   1.374  1.3681 -0.8793  1.0566
18945TIP3    H278251   2.573   1.252   1.345 -0.5647 -0.1054 -0.5738
18946TIP3   OH278252   1.252   5.204   5.392  0.3422 -0.1895  0.1231
18946TIP3    H178253   1.241   5.199   5.297 -0.0873 -3.0848  0.2756
18946TIP3    H278254   1.318   5.138   5.412  0.2240  0.2064  1.8776
18947TIP3   OH278255   5.063   0.105   5.910  0.0125  0.4656 -0.8851
18947TIP3    H178256   5.079   0.017   5.943 -3.6749 -0.3044 -1.0016
18947TIP3    H278257   5.107   0.163   5.973  1.5441 -1.3620 -0.2233
18948TIP3   OH278258   4.152   2.916   2.778  0.1674  0.0701  0.0801
18948TIP3    H178259   4.235   2.963   2.770 -0.1561  0.6845  0.3227
18948TIP3    H278260   4.136   2.880   2.690  0.7477 -0.1473  0.0650
18949TIP3   OH278261   5.074   1.683   3.853  0.1033  0.2597  0.4459
18949TIP3    H178262   4.989   1.688   3.896  0.4688  1.6332  1.0350
18949TIP3    H278263   5.123   1.757   3.887  1.4327 -0.3221 -0.1379
18950TIP3   OH278264   2.070   4.917   4.188 -0.0453  0.4187 -0.5726
18950TIP3    H178265   2.057   4.933   4.095 -0.3041 -0.5933 -0.7067
18950TIP3    H278266   2.030   4.993   4.231 -3.3906 -0.9638 -1.1063
18951TIP3   OH278267   5.472   1.497  13.211  0.3231 -0.2755  0.5121
18951TIP3    H178268   5.377   1.499  13.222  0.1919  0.2618 -0.5987
18951TIP3    H278269   5.505   1.552  13.281 -0.3059  0.9689 -0.1431
18952TIP3   OH278270   1.425   5.917  16.718  0.1106 -0.0449  0.3451
18952TIP3    H178271   1.406   5.885  16.806  1.7615  1.2740  1.1994
18952TIP3    H278272   1.339   5.921  16.675 -0.7385 -0.4247  1.9769
18953TIP3   OH278273   6.100   6.610   2.216  0.2680 -0.7826  0.0310
18953TIP3    H178274   6.141   6.656   2.289  1.0191 -0.1178 -0.8010
18953TIP3    H278275   6.091   6.519   2.247  0.4393 -0.4811  0.9930
18954TIP3   OH278276   2.950   1.551  11.282  0.0299 -0.7350 -0.1822
18954TIP3    H178277   3.028   1.524  11.233  1.1468 -0.4096  1.3622
18954TIP3    H278278   2.958   1.506  11.366 -0.0832  1.3190  0.9647
18955TIP3   OH278279   3.658   6.001  16.323 -0.0359  0.1251  0.6305
18955TIP3    H178280   3.666   5.940  16.396 -2.3155  0.3444  1.0980
18955TIP3    H278281   3.712   6.076  16.348  1.7812 -1.1335  0.6080
18956TIP3   OH278282   0.875   2.467  12.571 -0.1496  0.1830  0.1074
18956TIP3    H178283   0.915   2.493  12.488  0.2137 -0.0066  0.2219
18956TIP3    H278284   0.812   2.399  12.548  1.5264 -1.4667  0.2361
18957TIP3   OH278285   2.422   4.297  16.755  0.0502 -0.4255  0.6046
18957TIP3    H178286   2.398   4.213  16.794 -0.2586  0.6156  2.7262
18957TIP3    H278287   2.462   4.346  16.827  1.0106  0.9425 -0.8260
18958TIP3   OH278288   5.463   1.947   1.620 -0.7603 -0.2514 -0.3588
18958TIP3    H178289   5.385   2.003   1.619 -0.3109  0.4608  1.7125
18958TIP3    H278290   5.460   1.903   1.705  0.3743 -1.2638 -0.8266
18959TIP3   OH278291   6.531   5.376  16.730 -0.5440  0.2580  0.0193
18959TIP3    H178292   6.545   5.286  16.761  1.9092  0.9417  1.0101
18959TIP3    H278293   6.448   5.402  16.770 -0.4786 -1.0264  1.0292
18960TIP3   OH278294   3.927   1.001   2.064 -0.4594  0.0634 -0.4381
18960TIP3    H178295   4.012   1.002   2.109 -0.0612 -3.0925 -1.0502
18960TIP3    H278296   3.948   1.024   1.974 -0.5672  1.2357 -0.1830
18961TIP3   OH278297   1.262   2.347  11.382  0.7361  0.8589  0.5878
18961TIP3    H178298   1.314   2.272  11.351 -0.8537  0.6513 -1.6653
18961TIP3    H278299   1.175   2.312  11.396  0.8831  1.4722  3.2594
18962TIP3   OH278300   6.193   4.356   0.529 -0.3639 -0.4920  0.7764
18962TIP3    H178301   6.173   4.262   0.528 -1.6520 -0.2325 -1.6408
18962TIP3    H278302   6.118   4.396   0.573  0.3065 -0.6071  2.0388
18963TIP3   OH278303   0.765   3.753   1.640 -0.1235  0.5939  0.1039
18963TIP3    H178304   0.854   3.744   1.673  0.4279  0.5845 -1.3848
18963TIP3    H278305   0.775   3.772   1.547 -1.7075 -0.6561 -0.3435
18964TIP3   OH278306   4.746   0.499   2.134  0.4791 -0.7889  0.1694
18964TIP3    H178307   4.779   0.499   2.224 -0.4241 -0.0597  0.5079
18964TIP3    H278308   4.718   0.590   2.119 -0.9606 -1.2887 -0.2608
18965TIP3   OH278309   4.311   5.065  13.224  0.6734  0.3795 -0.4422
18965TIP3    H178310   4.282   5.042  13.313  0.6071 -0.9701 -0.8015
18965TIP3    H278311   4.231   5.097  13.181 -0.5876 -4.0540 -1.6669
18966TIP3   OH278312   0.354   0.433  13.240 -0.6235 -0.1162  0.0924
18966TIP3    H178313   0.321   0.392  13.319 -1.3571  0.3834  0.0429
18966TIP3    H278314   0.328   0.524  13.247 -0.7041 -0.0729 -0.7309
18967TIP3   OH278315   1.209   3.982   0.953 -0.0444  0.2121 -0.2771
18967TIP3    H178316   1.168   3.929   0.884  0.7461  0.1181 -0.6940
18967TIP3    H278317   1.298   3.946   0.960  0.1962  0.8746  0.0969
18968TIP3   OH278318   0.704   5.907  15.153 -0.7308 -0.1715  0.1949
18968TIP3    H178319   0.712   5.973  15.085 -0.1444 -0.6405 -0.1974
18968TIP3    H278320   0.614   5.916  15.184 -0.4816  1.1621  0.5219
18969TIP3   OH278321   2.249   3.394   2.737 -0.2296 -0.2222  0.3688
18969TIP3    H178322   2.201   3.337   2.797 -0.1272  0.0906  0.7413
18969TIP3    H278323   2.341   3.376   2.755 -0.1881  0.8709  1.2457
18970TIP3   OH278324   5.922   5.036  13.244 -0.4969 -0.6139  0.2831
18970TIP3    H178325   5.879   5.116  13.212  0.5201  0.1256  0.7375
18970TIP3    H278326   5.950   4.990  13.165  0.3329  0.2761  0.0518
18971TIP3   OH278327   6.533   1.034  12.737  0.2332  0.1188  0.0843
18971TIP3    H178328   6.543   1.003  12.646  0.5873  0.3462  0.0432
18971TIP3    H278329   6.605   1.096  12.749  0.6297 -0.4678  0.7622
18972TIP3   OH278330   4.213   2.479   0.535 -0.3512  0.5058 -0.2681
18972TIP3    H178331   4.265   2.522   0.467 -1.6527  0.2288 -1.4640
18972TIP3    H278332   4.169   2.550   0.581 -0.9063  0.5930 -0.9244
18973TIP3   OH278333   2.847   5.259  16.915 -0.2853  0.5368 -0.0430
18973TIP3    H178334   2.885   5.214  16.839  0.1559  0.2388  0.3515
18973TIP3    H278335   2.777   5.201  16.944  1.4634 -0.8595  1.5945
18974TIP3   OH278336   1.497   6.623   3.765  0.1240  0.0375  0.0617
18974TIP3    H178337   1.403   6.610   3.756  0.1155  0.4773 -0.5573
18974TIP3    H278338   1.507   6.667   3.850 -0.3833  1.4183 -0.5701
18975TIP3   OH278339   0.948   0.160   4.542 -0.2027 -0.5218  0.3557
18975TIP3    H178340   0.901   0.104   4.605  1.7792 -1.9744  0.6086
18975TIP3    H278341   1.026   0.190   4.590  0.4925 -0.3243 -0.8790
18976TIP3   OH278342   6.042   4.478  15.014 -1.0292  0.1032  0.2434
18976TIP3    H178343   5.997   4.421  14.951  1.0586  1.2592 -2.3479
18976TIP3    H278344   6.013   4.566  14.992  0.5231  0.6128  0.1768
18977TIP3   OH278345   3.029   0.110  16.008 -0.2811  0.2074  0.0644
18977TIP3    H178346   3.000   0.081  16.095 -0.2211  1.1139  0.3935
18977TIP3    H278347   3.007   0.037  15.950 -0.9688 -0.1190  0.7213
18978TIP3   OH278348   5.792   6.050  16.189 -0.3032 -0.2203 -0.4737
18978TIP3    H178349   5.840   5.967  16.195 -0.0957 -0.1483 -1.1315
18978TIP3    H278350   5.851   6.108  16.141 -0.6462  0.1635 -0.4308
18979TIP3   OH278351   2.264   1.990  13.681  0.1286 -0.2725  0.6806
18979TIP3    H178352   2.309   1.966  13.600  0.5374 -2.3329  1.4892
18979TIP3    H278353   2.171   1.988  13.658  0.3021  0.9723 -0.1936
18980TIP3   OH278354   6.351   4.445   4.616  0.0406 -0.0236  1.2292
18980TIP3    H178355   6.406   4.412   4.687  1.0724  1.2036  1.0221
18980TIP3    H278356   6.387   4.404   4.537 -1.7527 -2.1980  1.4991
18981TIP3   OH278357   6.159   0.921   2.645 -0.3220  0.2371 -0.4519
18981TIP3    H178358   6.089   0.975   2.681  0.0704  3.1058 -3.7009
18981TIP3    H278359   6.123   0.832   2.644 -1.5618  0.5660  3.5804
18982TIP3   OH278360   2.744   6.545  12.310  0.6876 -0.7167 -0.3893
18982TIP3    H178361   2.811   6.549  12.242  1.4542 -1.0546  0.3506
18982TIP3    H278362   2.792   6.532  12.391 -0.1451  0.8507  0.3872
18983TIP3   OH278363   1.886   0.050   2.831  0.1582  0.2925  0.1484
18983TIP3    H178364   1.852   0.042   2.920 -1.1522  2.4443 -0.1284
18983TIP3    H278365   1.933   0.134   2.831 -0.0057  0.3932 -1.2315
18984TIP3   OH278366   3.031   3.016  11.872  0.7119  0.4010  0.0491
18984TIP3    H178367   3.078   2.970  11.941 -1.4556 -1.1216  0.5797
18984TIP3    H278368   3.099   3.059  11.821  2.9734 -3.9319 -0.8772
18985TIP3   OH278369   2.560   1.311  14.113 -0.1312  0.1776 -0.2570
18985TIP3    H178370   2.476   1.284  14.150  0.2522  0.0418  0.5251
18985TIP3    H278371   2.559   1.406  14.119 -0.1748  0.1696 -0.1365
18986TIP3   OH278372   2.932   2.843   0.251  0.2216 -0.0951  0.4922
18986TIP3    H178373   2.862   2.897   0.288  0.4356  2.1447 -2.1455
18986TIP3    H278374   2.889   2.761   0.227 -1.4209  1.0773 -0.6651
18987TIP3   OH278375   0.830   1.247   0.793  0.1005 -0.2661 -0.9272
18987TIP3    H178376   0.790   1.169   0.755 -1.9029  0.4568 -0.3775
18987TIP3    H278377   0.785   1.259   0.876  1.4978  0.5887 -0.2636
18988TIP3   OH278378   3.865   3.974   1.945  0.9787 -0.0048  0.2548
18988TIP3    H178379   3.931   3.960   2.013  2.1975  0.4990 -0.7999
18988TIP3    H278380   3.845   4.067   1.949  3.6255  0.7755 -2.3031
18989TIP3   OH278381   1.049   5.257   4.391 -0.5389  0.1684  0.4874
18989TIP3    H178382   1.116   5.296   4.447  0.4681  0.1436 -0.6678
18989TIP3    H278383   1.059   5.162   4.404 -0.9764  0.1940  1.0202
18990TIP3   OH278384   2.394   5.841  13.046 -0.0530 -0.2357 -0.3048
18990TIP3    H178385   2.487   5.820  13.033  0.1151 -0.0731  0.6054
18990TIP3    H278386   2.368   5.789  13.121 -0.2715  0.9298  0.4456
18991TIP3   OH278387   6.087   4.100   4.852  0.5060 -0.3220 -0.8358
18991TIP3    H178388   6.071   4.172   4.913 -0.0288 -1.8662  0.8857
18991TIP3    H278389   6.005   4.090   4.805  0.2943 -0.3722 -0.4588
18992TIP3   OH278390   2.212   1.571   4.425  0.0020 -0.2453  0.3354
18992TIP3    H178391   2.304   1.557   4.450 -0.0940 -3.6122 -0.8778
18992TIP3    H278392   2.217   1.620   4.343  0.7565 -0.5357  0.1967
18993TIP3   OH278393   4.969   3.451   5.006 -0.4448 -0.3303  0.0167
18993TIP3    H178394   4.951   3.438   5.099 -1.6870 -2.1124 -0.4497
18993TIP3    H278395   4.986   3.363   4.972  2.9408  0.5863 -0.8762
18994TIP3   OH278396   0.905   5.930  12.915  0.2394  0.5479 -0.0108
18994TIP3    H178397   0.974   5.911  12.979 -0.1067 -0.4164  0.0858
18994TIP3    H278398   0.824   5.927  12.965  0.0342  0.5556 -0.3407
18995TIP3   OH278399   6.205   6.399   2.490 -0.1045 -0.8293  0.0503
18995TIP3    H178400   6.153   6.462   2.540 -0.6932  0.3637 -1.9956
18995TIP3    H278401   6.143   6.332   2.463 -0.4091  0.0372 -1.4825
18996TIP3   OH278402   2.864   3.380   4.052 -0.2216  0.0689 -0.1886
18996TIP3    H178403   2.771   3.403   4.049 -0.2070  0.0593 -0.9397
18996TIP3    H278404   2.867   3.300   4.106 -0.9740 -1.4135 -2.2592
18997TIP3   OH278405   2.165   5.855  12.597 -0.3393 -0.0907 -0.0990
18997TIP3    H178406   2.252   5.840  12.633 -0.6161  2.1496  1.5806
18997TIP3    H278407   2.181   5.893  12.510  0.3137 -1.1269 -0.4509
18998TIP3   OH278408   1.385   3.873   1.285 -0.0077  0.6748 -0.0936
18998TIP3    H178409   1.438   3.871   1.205  0.3591  1.5525  0.1305
18998TIP3    H278410   1.449   3.870   1.356 -0.3583 -1.0654  0.1905
18999TIP3   OH278411   0.855   4.722  11.177 -0.0104  0.1661  0.0839
18999TIP3    H178412   0.805   4.802  11.193  0.1919  0.5819 -1.3043
18999TIP3    H278413   0.942   4.752  11.152  0.7650 -0.5501  1.8254
19000TIP3   OH278414   5.079   2.089   1.837 -0.4813  0.3646  0.5138
19000TIP3    H178415   5.109   2.179   1.848  1.1492 -0.0164 -0.5651
19000TIP3    H278416   5.116   2.042   1.912 -0.9276  0.4927  0.8156
19001TIP3   OH278417   2.172   3.002   4.797 -0.1825  0.2500 -0.2687
19001TIP3    H178418   2.201   2.984   4.887  1.3130  2.3267 -0.3051
19001TIP3    H278419   2.219   3.081   4.772 -0.9380 -0.0477 -2.7447
19002TIP3   OH278420   1.411   0.276   5.380  0.0794 -0.0735 -0.5069
19002TIP3    H178421   1.407   0.371   5.388 -0.7911  0.0175 -1.8303
19002TIP3    H278422   1.487   0.250   5.432 -1.2809  1.0742  2.1440
19003TIP3   OH278423   6.046   5.746  11.717 -0.5787 -0.2166  0.4092
19003TIP3    H178424   6.005   5.732  11.632 -1.7716  1.7807  0.6171
19003TIP3    H278425   6.140   5.747  11.698 -0.6496 -3.0925 -0.3302
19004TIP3   OH278426   1.748   4.448   4.546 -0.2571  0.0187  0.0070
19004TIP3    H178427   1.668   4.472   4.499 -1.4249 -0.1590  1.8630
19004TIP3    H278428   1.785   4.532   4.574  0.2076  0.0968 -0.8008
19005TIP3   OH278429   6.118   4.454  17.220 -0.1786  0.5191  0.1642
19005TIP3    H178430   6.190   4.395  17.199 -0.7613 -0.2764  0.4004
19005TIP3    H278431   6.109   4.449  17.315  0.2562  1.5612  0.2721
19006TIP3   OH278432   4.807   0.505  16.790 -0.0617 -0.0609  0.1212
19006TIP3    H178433   4.792   0.477  16.700 -0.2885  1.4379 -0.3206
19006TIP3    H278434   4.724   0.484  16.835 -0.4511  0.4904 -0.3445
19007TIP3   OH278435   2.619   0.569   3.762 -0.3516  0.0733 -0.5057
19007TIP3    H178436   2.532   0.586   3.726  0.1084  1.7375 -0.8644
19007TIP3    H278437   2.671   0.644   3.734  0.3969  0.6874  2.4008
19008TIP3   OH278438   5.551   3.172   1.192 -0.3681 -0.8784 -0.7624
19008TIP3    H178439   5.534   3.083   1.163  0.5121 -1.1220 -0.5442
19008TIP3    H278440   5.527   3.171   1.285 -2.4616 -0.2974 -1.2696
19009TIP3   OH278441   5.524   4.114  12.973  0.1287 -0.0582  0.0681
19009TIP3    H178442   5.551   4.030  12.935  0.0256  0.4225 -1.1079
19009TIP3    H278443   5.433   4.125  12.944  0.0002  0.2413  0.5925
19010TIP3   OH278444   0.447   4.549  13.705 -0.1542 -0.0797 -0.4943
19010TIP3    H178445   0.497   4.511  13.777 -2.0126 -0.3041  0.6870
19010TIP3    H278446   0.437   4.478  13.642 -2.5024 -1.2417  1.1294
19011TIP3   OH278447   5.630   0.291   0.296 -0.7845  0.0568  0.2055
19011TIP3    H178448   5.609   0.318   0.207  0.9672  1.5361  0.2283
19011TIP3    H278449   5.725   0.278   0.296 -0.8047 -0.2129  1.7856
19012TIP3   OH278450   2.074   4.665   1.640  0.1393 -0.0914 -0.7981
19012TIP3    H178451   2.156   4.624   1.667  0.8008  1.5704 -0.1603
19012TIP3    H278452   2.071   4.655   1.545  0.7998 -0.6627 -0.7609
19013TIP3   OH278453   0.404   2.168   5.361  0.1158 -0.1790  0.1245
19013TIP3    H178454   0.417   2.162   5.456 -0.5417 -1.9890  0.1191
19013TIP3    H278455   0.484   2.209   5.328  0.2305  0.7118  1.4817
19014TIP3   OH278456   5.189   0.137   2.798  0.0035  0.0408  0.0880
19014TIP3    H178457   5.190   0.074   2.726  1.4535  0.1694 -0.0123
19014TIP3    H278458   5.149   0.090   2.871  1.3552 -1.1010  0.1028
19015TIP3   OH278459   2.081   6.199   0.425  0.1782 -0.6435 -0.0464
19015TIP3    H178460   2.038   6.130   0.476 -0.2147 -0.2509  0.1640
19015TIP3    H278461   2.158   6.222   0.476  1.2601 -2.1164 -0.9673
19016TIP3   OH278462   1.935   1.674  11.954 -0.1341 -0.5973 -0.6033
19016TIP3    H178463   1.944   1.582  11.976  1.2504 -1.3323 -3.9763
19016TIP3    H278464   2.010   1.693  11.898 -1.6849  1.9333 -1.9441
19017TIP3   OH278465   3.895   5.292  14.074  0.2172  0.8792  0.1456
19017TIP3    H178466   3.934   5.298  13.986 -1.1217  0.1813 -0.5222
19017TIP3    H278467   3.939   5.359  14.125  4.8721 -2.1502  0.4220
19018TIP3   OH278468   0.312   1.810   3.358 -0.3115 -0.0706  0.0214
19018TIP3    H178469   0.285   1.832   3.447 -0.2790 -0.8853  0.2371
19018TIP3    H278470   0.286   1.886   3.305 -2.2473 -0.4854  0.3567
19019TIP3   OH278471   6.636   1.481  17.144  0.0747  0.6014  0.2246
19019TIP3    H178472   6.718   1.462  17.099  0.5495  2.2434  0.3629
19019TIP3    H278473   6.601   1.558  17.099 -1.6503 -0.3588 -0.1419
19020TIP3   OH278474   6.230   5.202   4.727  0.3515 -0.0623 -0.1451
19020TIP3    H178475   6.221   5.181   4.634 -0.3773  0.1594 -0.1231
19020TIP3    H278476   6.223   5.118   4.772  1.5252 -0.2816 -0.3365
19021TIP3   OH278477   0.269   0.000  11.388 -0.0546  0.1457  1.3607
19021TIP3    H178478   0.322   0.067  11.432  1.0206 -0.3052  0.7597
19021TIP3    H278479   0.305  -0.005  11.300 -0.7378 -0.5767  1.1167
19022TIP3   OH278480   2.595   2.843   2.940 -0.4080  0.1734  0.2470
19022TIP3    H178481   2.550   2.759   2.950 -1.6391  0.7652 -0.2826
19022TIP3    H278482   2.526   2.905   2.916  0.2003  1.6804  2.2222
19023TIP3   OH278483   0.294   2.874   2.774  0.3735  0.2216  0.6066
19023TIP3    H178484   0.211   2.829   2.759  0.4377  0.8571 -1.8990
19023TIP3    H278485   0.270   2.958   2.813 -0.1200  0.2676  0.1943
19024TIP3   OH278486   5.470   6.588  12.191  0.7830 -0.0130  0.1461
19024TIP3    H178487   5.397   6.646  12.213  1.6981  0.4635  2.0554
19024TIP3    H278488   5.435   6.500  12.203 -0.6640  0.0699 -2.9284
19025TIP3   OH278489   3.435   3.536  16.583 -0.1616 -0.1140 -0.4784
19025TIP3    H178490   3.471   3.622  16.603  0.5520 -0.5925  0.3453
19025TIP3    H278491   3.468   3.479  16.653  0.8308 -1.4459 -2.0013
19026TIP3   OH278492   1.781   3.611   1.955 -0.2741 -0.7524 -0.1960
19026TIP3    H178493   1.845   3.637   2.021 -1.9626 -0.8133  1.5005
19026TIP3    H278494   1.763   3.691   1.906  0.5889 -0.5889 -0.2570
19027TIP3   OH278495   0.465   3.614   5.825 -0.3055  0.3033  0.0081
19027TIP3    H178496   0.501   3.595   5.739 -2.7391  0.4562 -1.0938
19027TIP3    H278497   0.540   3.611   5.884  1.4268  0.3587 -2.1332
19028TIP3   OH278498   5.567   0.898   5.040  0.2431  0.4736 -0.1939
19028TIP3    H178499   5.549   0.805   5.031  0.5573  0.3351  0.6224
19028TIP3    H278500   5.485   0.936   5.070  0.8067  0.0895  1.8840
19029TIP3   OH278501   4.353   3.842  16.172  0.2211  0.4906  0.3179
19029TIP3    H178502   4.384   3.832  16.082  0.4581 -0.5321  0.5137
19029TIP3    H278503   4.363   3.756  16.211  0.9188  1.1297  1.5774
19030TIP3   OH278504   5.342   3.879   6.259  0.1195  0.2530 -0.2961
19030TIP3    H178505   5.290   3.959   6.270 -0.9167 -0.4155 -0.3501
19030TIP3    H278506   5.433   3.911   6.256 -0.1894  1.3040  0.9951
19031TIP3   OH278507   1.489   2.952   0.520 -0.1366 -0.4519  0.6015
19031TIP3    H178508   1.456   3.013   0.454  0.2559 -0.5523  0.3065
19031TIP3    H278509   1.584   2.955   0.509 -0.1675 -2.0628 -0.2730
19032TIP3   OH278510   4.694   1.726  15.302 -0.1407 -0.2699 -0.0938
19032TIP3    H178511   4.643   1.738  15.382  0.2018  0.8740 -0.0347
19032TIP3    H278512   4.630   1.733  15.231  0.0607  2.1570 -0.0686
19033TIP3   OH278513   1.856   0.346   6.307 -0.2347  0.1940 -0.3438
19033TIP3    H178514   1.929   0.285   6.297  0.2362  0.4517  1.4951
19033TIP3    H278515   1.780   0.298   6.273  0.0025 -1.7080  1.7079
19034TIP3   OH278516   3.016   2.725  10.873 -0.4532 -0.5413  0.2962
19034TIP3    H178517   3.010   2.630  10.888 -0.5912 -0.2612  2.1379
19034TIP3    H278518   2.928   2.758  10.892 -0.0340  0.1365  1.0963
19035TIP3   OH278519   3.050   2.426   3.830  0.4290  0.0694 -0.2217
19035TIP3    H178520   2.973   2.482   3.839 -0.1740 -0.3910 -2.1862
19035TIP3    H278521   3.019   2.350   3.780  1.0820 -2.3778  2.9484
19036TIP3   OH278522   4.568   0.867   2.491 -0.3823 -0.2988 -0.2697
19036TIP3    H178523   4.492   0.835   2.441 -0.4604  0.0919 -0.4053
19036TIP3    H278524   4.584   0.954   2.456 -0.1894 -0.1767  0.1194
19037TIP3   OH278525   2.152   1.918   0.623  0.2724  0.1878  0.3720
19037TIP3    H178526   2.078   1.977   0.638 -0.3934 -0.6879  0.5358
19037TIP3    H278527   2.112   1.833   0.609  1.0343  0.3087 -2.9274
19038TIP3   OH278528   2.495   2.390  11.894  0.0547  0.3615  0.7516
19038TIP3    H178529   2.489   2.299  11.864  1.7829  0.5201 -0.0979
19038TIP3    H278530   2.493   2.383  11.990 -1.1070 -0.4662  0.6843
19039TIP3   OH278531   2.253   6.373  12.154 -0.1128  0.0280 -0.3625
19039TIP3    H178532   2.220   6.462  12.147  0.5300  0.3835  0.9711
19039TIP3    H278533   2.342   6.377  12.119 -0.1890 -0.1629 -0.5858
19040TIP3   OH278534   0.029   5.821  14.555  0.5716 -0.1511 -0.7734
19040TIP3    H178535  -0.043   5.796  14.496  0.4340  0.2669 -0.7851
19040TIP3    H278536   0.108   5.788  14.512  0.2946 -1.5072 -0.2600
19041TIP3   OH278537   2.300   3.421  16.596  0.2241 -0.2706 -0.4706
19041TIP3    H178538   2.315   3.515  16.606  1.2778 -0.4120 -0.6126
19041TIP3    H278539   2.286   3.390  16.686  0.4626 -0.0664 -0.3609
19042TIP3   OH278540   5.503   3.771   0.625 -0.3205 -0.4021  0.5418
19042TIP3    H178541   5.497   3.852   0.676 -0.4032 -0.1839  0.1885
19042TIP3    H278542   5.517   3.703   0.690 -0.8059 -0.1749  0.8885
19043TIP3   OH278543   2.079   4.390  15.547 -0.5246 -0.7923  0.0949
19043TIP3    H178544   2.124   4.358  15.469  1.1882 -0.5713  0.9626
19043TIP3    H278545   2.045   4.476  15.521  0.3648 -0.5493 -0.3075
19044TIP3   OH278546   6.344   5.706  12.243 -0.6665 -0.1048 -0.2060
19044TIP3    H178547   6.392   5.780  12.206  0.0960 -0.0260  0.9068
19044TIP3    H278548   6.270   5.693  12.183 -0.0418  0.6679 -1.1718
19045TIP3   OH278549   6.612   1.222   5.314 -0.3430 -0.1267  0.3857
19045TIP3    H178550   6.555   1.238   5.239  1.1499 -0.4530 -0.8266
19045TIP3    H278551   6.571   1.148   5.360 -1.4477  0.3033  0.1109
19046TIP3   OH278552   5.905   6.145   5.165  0.1316 -0.0819  0.1420
19046TIP3    H178553   5.980   6.121   5.219 -0.6140 -2.1223  0.3060
19046TIP3    H278554   5.837   6.083   5.189 -1.8058  2.0349  0.3444
19047TIP3   OH278555   6.288   6.421   3.629 -0.2228  0.6035  0.6447
19047TIP3    H178556   6.195   6.398   3.638 -0.4401  0.9780 -0.5183
19047TIP3    H278557   6.326   6.401   3.714 -0.0403 -5.4843 -0.6341
19048TIP3   OH278558   2.749   6.618  14.700 -0.5825 -0.2959  0.0905
19048TIP3    H178559   2.711   6.657  14.780 -3.0508 -0.9435 -0.7143
19048TIP3    H278560   2.750   6.691  14.637 -1.3783 -0.5077 -0.1706
19049TIP3   OH278561   0.088   5.640   1.226 -0.1329 -0.1469  0.6329
19049TIP3    H178562   0.081   5.637   1.130  0.2334 -0.8809  0.6249
19049TIP3    H278563   0.134   5.722   1.244  1.6404 -0.9907  0.0580
19050TIP3   OH278564   4.754   0.845  14.035 -0.4889 -0.0061  0.4336
19050TIP3    H178565   4.773   0.790  14.111 -0.7657  0.7234  1.0415
19050TIP3    H278566   4.754   0.935  14.070 -1.5012  0.2692 -0.2446
19051TIP3   OH278567   3.267   1.573  13.680 -0.6892 -0.4860 -0.3910
19051TIP3    H178568   3.345   1.519  13.693  1.3871  2.4694  0.0142
19051TIP3    H278569   3.277   1.608  13.591  0.2377  2.5324  0.8294
19052TIP3   OH278570   1.459   4.916  15.178  0.3359  0.0148 -0.3785
19052TIP3    H178571   1.447   4.914  15.083  0.2926  0.7653 -0.3958
19052TIP3    H278572   1.508   4.997  15.194  0.3445 -0.1090  0.2374
19053TIP3   OH278573   0.519   5.528   1.892 -0.4969  0.0727  0.5179
19053TIP3    H178574   0.600   5.572   1.919 -1.4042  1.2915  1.3439
19053TIP3    H278575   0.523   5.525   1.797  0.7505 -0.3377  0.5754
19054TIP3   OH278576   5.611   4.864  11.189 -0.2305 -0.0721 -0.8301
19054TIP3    H178577   5.657   4.904  11.263 -0.4455 -0.3138 -0.5650
19054TIP3    H278578   5.574   4.938  11.141 -1.0198  0.0290 -0.0810
19055TIP3   OH278579   2.974   3.161   3.659 -0.0699 -0.2377  0.6707
19055TIP3    H178580   2.994   3.240   3.608  0.1795 -0.6050  0.1930
19055TIP3    H278581   2.881   3.144   3.642 -0.5872  0.9708  2.2008
19056TIP3   OH278582   4.952   4.076   0.456 -0.2499 -0.2523 -0.2799
19056TIP3    H178583   4.981   4.114   0.373 -0.5816  0.2486 -0.1671
19056TIP3    H278584   5.032   4.043   0.496 -0.0899 -0.5233 -0.8141
19057TIP3   OH278585   1.650   1.248  11.018  0.2681  0.6157  0.4640
19057TIP3    H178586   1.610   1.161  11.014  2.3947 -0.5164  2.5577
19057TIP3    H278587   1.617   1.286  11.100  1.1333  0.8651  0.7047
19058TIP3   OH278588   3.338   1.700  16.971 -0.2277 -0.1650  0.1740
19058TIP3    H178589   3.394   1.666  16.901  0.4585  1.9532 -0.3271
19058TIP3    H278590   3.369   1.653  17.049  3.0143  1.6811  0.1052
19059TIP3   OH278591   4.129   3.042   3.192  0.0033  0.0836 -0.5134
19059TIP3    H178592   4.167   3.062   3.278  0.1256 -1.2709 -0.2433
19059TIP3    H278593   4.203   3.045   3.132 -0.0997  1.1449 -0.6014
19060TIP3   OH278594   2.740   3.446   1.746  0.2113 -0.0123 -0.5495
19060TIP3    H178595   2.835   3.436   1.745  0.2000 -0.0882 -1.5136
19060TIP3    H278596   2.713   3.412   1.831  1.1305  0.8372  0.0954
19061TIP3   OH278597   1.450   5.977   2.950  0.5318  0.3078 -0.4169
19061TIP3    H178598   1.368   5.970   2.902  0.6742  0.6473 -0.7186
19061TIP3    H278599   1.425   6.011   3.036  0.1162 -1.6060  0.2407
19062TIP3   OH278600   3.020   4.031  16.425  0.1950 -0.4083 -0.0646
19062TIP3    H178601   3.041   4.122  16.446 -0.8193 -0.2262  0.1865
19062TIP3    H278602   3.104   3.993  16.398  0.2738  1.0973 -2.0070
19063TIP3   OH278603   0.792   3.011   2.621 -0.2614  0.2397  0.3228
19063TIP3    H178604   0.771   2.926   2.583  1.0023  0.0529  0.0278
19063TIP3    H278605   0.869   2.995   2.675  0.1732  1.2681  0.0148
19064TIP3   OH278606   2.686   3.972   1.406 -0.1246 -0.6223  0.0861
19064TIP3    H178607   2.745   3.896   1.401 -2.1475 -2.2116 -0.5198
19064TIP3    H278608   2.738   4.040   1.448  2.8959 -1.2390 -2.4137
19065TIP3   OH278609   3.865   2.319   1.183  0.1567  0.0739 -0.2046
19065TIP3    H178610   3.921   2.252   1.145  0.4337  0.4262 -0.4165
19065TIP3    H278611   3.796   2.270   1.228  1.1817 -0.3675  0.8937
19066TIP3   OH278612   6.711   0.769   5.093  0.2815 -0.7928  0.5225
19066TIP3    H178613   6.800   0.737   5.104  0.0842 -1.0322  1.5075
19066TIP3    H278614   6.710   0.854   5.137  0.3065 -0.2887 -0.4380
19067TIP3   OH278615   3.696   5.519   2.647 -1.2948  0.0659 -0.5630
19067TIP3    H178616   3.713   5.454   2.715  3.2586  0.9952 -0.6859
19067TIP3    H278617   3.691   5.469   2.566 -0.4325 -0.4222 -0.3213
19068TIP3   OH278618   0.817   4.150   2.897 -0.0898  0.3268 -0.8697
19068TIP3    H178619   0.778   4.066   2.873 -1.2147  0.4343  0.4859
19068TIP3    H278620   0.910   4.131   2.910 -0.0150 -0.3307 -2.3149
19069TIP3   OH278621   3.089   2.167   5.315 -0.0927 -0.2718  0.3262
19069TIP3    H178622   3.175   2.183   5.354 -0.3586 -0.3510  0.9500
19069TIP3    H278623   3.069   2.076   5.336  0.3633 -0.7359 -1.1873
19070TIP3   OH278624   2.616   6.473  11.207 -0.0653  0.1206 -0.2009
19070TIP3    H178625   2.705   6.447  11.232  0.2142  0.3712 -0.8949
19070TIP3    H278626   2.624   6.498  11.115 -0.8306  0.2765 -0.2308
19071TIP3   OH278627   6.422   4.364   2.792 -0.1418 -0.0437  0.1248
19071TIP3    H178628   6.467   4.289   2.753  2.0106  1.1292  0.3383
19071TIP3    H278629   6.399   4.419   2.717  0.5378  0.3236  0.1884
19072TIP3   OH278630   2.563   6.326   0.773  0.0831 -0.5120 -0.9689
19072TIP3    H178631   2.606   6.358   0.853  0.5063  0.0832 -1.4293
19072TIP3    H278632   2.481   6.376   0.769 -0.7117 -1.7239 -0.0335
19073TIP3   OH278633   3.308   2.030   1.949 -0.2354  0.4448 -0.3159
19073TIP3    H178634   3.345   2.011   2.035 -1.4991 -1.7939 -0.2330
19073TIP3    H278635   3.241   2.096   1.966 -0.1778  0.3378  0.3366
19074TIP3   OH278636   5.002   1.799  14.827  0.8082  0.1074 -0.5072
19074TIP3    H178637   4.996   1.892  14.849 -1.9637 -0.4694  1.4818
19074TIP3    H278638   5.042   1.759  14.904  1.6406 -0.4256 -1.2067
19075TIP3   OH278639   6.617   5.636  16.840 -0.5799  0.6243  0.7810
19075TIP3    H178640   6.641   5.599  16.925 -1.5432  0.6287  1.0584
19075TIP3    H278641   6.623   5.563  16.779 -1.5648  0.2178  1.1610
19076TIP3   OH278642   3.334   6.153  12.952 -0.0511  0.4883  0.3997
19076TIP3    H178643   3.239   6.144  12.964 -0.0125 -0.7321 -0.1063
19076TIP3    H278644   3.368   6.065  12.969  0.6554  0.1458 -2.6265
19077TIP3   OH278645   1.019   2.202   1.639 -0.3489 -0.6261  0.3703
19077TIP3    H178646   1.080   2.135   1.608 -2.4971 -2.3850 -0.1234
19077TIP3    H278647   0.934   2.178   1.602 -1.6976  0.8602  2.3641
19078TIP3   OH278648   4.345   2.889  12.255  0.4640  0.5431  0.0291
19078TIP3    H178649   4.313   2.929  12.174  1.2734  0.4183 -0.3635
19078TIP3    H278650   4.311   2.799  12.251  1.7280  0.0880 -0.9091
19079TIP3   OH278651   1.595   6.178  11.201  0.4396 -0.5658  0.5934
19079TIP3    H178652   1.650   6.232  11.258  1.2880 -1.4068  0.5818
19079TIP3    H278653   1.651   6.157  11.127 -0.0697 -1.0140  0.3327
19080TIP3   OH278654   5.550   2.060  16.011  0.2853 -0.7144  0.4971
19080TIP3    H178655   5.559   2.068  15.916 -0.1806 -1.9989  0.3328
19080TIP3    H278656   5.459   2.087  16.028  0.3872 -0.4248  0.5931
19081TIP3   OH278657   0.574   2.513  16.096 -0.9266 -0.3383  0.6573
19081TIP3    H178658   0.481   2.500  16.076 -0.8110  0.2983 -0.2828
19081TIP3    H278659   0.619   2.499  16.013 -0.3933  1.5905  0.5981
19082TIP3   OH278660   1.544   3.688   0.336 -0.6034 -0.2770 -0.2522
19082TIP3    H178661   1.461   3.655   0.301 -0.2468 -2.2661  0.7283
19082TIP3    H278662   1.593   3.715   0.259 -2.6036  2.0879 -0.7873
19083TIP3   OH278663   0.220   6.702   2.521  0.6494  0.1722 -0.3604
19083TIP3    H178664   0.251   6.691   2.611  2.9387 -0.4946 -1.1872
19083TIP3    H278665   0.135   6.746   2.530  0.8418  0.1241  2.1116
19084TIP3   OH278666   2.823   1.638   1.620  0.6677  0.0081 -0.9535
19084TIP3    H178667   2.805   1.643   1.714  1.0812  1.2084 -0.9327
19084TIP3    H278668   2.859   1.550   1.607 -1.7008 -1.0807 -0.4044
19085TIP3   OH278669   0.243   3.219  13.263  0.0769 -0.0824 -0.1856
19085TIP3    H178670   0.334   3.221  13.235 -0.5082 -1.6873 -2.3673
19085TIP3    H278671   0.246   3.188  13.354  1.8380  2.2111  0.5746
19086TIP3   OH278672   0.049   1.267  13.776 -0.3512  0.1378  0.8994
19086TIP3    H178673   0.131   1.307  13.745 -0.6001 -1.0330 -1.3183
19086TIP3    H278674  -0.007   1.342  13.798  1.3238  0.9582  2.5681
19087TIP3   OH278675   4.795   2.193   3.169 -0.3683  0.1469  0.3906
19087TIP3    H178676   4.814   2.100   3.181 -2.3932 -0.1379  1.7135
19087TIP3    H278677   4.713   2.194   3.119 -1.4082  1.1716  2.0714
19088TIP3   OH278678   3.906   1.962  16.612  0.1152 -0.4227  0.1671
19088TIP3    H178679   3.951   1.881  16.589  1.4401  0.3512 -0.0097
19088TIP3    H278680   3.976   2.027  16.621 -0.7962  0.3540  1.8325
19089TIP3   OH278681   0.460   6.515   6.339 -0.5503 -0.6523  0.2734
19089TIP3    H178682   0.472   6.479   6.427 -1.3006 -0.1739  0.5719
19089TIP3    H278683   0.547   6.550   6.316  0.2335 -2.7444 -0.0865
19090TIP3   OH278684   0.998   4.311   1.109  0.1259  0.2777 -0.2352
19090TIP3    H178685   1.091   4.290   1.098  0.8295  2.3167  1.5666
19090TIP3    H278686   0.966   4.326   1.020  0.8228 -3.1139 -1.1421
19091TIP3   OH278687   5.823   2.675  14.938  0.0288 -0.4381 -0.6827
19091TIP3    H178688   5.901   2.625  14.914  0.0523 -0.6980 -0.0760
19091TIP3    H278689   5.750   2.617  14.915  0.0009 -0.0407 -1.6034
19092TIP3   OH278690   3.637   2.800   6.419 -0.2527 -0.2043 -0.2879
19092TIP3    H178691   3.660   2.881   6.463 -1.8247 -1.2379  2.6430
19092TIP3    H278692   3.706   2.739   6.444 -0.1676 -0.3023 -0.7692
19093TIP3   OH278693   0.703   3.662   5.189 -0.0218  0.3347 -0.3738
19093TIP3    H178694   0.672   3.661   5.098 -0.6293  3.5503 -0.2352
19093TIP3    H278695   0.789   3.703   5.185 -0.6102  1.7095  0.6551
19094TIP3   OH278696   6.774   2.718  14.462  0.3433  0.3462 -0.1523
19094TIP3    H178697   6.785   2.626  14.441  1.0783  0.3241  0.2974
19094TIP3    H278698   6.699   2.721  14.521  0.9074 -0.0784  0.5909
19095TIP3   OH278699   4.453   1.791  15.457  0.4915  0.8448 -0.0554
19095TIP3    H178700   4.388   1.733  15.418  0.6781  0.4414  0.2255
19095TIP3    H278701   4.432   1.878  15.422  0.3889  0.5628 -0.6967
19096TIP3   OH278702   4.133   3.727   1.924  0.3944  0.0434  0.5692
19096TIP3    H178703   4.222   3.741   1.894  0.3915 -2.0157 -0.4631
19096TIP3    H278704   4.079   3.743   1.846 -0.0647  0.2566  0.9264
19097TIP3   OH278705   2.969   4.262   2.462 -0.6589  0.3507 -0.3100
19097TIP3    H178706   2.948   4.318   2.537  0.3810  0.1522  0.1363
19097TIP3    H278707   2.943   4.314   2.386  1.6370  2.0638  0.0331
19098TIP3   OH278708   2.847   3.734   1.407 -0.0261  0.0469  0.3822
19098TIP3    H178709   2.934   3.748   1.370  0.3862  0.3643  1.4641
19098TIP3    H278710   2.851   3.646   1.444 -0.3807 -0.1987 -0.1554
19099TIP3   OH278711   4.233   4.393  14.925 -0.2008  0.4582 -0.2558
19099TIP3    H178712   4.254   4.469  14.871  1.5902 -0.2179 -0.5489
19099TIP3    H278713   4.220   4.429  15.013 -0.3503  1.2229 -0.5872
19100TIP3   OH278714   4.454   1.056   2.175 -0.2228  0.0614 -0.1605
19100TIP3    H178715   4.484   1.051   2.084  1.6589 -0.5401  0.4714
19100TIP3    H278716   4.433   1.149   2.188  1.2325  0.4730 -0.6873
19101TIP3   OH278717   1.997   6.475  16.965 -0.0930  0.0456  0.0249
19101TIP3    H178718   1.953   6.538  17.022  2.6232  2.3111 -0.2542
19101TIP3    H278719   1.984   6.509  16.877  0.2635 -0.5309 -0.2511
19102TIP3   OH278720   4.375   5.146   2.793  0.1203 -0.5079 -0.3709
19102TIP3    H178721   4.399   5.125   2.883  0.4577 -0.0419 -0.3503
19102TIP3    H278722   4.298   5.203   2.801  2.6534  3.0652 -0.1954
19103TIP3   OH278723   4.878   5.003   2.548  0.2135  0.5773  0.2707
19103TIP3    H178724   4.811   4.978   2.612 -1.8243  2.8890 -0.8602
19103TIP3    H278725   4.925   5.076   2.589  0.9732  0.0161  0.4023
19104TIP3   OH278726   2.507   3.235   0.431  0.0837  0.1652 -0.3144
19104TIP3    H178727   2.439   3.235   0.499 -0.3482  0.6397 -0.7413
19104TIP3    H278728   2.459   3.247   0.349  0.5007 -1.6017 -0.8260
19105TIP3   OH278729   0.643   5.928  15.746 -0.1459  0.3163  0.4326
19105TIP3    H178730   0.705   5.967  15.685 -2.6722  2.2855 -0.9683
19105TIP3    H278731   0.630   5.839  15.713 -2.8328  1.8908 -3.0975
19106TIP3   OH278732   4.360   3.727  12.524 -0.1231 -0.3319  0.4490
19106TIP3    H178733   4.277   3.706  12.480 -2.1390  0.7912  3.5104
19106TIP3    H278734   4.362   3.823  12.527  1.1712 -0.3555  0.6274
19107TIP3   OH278735   3.089   2.953  16.227  0.0238 -0.1355  0.4657
19107TIP3    H178736   3.031   3.028  16.213  1.6715  1.2211  0.7170
19107TIP3    H278737   3.059   2.888  16.164 -0.4779  1.3116 -0.8242
19108TIP3   OH278738   4.807   6.241  15.034 -0.1279 -0.3956 -0.3208
19108TIP3    H178739   4.892   6.246  14.991 -1.2643  1.3325 -2.5344
19108TIP3    H278740   4.752   6.190  14.974 -1.2401  0.4494 -0.0552
19109TIP3   OH278741   3.640   1.960   1.607 -0.0564  0.0349  0.3067
19109TIP3    H178742   3.669   1.870   1.616  0.4207  0.0528 -0.9627
19109TIP3    H278743   3.545   1.956   1.616 -0.0743 -0.6489 -0.1858
19110TIP3   OH278744   2.131   2.789  11.387 -0.1263  0.1262 -0.2606
19110TIP3    H178745   2.153   2.704  11.424  0.2775  0.1902 -0.3589
19110TIP3    H278746   2.214   2.835  11.379 -0.0809 -0.2578 -2.1678
19111TIP3   OH278747   3.032   0.495   1.531 -0.2243  0.5237  0.4345
19111TIP3    H178748   3.087   0.552   1.585  0.1015  0.7889 -0.1652
19111TIP3    H278749   2.997   0.554   1.464  1.5596 -0.3343 -1.2869
19112TIP3   OH278750   1.606   1.178   4.345  0.6611 -0.4978  0.4973
19112TIP3    H178751   1.566   1.092   4.335  0.7871 -0.3827 -1.0849
19112TIP3    H278752   1.567   1.231   4.275  1.3270  0.4557  0.8328
19113TIP3   OH278753   0.120   5.261   1.371  0.1197 -0.0487  0.1991
19113TIP3    H178754   0.181   5.332   1.390  0.7778 -0.4123 -0.5546
19113TIP3    H278755   0.056   5.301   1.311  0.9184 -0.2893 -0.8297
19114TIP3   OH278756   0.454   0.277   3.668  0.3488  0.3197  0.0098
19114TIP3    H178757   0.506   0.293   3.590 -0.5946  0.2749 -0.6366
19114TIP3    H278758   0.438   0.183   3.669  1.0820  0.1975  0.7242
19115TIP3   OH278759   4.043   3.906  15.386  0.4573  0.3035 -1.3162
19115TIP3    H178760   4.108   3.911  15.316 -1.1649 -0.1626 -2.8645
19115TIP3    H278761   3.960   3.926  15.344 -0.5418 -0.0182  0.4641
19116TIP3   OH278762   3.447   2.817  12.606 -0.7133 -0.4838 -0.0391
19116TIP3    H178763   3.524   2.858  12.566 -1.4511 -0.3398 -1.3634
19116TIP3    H278764   3.434   2.865  12.687  0.0710  0.0802 -0.2388
19117TIP3   OH278765   0.220   2.143   6.151  0.5225  0.1210 -0.3104
19117TIP3    H178766   0.135   2.114   6.183 -0.1468  1.3424 -0.9629
19117TIP3    H278767   0.223   2.236   6.171  1.0786  0.4027 -1.6601
19118TIP3   OH278768   5.381   6.451   3.684 -0.0014 -0.0071  0.4201
19118TIP3    H178769   5.476   6.458   3.686  0.0245 -0.4800  1.0712
19118TIP3    H278770   5.353   6.513   3.618  0.8203 -0.4535 -0.3463
19119TIP3   OH278771   2.052   3.227   1.468 -0.2512 -0.3852  0.7894
19119TIP3    H178772   2.020   3.141   1.440 -0.2541 -0.8155  2.0903
19119TIP3    H278773   2.145   3.213   1.486  0.0567  0.2097 -0.2709
19120TIP3   OH278774   5.346   2.022  11.120  0.2552  0.4956 -0.0469
19120TIP3    H178775   5.395   2.097  11.087  1.4424 -0.0222  0.5096
19120TIP3    H278776   5.413   1.956  11.138 -0.7187 -0.4795  0.0453
19121TIP3   OH278777   2.111   1.620   2.324  0.2646 -0.2068  0.0790
19121TIP3    H178778   2.096   1.526   2.315 -2.2232 -0.0508  2.0984
19121TIP3    H278779   2.084   1.657   2.239 -3.5915 -0.8490  0.9110
19122TIP3   OH278780   3.902   4.151  12.937 -0.3462  0.3901  0.2305
19122TIP3    H178781   3.903   4.057  12.922 -1.0226  0.3967  0.1105
19122TIP3    H278782   3.809   4.173  12.946 -0.2737  1.2139 -0.8897
19123TIP3   OH278783   1.543   0.007   5.468 -0.6411 -0.1484 -0.3454
19123TIP3    H178784   1.547   0.061   5.547 -1.8142  0.4661 -0.6941
19123TIP3    H278785   1.605  -0.064   5.484  0.2496  0.7991  0.4998
19124TIP3   OH278786   6.527   6.316  13.128 -0.0354 -0.2768 -0.5322
19124TIP3    H178787   6.606   6.263  13.114 -0.5260 -1.4395  0.9577
19124TIP3    H278788   6.552   6.381  13.193  0.1293  0.3874 -1.2429
19125TIP3   OH278789   4.678   3.729  12.280  0.2130  0.8334  0.4711
19125TIP3    H178790   4.647   3.707  12.193 -0.9071  0.4207  0.9638
19125TIP3    H278791   4.774   3.723  12.275  0.0409 -1.6206 -0.0681
19126TIP3   OH278792   1.548   3.408  11.082  0.6286 -0.2905  0.4863
19126TIP3    H178793   1.563   3.323  11.040 -1.9426 -0.0693 -0.9584
19126TIP3    H278794   1.634   3.451  11.081  1.8072 -2.5875  0.6214
19127TIP3   OH278795   4.615   4.324   5.874 -0.2055  0.6547  0.0244
19127TIP3    H178796   4.571   4.321   5.789 -0.5572 -0.7998  0.2319
19127TIP3    H278797   4.560   4.381   5.928 -2.1448 -1.4977  0.4185
19128TIP3   OH278798   0.964   2.326   1.185 -0.2765 -0.4289 -0.2106
19128TIP3    H178799   0.871   2.339   1.205 -0.7884 -0.9684 -2.1421
19128TIP3    H278800   0.984   2.241   1.224 -0.7805 -0.6367 -0.3932
19129TIP3   OH278801   4.854   0.388   5.192 -0.2680  0.7818  0.0540
19129TIP3    H178802   4.804   0.348   5.121 -1.9788  2.3671  0.3173
19129TIP3    H278803   4.944   0.358   5.178 -0.9651 -0.7106 -1.4629
19130TIP3   OH278804   6.020   6.270   2.370 -0.1388 -0.0878  0.7563
19130TIP3    H178805   5.989   6.226   2.291  0.6580  0.7670 -0.0472
19130TIP3    H278806   5.940   6.304   2.410 -0.8320 -2.8433  1.7744
19131TIP3   OH278807   3.251   2.199  11.440  0.6235 -0.0389  0.3154
19131TIP3    H178808   3.209   2.275  11.481 -0.6127 -0.1269 -0.7950
19131TIP3    H278809   3.252   2.132  11.509 -0.2266  0.2599  0.6172
19132TIP3   OH278810   4.881   2.508   5.175  0.0496 -0.0830 -0.4497
19132TIP3    H178811   4.807   2.483   5.231 -0.5459  0.1724 -1.1164
19132TIP3    H278812   4.957   2.467   5.216 -0.5802 -1.0130 -0.2026
19133TIP3   OH278813   3.226   2.529   2.731  0.3097  0.8297  0.8959
19133TIP3    H178814   3.273   2.453   2.698  0.2333  1.2353 -0.1707
19133TIP3    H278815   3.272   2.604   2.693 -0.6413  1.2604  0.5866
19134TIP3   OH278816   4.579   2.638  12.302  0.1137  0.1845  0.0786
19134TIP3    H178817   4.583   2.706  12.235 -1.1511 -1.3794 -1.6530
19134TIP3    H278818   4.576   2.556  12.253 -0.1273 -1.0416  2.0748
19135TIP3   OH278819   4.618   0.221   5.980 -0.5908 -0.1926  0.1304
19135TIP3    H178820   4.611   0.302   6.030 -2.2141 -1.3978  1.9207
19135TIP3    H278821   4.527   0.195   5.964 -0.0912 -1.6802 -0.3729
19136TIP3   OH278822   2.515   3.097  11.119 -0.0655  0.5103 -0.2872
19136TIP3    H178823   2.580   3.036  11.086 -0.5851  0.1847 -0.7181
19136TIP3    H278824   2.431   3.052  11.109 -0.1828  0.0814  2.2068
19137TIP3   OH278825   2.054   5.557   6.313  0.2796 -0.4813 -0.0037
19137TIP3    H178826   2.056   5.571   6.408 -2.7909 -2.2804  0.4034
19137TIP3    H278827   2.146   5.558   6.287  1.0665  3.2904  2.4339
19138TIP3   OH278828   6.074   2.208  14.262 -0.6217 -0.0256  0.4203
19138TIP3    H178829   6.059   2.138  14.326 -1.0101 -2.0235 -1.7724
19138TIP3    H278830   5.998   2.204  14.204  0.4731  0.6905 -1.0996
19139TIP3   OH278831   1.457   4.923   2.098  0.0742  0.2305 -0.5398
19139TIP3    H178832   1.548   4.893   2.093 -0.1444 -1.1506  2.6296
19139TIP3    H278833   1.460   4.998   2.158 -0.6396  1.3371 -1.8550
19140TIP3   OH278834   4.145   4.864  14.535  0.2565  0.3559  0.7314
19140TIP3    H178835   4.216   4.907  14.582  0.3908 -1.0070  1.7905
19140TIP3    H278836   4.121   4.926  14.466  2.4051  0.8684  0.4113
19141TIP3   OH278837   3.404   5.383  16.324 -0.2694 -0.1106  0.5895
19141TIP3    H178838   3.341   5.455  16.329  0.4376  0.4744  1.0084
19141TIP3    H278839   3.486   5.420  16.355 -0.1037 -1.3279  1.6704
19142TIP3   OH278840   5.785   5.020   1.123 -0.3739 -0.2507 -0.1211
19142TIP3    H178841   5.869   4.980   1.146 -0.4155 -0.4934 -0.3939
19142TIP3    H278842   5.724   4.989   1.189 -0.0404  0.6870  0.6412
19143TIP3   OH278843   4.530   3.090  14.488  0.3819 -0.3330 -0.3425
19143TIP3    H178844   4.481   3.008  14.489  1.1513 -0.7975 -0.5193
19143TIP3    H278845   4.601   3.075  14.426 -0.8697  1.2965 -2.1976
19144TIP3   OH278846   0.722   2.062   6.359 -0.2765  0.0170 -0.1444
19144TIP3    H178847   0.700   1.972   6.336 -1.6955 -0.1643  1.7900
19144TIP3    H278848   0.663   2.116   6.307 -1.3440 -0.2846  0.7348
19145TIP3   OH278849   0.282   5.961   2.483 -0.1562 -0.1932 -0.5894
19145TIP3    H178850   0.334   5.888   2.516  1.2626  0.2841 -1.7091
19145TIP3    H278851   0.213   5.973   2.549 -0.1597 -2.2466 -0.1840
19146TIP3   OH278852   1.982   5.246  13.169  0.2656  0.1967  0.7239
19146TIP3    H178853   2.070   5.254  13.134  0.1278  1.0209  0.5390
19146TIP3    H278854   1.964   5.332  13.208 -0.5369  0.1082  0.5533
19147TIP3   OH278855   0.144   4.388  15.868  0.1819 -0.0472 -0.0438
19147TIP3    H178856   0.103   4.301  15.868  1.1135 -0.4956  0.1083
19147TIP3    H278857   0.228   4.375  15.913  0.8271  0.6932 -1.0099
19148TIP3   OH278858   3.393   1.481   3.241 -0.3953  0.2881  0.3672
19148TIP3    H178859   3.325   1.421   3.210 -0.1602 -0.7904  1.8671
19148TIP3    H278860   3.443   1.429   3.305 -0.2565  2.1221  1.7869
19149TIP3   OH278861   1.260   5.824   6.531  0.3197  0.9500  0.3352
19149TIP3    H178862   1.190   5.886   6.509 -0.5448  0.2136  0.9282
19149TIP3    H278863   1.219   5.738   6.521  1.7294  0.4392 -1.2575
19150TIP3   OH278864   3.328   0.459   1.690  0.6143  0.2782  0.8892
19150TIP3    H178865   3.420   0.484   1.686  0.8470 -0.5361  1.0553
19150TIP3    H278866   3.319   0.389   1.625 -0.1661  1.2105 -0.0297
19151TIP3   OH278867   0.582   1.051  14.225  0.0354 -0.0045 -0.7072
19151TIP3    H178868   0.519   1.097  14.170  1.6259  0.6719 -2.0029
19151TIP3    H278869   0.599   1.112  14.298 -2.0626 -0.8994  0.5864
19152TIP3   OH278870   6.354   6.294  16.954  0.1115  0.1798 -0.0365
19152TIP3    H178871   6.320   6.223  16.900 -0.6474 -0.9557  1.8951
19152TIP3    H278872   6.276   6.331  16.997  0.8157  0.3863  1.0921
19153TIP3   OH278873   2.423   2.095   5.593 -0.1133 -0.3198 -0.2830
19153TIP3    H178874   2.482   2.020   5.587  1.6710  0.8015  2.1259
19153TIP3    H278875   2.481   2.170   5.603 -1.9259  1.0865 -0.0535
19154TIP3   OH278876   5.148   4.190  16.103  0.3325 -0.1200 -0.3568
19154TIP3    H178877   5.242   4.182  16.119  0.1627 -0.4102  0.4987
19154TIP3    H278878   5.138   4.171  16.009  1.2498  0.9867 -0.6854
19155TIP3   OH278879   3.934   2.413  14.775 -0.0568 -0.3738 -0.2872
19155TIP3    H178880   3.865   2.450  14.829 -1.3825 -4.0265  0.6949
19155TIP3    H278881   3.899   2.329  14.746  4.4842 -3.1719  1.6342
19156TIP3   OH278882   5.059   1.919  15.777 -0.2561 -0.2210  0.0256
19156TIP3    H178883   4.991   1.862  15.742 -1.2365  1.2708 -0.5233
19156TIP3    H278884   5.099   1.959  15.700 -0.3998  0.7726  0.4703
19157TIP3   OH278885   1.219   2.937   5.141  0.1521  0.1396 -0.6760
19157TIP3    H178886   1.144   2.951   5.084 -0.7061  0.0147  0.3993
19157TIP3    H278887   1.187   2.878   5.209  1.3287 -0.2066 -0.4002
19158TIP3   OH278888   0.173   1.620   1.396 -0.0832  0.1048  0.2024
19158TIP3    H178889   0.136   1.589   1.479 -1.3446 -0.6460 -0.6267
19158TIP3    H278890   0.234   1.551   1.369 -1.3440 -0.6992 -0.6077
19159TIP3   OH278891   0.268   4.784   2.063 -0.0121  0.0627  0.2648
19159TIP3    H178892   0.293   4.764   1.972  1.6371 -0.5905  0.8377
19159TIP3    H278893   0.318   4.862   2.084  0.3458 -0.3415  0.9208
19160TIP3   OH278894   2.325   3.398  12.284 -0.5335  0.4409 -0.1091
19160TIP3    H178895   2.267   3.360  12.218  0.7623 -2.3334  0.2371
19160TIP3    H278896   2.269   3.414  12.360 -0.9661 -1.7551  0.0646
19161TIP3   OH278897   2.885   1.262  11.737  0.0818  0.3613 -0.2429
19161TIP3    H178898   2.923   1.346  11.761  3.1237 -0.4655 -1.9211
19161TIP3    H278899   2.938   1.197  11.783 -0.4445 -0.7438 -1.1642
19162TIP3   OH278900   4.106   3.391   1.914  0.1671  0.0159  0.2220
19162TIP3    H178901   4.018   3.355   1.907 -0.3030  1.5431 -2.7372
19162TIP3    H278902   4.093   3.484   1.934  1.0318  0.4683 -1.2096
19163TIP3   OH278903   3.585   1.781   4.892 -0.0479 -0.1337  0.2993
19163TIP3    H178904   3.554   1.694   4.865 -1.0406  0.3582 -0.1799
19163TIP3    H278905   3.645   1.764   4.964 -1.7480 -1.1156  1.5148
19164TIP3   OH278906   6.729   2.093   5.577  0.0396  0.0215  0.6223
19164TIP3    H178907   6.665   2.046   5.522  0.8852 -1.2253  0.7045
19164TIP3    H278908   6.813   2.052   5.556  0.3921 -0.3597  2.7558
19165TIP3   OH278909   1.536   0.176  11.070 -0.3875  0.2740 -1.1255
19165TIP3    H178910   1.463   0.153  11.129 -1.4283  0.4698 -2.3137
19165TIP3    H278911   1.500   0.167  10.982  1.4317 -0.8599 -1.7675
19166TIP3   OH278912   1.110   3.964   1.402  0.3068  0.1070  0.1512
19166TIP3    H178913   1.029   3.922   1.373 -0.3684  0.8456  0.9710
19166TIP3    H278914   1.179   3.917   1.354 -0.7056  0.5084 -1.7467
19167TIP3   OH278915   5.161   4.457  14.656  0.0758  0.6875  0.2098
19167TIP3    H178916   5.194   4.387  14.598 -2.1947 -0.7556  0.6236
19167TIP3    H278917   5.126   4.411  14.732 -1.5004  2.2715  0.4682
19168TIP3   OH278918   0.751   1.210   0.060  0.3403  0.1193  0.2750
19168TIP3    H178919   0.725   1.173   0.145 -3.8430 -1.4027 -1.5513
19168TIP3    H278920   0.708   1.295   0.057  1.8952  0.9184  0.3592
19169TIP3   OH278921   0.295   4.814  10.208  0.1431  0.5032 -0.0271
19169TIP3    H178922   0.256   4.884  10.261 -0.1075 -0.0246  0.4987
19169TIP3    H278923   0.230   4.744  10.209  1.1685 -0.4670  1.0251
19170TIP3   OH278924   5.588   5.213   5.074  0.0952 -0.0555  0.2885
19170TIP3    H178925   5.674   5.256   5.075  1.4065 -2.6196  1.0947
19170TIP3    H278926   5.537   5.259   5.141  0.9726  1.1917  0.1178
19171TIP3   OH278927   4.397   4.196   0.257 -0.2996 -0.7088  0.3048
19171TIP3    H178928   4.483   4.236   0.247 -0.8976  0.5477  0.0135
19171TIP3    H278929   4.414   4.111   0.298  1.0625 -0.4362  0.3262
19172TIP3   OH278930   3.059   4.821  13.303 -0.3041 -0.9552 -0.2797
19172TIP3    H178931   3.120   4.845  13.373 -2.6666  0.2249  1.4360
19172TIP3    H278932   3.097   4.859  13.224  1.8438 -1.3805  0.5013
19173TIP3   OH278933   1.994   4.908  14.773  0.1682 -0.4268 -0.2012
19173TIP3    H178934   1.902   4.890  14.752 -0.5990  1.4737  1.3694
19173TIP3    H278935   2.040   4.827  14.750 -1.8516 -1.3282 -1.2349
19174TIP3   OH278936   0.379   6.237  14.178  0.1713  0.0320 -0.4021
19174TIP3    H178937   0.391   6.142  14.186  1.1468 -0.2322 -4.3001
19174TIP3    H278938   0.289   6.247  14.146  0.8855  0.2565 -2.3846
19175TIP3   OH278939   4.553   5.361   1.300  0.0544 -0.0555 -0.2887
19175TIP3    H178940   4.595   5.317   1.374  1.4594  2.4445  0.4794
19175TIP3    H278941   4.477   5.404   1.338  0.4071  0.6824 -0.4026
19176TIP3   OH278942   1.706   4.485   0.495  0.2487  0.2723 -0.0472
19176TIP3    H178943   1.638   4.474   0.561  1.0143 -0.6911  0.6010
19176TIP3    H278944   1.692   4.573   0.459 -1.0427  0.2456  0.3978
19177TIP3   OH278945   0.213   0.423  12.371 -0.0830 -0.0290 -0.0027
19177TIP3    H178946   0.237   0.428  12.464 -2.0877 -1.6104  0.6548
19177TIP3    H278947   0.142   0.487  12.362 -0.2357 -0.2400 -0.3027
19178TIP3   OH278948   1.988   4.076   1.737 -0.6639  0.3005 -0.7902
19178TIP3    H178949   2.008   3.997   1.787 -1.2801 -0.6474 -2.0142
19178TIP3    H278950   2.073   4.119   1.727 -0.3267 -0.1750 -0.0661
19179TIP3   OH278951   0.893   1.621  12.165  0.3116 -0.4527 -0.1758
19179TIP3    H178952   0.942   1.634  12.084  1.0300 -2.2239 -0.0464
19179TIP3    H278953   0.805   1.651  12.144  1.0620  1.3145 -0.8871
19180TIP3   OH278954   0.888   1.489   6.072  0.3381  0.8630 -0.1722
19180TIP3    H178955   0.815   1.430   6.093  0.1489  0.9792 -0.5033
19180TIP3    H278956   0.936   1.444   6.002  1.4811  0.0585  1.1027
19181TIP3   OH278957   3.053   1.810  14.796 -0.0394  0.3557 -0.0435
19181TIP3    H178958   3.087   1.833  14.709  1.6979  2.2229  1.0819
19181TIP3    H278959   2.964   1.846  14.796  0.5266  1.8260 -0.4953
19182TIP3   OH278960   6.118   5.384   0.461  0.4162  0.5036 -0.1391
19182TIP3    H178961   6.107   5.307   0.517 -1.8849 -0.1560 -1.4013
19182TIP3    H278962   6.209   5.409   0.471  0.7381 -1.3126  1.6950
19183TIP3   OH278963   2.219   6.755   2.163  0.0131 -0.2048 -0.3384
19183TIP3    H178964   2.194   6.842   2.193 -0.6781 -0.1893 -0.9199
19183TIP3    H278965   2.195   6.696   2.235 -0.8981 -0.0815 -0.5318
19184TIP3   OH278966   5.599   4.394   3.364  0.0553 -1.2565  0.1430
19184TIP3    H178967   5.557   4.315   3.331 -0.0311 -1.1424 -0.0215
19184TIP3    H278968   5.680   4.363   3.405 -1.2825 -1.7445  2.4880
19185TIP3   OH278969   4.060   1.316   2.112  0.3319  0.1986 -0.4666
19185TIP3    H178970   3.967   1.335   2.108  0.6575  2.4296  1.3015
19185TIP3    H278971   4.074   1.286   2.202  1.7332  2.3776  0.0689
19186TIP3   OH278972   0.958   6.510  16.851 -0.4106 -0.1614  0.3692
19186TIP3    H178973   1.015   6.442  16.815 -1.0764  0.1296 -1.2477
19186TIP3    H278974   1.013   6.588  16.851  0.4509 -0.7342  2.5016
19187TIP3   OH278975   5.288   5.238   5.453  0.0032  0.1797  0.2453
19187TIP3    H178976   5.378   5.271   5.455  0.8760 -1.6888 -3.4579
19187TIP3    H278977   5.280   5.186   5.533  1.5293  1.9773  1.6252
19188TIP3   OH278978   6.060   6.537   1.849 -0.2347  0.2658 -0.1860
19188TIP3    H178979   6.121   6.500   1.913  1.9342  2.4807 -0.8769
19188TIP3    H278980   6.005   6.596   1.901  0.5447  0.9312 -0.1041
19189TIP3   OH278981   6.527   5.594   0.454  0.1234 -0.7655 -0.4483
19189TIP3    H178982   6.452   5.648   0.479  0.3559 -0.4056 -0.5440
19189TIP3    H278983   6.500   5.505   0.478 -0.1986 -0.5931 -0.1650
19190TIP3   OH278984   2.938   6.498  12.829 -0.2759 -0.0532 -0.3797
19190TIP3    H178985   2.960   6.486  12.737  1.4580  1.2468 -0.1763
19190TIP3    H278986   2.924   6.593  12.837 -2.3087 -0.4007  0.3014
19191TIP3   OH278987   4.787   1.903  17.141  0.1363  0.0213 -0.7364
19191TIP3    H178988   4.797   1.817  17.101 -0.8888 -1.7782  2.6283
19191TIP3    H278989   4.709   1.894  17.196  0.8391  2.6542  0.7503
19192TIP3   OH278990   2.370   5.544  12.176  0.4552  0.4108  0.8373
19192TIP3    H178991   2.392   5.501  12.093  0.9983  0.9591  0.7032
19192TIP3    H278992   2.359   5.471  12.237  1.7342  0.0980  0.6980
19193TIP3   OH278993   2.250   1.875  16.758 -0.2832 -0.0868  0.1247
19193TIP3    H178994   2.240   1.920  16.674  1.7499  0.9875  0.4265
19193TIP3    H278995   2.293   1.792  16.736  2.0277  1.0211  0.2648
19194TIP3   OH278996   0.065   5.984  15.916 -0.7645 -0.0532 -0.4955
19194TIP3    H178997   0.137   5.926  15.892 -2.0948 -1.3154 -1.5778
19194TIP3    H278998  -0.014   5.932  15.899 -1.9034  0.6234  2.3824
19195TIP3   OH278999   5.485   5.275  15.529  0.0027 -0.6318 -0.4243
19195TIP3    H179000   5.398   5.287  15.491 -0.0854 -0.5796 -0.2054
19195TIP3    H279001   5.522   5.363  15.535  0.2236 -0.6897 -0.8739
19196TIP3   OH279002   4.986   4.033  15.055  0.0379  0.0433 -0.3825
19196TIP3    H179003   4.977   4.100  15.123  0.4135  0.7557 -1.0275
19196TIP3    H279004   4.899   4.027  15.015  0.3305  1.0987 -1.1989
19197TIP3   OH279005   0.423   1.121   2.772  0.2349 -0.1176  0.2200
19197TIP3    H179006   0.423   1.076   2.688 -1.2980 -0.8585  0.6098
19197TIP3    H279007   0.497   1.084   2.820  1.9242  1.2438 -1.2816
19198TIP3   OH279008   5.157   2.891  16.040  0.0770 -0.2371  0.3168
19198TIP3    H179009   5.108   2.972  16.056  0.7172  0.3128 -0.4293
19198TIP3    H279010   5.185   2.862  16.127 -0.7018 -0.0066  0.6475
19199TIP3   OH279011   6.206   4.851  16.240  0.4117 -0.6414  0.5397
19199TIP3    H179012   6.248   4.812  16.317 -0.0445 -0.3158  0.9583
19199TIP3    H279013   6.146   4.917  16.276  2.0072  1.2625 -0.1798
19200TIP3   OH279014   0.803   5.659   0.962 -0.0578  0.1430  0.2950
19200TIP3    H179015   0.870   5.603   0.921 -0.5709  0.1095 -0.5296
19200TIP3    H279016   0.725   5.603   0.965 -0.0864  0.2303  1.1128
19201TIP3   OH279017   2.301   3.389  14.876 -0.0194  0.7244 -0.1355
19201TIP3    H179018   2.340   3.458  14.930 -0.2993  0.5888  0.2447
19201TIP3    H279019   2.209   3.387  14.903  0.1581 -0.3621  0.4636
19202TIP3   OH279020   3.291   4.386  15.230 -0.6520  0.6721  0.4255
19202TIP3    H179021   3.248   4.392  15.145  0.5336 -1.4567 -0.3472
19202TIP3    H279022   3.243   4.318  15.277  3.8297 -4.2725 -1.7279
19203TIP3   OH279023   4.853   1.826  15.610  0.2726  0.5351  0.2179
19203TIP3    H179024   4.788   1.758  15.627 -0.8449  1.1395 -1.5586
19203TIP3    H279025   4.807   1.892  15.558  2.6764  0.2899 -2.3102
19204TIP3   OH279026   2.032   2.944  12.481 -0.1460  0.2928 -0.3807
19204TIP3    H179027   2.086   2.870  12.453 -1.1169 -1.1594  1.4341
19204TIP3    H279028   1.977   2.964  12.405  1.8113  0.7360 -1.6944
19205TIP3   OH279029   4.494   1.584   5.255 -0.1263  0.3161 -0.2504
19205TIP3    H179030   4.493   1.590   5.160 -2.6453  0.4854 -0.2560
19205TIP3    H279031   4.585   1.566   5.277  1.3519  4.4542 -2.4016
19206TIP3   OH279032   3.667   0.039  10.617 -0.2580 -0.5027  0.3300
19206TIP3    H179033   3.731   0.109  10.612 -0.1247 -0.5836  0.9201
19206TIP3    H279034   3.602   0.069  10.680 -1.3670  0.0326 -1.0318
19207TIP3   OH279035   5.536   5.562   0.657 -0.0200 -0.1273 -0.4626
19207TIP3    H179036   5.505   5.485   0.607  0.4529 -1.2157  0.8979
19207TIP3    H279037   5.458   5.617   0.666 -0.1356  0.0638 -2.3298
19208TIP3   OH279038   0.677   5.575   3.423  0.1820  0.0879  0.1710
19208TIP3    H179039   0.655   5.667   3.434  0.9984  0.1639  1.2416
19208TIP3    H279040   0.601   5.528   3.458 -0.4733  0.3338 -0.8760
19209TIP3   OH279041   0.217   4.658  10.451  0.1250 -0.0040  0.8250
19209TIP3    H179042   0.263   4.580  10.420  0.9354  1.3120 -1.3949
19209TIP3    H279043   0.140   4.664  10.395 -0.0250  0.6898  1.1078
19210TIP3   OH279044   1.547   5.015   5.716 -0.3768 -0.0626  0.7322
19210TIP3    H179045   1.596   4.933   5.717 -0.7718 -0.3070  0.4346
19210TIP3    H279046   1.581   5.064   5.791  2.9683  1.3498 -1.6134
19211TIP3   OH279047   5.730   5.772  12.148 -0.6840 -0.1041 -0.6516
19211TIP3    H179048   5.731   5.705  12.216 -0.4900  1.1624  0.6138
19211TIP3    H279049   5.637   5.794  12.137 -0.5756  1.1190  0.6663
19212TIP3   OH279050   1.375   3.384   3.445  0.2386 -1.1464  0.6597
19212TIP3    H179051   1.439   3.399   3.515  0.4845  1.4777 -0.0960
19212TIP3    H279052   1.425   3.395   3.364 -0.8208 -0.6756  0.0588
19213TIP3   OH279053   0.162   0.829  12.054 -0.0744 -0.6910 -0.4091
19213TIP3    H179054   0.151   0.770  12.129  0.3920 -0.5274 -0.2106
19213TIP3    H279055   0.230   0.788  12.001 -0.3759 -0.7856 -0.7222
19214TIP3   OH279056   5.144   5.847  13.957 -0.1947 -0.6374 -0.0473
19214TIP3    H179057   5.231   5.824  13.987 -1.0481 -0.4574  2.7301
19214TIP3    H279058   5.140   5.816  13.866  3.7387  1.9949 -1.2353
19215TIP3   OH279059   2.109   4.100   3.973 -0.0009  0.0777  0.2693
19215TIP3    H179060   2.043   4.079   4.039  0.5414 -0.9031  0.4993
19215TIP3    H279061   2.192   4.080   4.014  0.3565 -0.3655 -0.6536
19216TIP3   OH279062   4.465   2.917   3.994 -0.3286 -0.1557 -0.0439
19216TIP3    H179063   4.384   2.940   4.039 -0.6782 -0.6281 -0.4273
19216TIP3    H279064   4.511   3.000   3.983 -0.1739 -0.0595  1.3155
19217TIP3   OH279065   0.592   2.326  16.623  0.1924 -0.2113  0.1876
19217TIP3    H179066   0.534   2.378  16.679 -1.8904 -2.2464  0.0086
19217TIP3    H279067   0.595   2.372  16.540 -2.2854 -0.7691 -0.2362
19218TIP3   OH279068   2.835   3.455   1.454 -0.0487 -0.1002 -0.3305
19218TIP3    H179069   2.818   3.383   1.392 -1.6371  1.1239 -1.3482
19218TIP3    H279070   2.761   3.452   1.515  0.2058  0.2912  0.0038
19219TIP3   OH279071   5.133   2.122   4.227 -0.0016 -0.3763  0.0525
19219TIP3    H179072   5.110   2.143   4.317  1.1335  2.2086 -0.2118
19219TIP3    H279073   5.084   2.184   4.174 -0.8230 -2.0110 -1.1531
19220TIP3   OH279074   0.257   2.409  14.520 -0.0276 -0.2201  0.4623
19220TIP3    H179075   0.179   2.427  14.468  1.0008 -0.0003 -1.0286
19220TIP3    H279076   0.254   2.473  14.591 -0.7056  0.4187 -0.1308
19221TIP3   OH279077   5.518   3.391   3.592  0.4351  0.2489 -0.2590
19221TIP3    H179078   5.594   3.444   3.568  0.2101  1.5712  1.8969
19221TIP3    H279079   5.465   3.389   3.512  0.9200  2.4600 -0.6743
19222TIP3   OH279080   3.052   3.219   1.397  0.0513 -0.3226  0.5875
19222TIP3    H179081   3.025   3.133   1.363 -0.7238 -0.0203  0.4436
19222TIP3    H279082   3.113   3.198   1.468  0.3533 -0.9862  0.1397
19223TIP3   OH279083   0.529   1.940  11.723 -0.0760 -0.3961  0.5350
19223TIP3    H179084   0.440   1.936  11.757  0.6949 -2.1853  2.4096
19223TIP3    H279085   0.550   1.849  11.700  0.1514  0.4449 -2.9382
19224TIP3   OH279086   2.576   1.724   5.772 -0.1896  0.2078 -0.3141
19224TIP3    H179087   2.597   1.713   5.865  1.7025 -0.3348 -0.7797
19224TIP3    H279088   2.521   1.649   5.750  1.3615 -0.9932 -0.1887
19225TIP3   OH279089   3.534   1.291   1.569  0.1836 -0.0472  0.3020
19225TIP3    H179090   3.471   1.362   1.581 -0.4441 -0.4144 -0.7623
19225TIP3    H279091   3.552   1.260   1.658 -0.4742  0.6217  0.6777
19226TIP3   OH279092   2.605   3.528  14.196 -0.2459 -0.6364 -0.9101
19226TIP3    H179093   2.582   3.468  14.126  1.7736 -1.0567 -1.2570
19226TIP3    H279094   2.637   3.606  14.152 -1.6596  0.2105 -0.4555
19227TIP3   OH279095   6.477   1.018   5.467  0.0180 -0.3543  0.1101
19227TIP3    H179096   6.427   0.949   5.424 -1.0722  1.0210 -0.8766
19227TIP3    H279097   6.513   0.977   5.546 -3.2412 -1.1897  1.2368
19228TIP3   OH279098   0.807   5.425   4.210  0.6857 -0.1285  0.3857
19228TIP3    H179099   0.847   5.507   4.240 -2.2760  1.8225 -0.7094
19228TIP3    H279100   0.712   5.441   4.217  0.0344 -3.3406 -0.2226
19229TIP3   OH279101   4.327   3.364  16.907 -0.4954  0.5403  0.0762
19229TIP3    H179102   4.356   3.283  16.866  1.9988  0.3106  2.2206
19229TIP3    H279103   4.301   3.420  16.833 -3.7254 -2.6640 -1.3721
19230TIP3   OH279104   2.440   6.133  14.074  0.2256 -0.3657 -0.2014
19230TIP3    H179105   2.473   6.049  14.042  1.3244  0.3859 -1.0897
19230TIP3    H279106   2.436   6.122  14.169 -1.1956 -1.9599 -0.4308
19231TIP3   OH279107   4.113   1.356   0.323  0.1611  0.4842 -0.0228
19231TIP3    H179108   4.193   1.331   0.369  0.8743  1.4868 -0.6916
19231TIP3    H279109   4.064   1.408   0.387  0.7795  1.2028 -0.1228
19232TIP3   OH279110   4.851   0.519  15.098  0.1642  0.5034  0.3340
19232TIP3    H179111   4.930   0.498  15.047  1.3590  0.3141  2.2081
19232TIP3    H279112   4.785   0.459  15.065  1.4983 -1.0620  0.4424
19233TIP3   OH279113   6.719   3.286  17.072 -0.3034 -0.0455  0.0398
19233TIP3    H179114   6.694   3.307  16.982 -0.2692  2.1268  0.5138
19233TIP3    H279115   6.645   3.315  17.125 -0.1179 -0.8759  0.7744
19234TIP3   OH279116   2.639   4.528   2.158  0.3799 -0.8794 -0.7548
19234TIP3    H179117   2.589   4.475   2.220  0.0123  0.8897  0.4889
19234TIP3    H279118   2.618   4.618   2.181  2.7079 -0.1292 -1.3963
19235TIP3   OH279119   1.098   3.687   3.254 -0.2835  0.5241  0.0213
19235TIP3    H179120   1.138   3.625   3.315  0.8085  2.0851  0.9475
19235TIP3    H279121   1.007   3.693   3.280 -0.2806 -0.3101  0.2295
19236TIP3   OH279122   6.569   1.350   0.709  0.1355  0.0714  0.0656
19236TIP3    H179123   6.536   1.424   0.657 -0.0500  0.5495  0.8549
19236TIP3    H279124   6.615   1.391   0.782  1.5962 -0.5996 -0.4687
19237TIP3   OH279125   6.229   5.914   4.394 -0.0392  0.0635 -0.1718
19237TIP3    H179126   6.140   5.903   4.360  0.3108 -0.7826 -0.8261
19237TIP3    H279127   6.285   5.869   4.331  0.9538  1.3675 -0.2537
19238TIP3   OH279128   0.450   6.295   1.731 -0.4608 -0.0382 -0.2065
19238TIP3    H179129   0.440   6.216   1.677 -0.4931  0.3554 -0.7704
19238TIP3    H279130   0.544   6.306   1.739 -0.4491 -0.5749  0.5222
19239TIP3   OH279131   2.767   4.728   1.205  0.2666 -0.5727 -0.2019
19239TIP3    H179132   2.841   4.668   1.214  0.2963 -0.6021 -0.6296
19239TIP3    H279133   2.719   4.696   1.129  0.4244  0.0986 -0.5904
19240TIP3   OH279134   5.337   0.342  12.098  0.3972  0.6542  0.1723
19240TIP3    H179135   5.332   0.437  12.111  2.0849  0.5821  1.4310
19240TIP3    H279136   5.350   0.332  12.003 -2.4895  1.5405 -0.3909
19241TIP3   OH279137   6.004   2.720  13.991 -0.6506 -0.1247 -0.5287
19241TIP3    H179138   6.059   2.786  13.948  0.5887 -0.2736  0.7897
19241TIP3    H279139   6.044   2.709  14.078 -0.7820 -2.6818 -0.7632
19242TIP3   OH279140   4.886   2.478  16.914  0.6004 -0.1011 -0.4771
19242TIP3    H179141   4.841   2.562  16.924  0.4658 -0.0393 -1.5976
19242TIP3    H279142   4.958   2.482  16.977 -1.3071 -0.4503  1.7883
19243TIP3   OH279143   4.982   0.571   1.604 -0.1524 -0.2282  0.8159
19243TIP3    H179144   4.967   0.483   1.639 -0.4650  0.5985  2.8780
19243TIP3    H279145   5.061   0.601   1.648  0.8380 -0.0494 -1.0494
19244TIP3   OH279146   1.414   3.519   6.490  0.2431 -0.2083 -0.4987
19244TIP3    H179147   1.326   3.499   6.458 -0.2430 -1.0207  1.2772
19244TIP3    H279148   1.451   3.434   6.513  0.0158  0.4390  2.4564
19245TIP3   OH279149   3.586   4.683   3.645 -0.3415  0.1228 -0.6391
19245TIP3    H179150   3.656   4.661   3.583 -0.6827 -0.9659 -0.6603
19245TIP3    H279151   3.505   4.663   3.597 -0.5966 -1.6221  0.4601
19246TIP3   OH279152   5.524   3.730  12.708 -0.0312 -0.2151 -0.0382
19246TIP3    H179153   5.602   3.704  12.659 -0.3774 -0.8092 -0.2783
19246TIP3    H279154   5.470   3.650  12.712  0.1307 -0.2641  1.5655
19247TIP3   OH279155   2.857   1.417   1.973 -0.2591  0.2065 -0.2025
19247TIP3    H179156   2.894   1.433   2.060 -1.0290 -1.1227  0.3821
19247TIP3    H279157   2.870   1.323   1.958 -2.2591 -0.0344 -0.5161
19248TIP3   OH279158   6.152   2.514  13.339 -0.1164  0.0233  0.0691
19248TIP3    H179159   6.236   2.554  13.359 -0.0315 -0.9506  1.7653
19248TIP3    H279160   6.092   2.588  13.327  0.2514  0.6763  2.1471
19249TIP3   OH279161   5.351   3.434   4.774  0.2652 -0.1274 -0.0355
19249TIP3    H179162   5.428   3.386   4.743  1.4650  1.7220  0.0181
19249TIP3    H279163   5.287   3.365   4.796  2.2725 -1.7388  0.9206
19250TIP3   OH279164   2.325   0.978  14.736  0.3285  0.1680  0.0836
19250TIP3    H179165   2.275   0.898  14.754  0.6062 -0.2753 -1.0370
19250TIP3    H279166   2.409   0.963  14.780  0.2520 -0.0181  0.1687
19251TIP3   OH279167   3.289   3.939  16.413 -0.5054  0.0643  0.0915
19251TIP3    H179168   3.318   4.030  16.424  1.2992 -0.0999 -2.7530
19251TIP3    H279169   3.338   3.890  16.478  4.4141  0.0783 -3.3785
19252TIP3   OH279170   4.462   0.925   4.921 -0.5039 -0.3799  0.0144
19252TIP3    H179171   4.416   0.937   4.839 -0.5525 -1.3464 -0.1086
19252TIP3    H279172   4.481   0.831   4.925 -1.1996 -0.4795  1.4750
19253TIP3   OH279173   4.266   4.532   1.993  0.0911 -0.2625 -0.4681
19253TIP3    H179174   4.325   4.463   1.962  0.4386 -0.2429  0.1478
19253TIP3    H279175   4.221   4.494   2.068  2.1132  0.9956  1.4666
19254TIP3   OH279176   5.139   3.577   5.328  0.0037  0.1634 -0.0430
19254TIP3    H179177   5.090   3.496   5.319 -1.1384  1.0954 -2.9078
19254TIP3    H279178   5.072   3.643   5.347  0.4730  1.0219 -1.3394
19255TIP3   OH279179   1.741   3.200   0.990  0.0343 -0.3634 -0.4480
19255TIP3    H179180   1.726   3.294   0.992 -1.3563 -0.5846 -0.5092
19255TIP3    H279181   1.801   3.187   0.916 -0.3175  0.3830 -0.8661
19256TIP3   OH279182   5.998   2.107   4.011 -0.1873  0.2242 -0.1253
19256TIP3    H179183   6.011   2.201   3.997  0.1599  0.1158 -0.5418
19256TIP3    H279184   6.009   2.068   3.924  1.9940 -0.4777  0.4415
19257TIP3   OH279185   5.158   2.410   3.926 -0.0739  0.1238  0.1572
19257TIP3    H179186   5.234   2.417   3.983  0.7970  0.4810 -1.0295
19257TIP3    H279187   5.168   2.482   3.863  0.2455 -1.6317 -1.8760
19258TIP3   OH279188   6.256   0.645   6.026 -0.7321 -0.0377  0.9792
19258TIP3    H179189   6.206   0.579   6.074 -2.2491  0.4264  0.0544
19258TIP3    H279190   6.193   0.684   5.965  1.3525 -1.2512 -2.0544
19259TIP3   OH279191   1.169   2.774   4.759  0.0152  0.4121 -0.6379
19259TIP3    H179192   1.109   2.705   4.786 -0.5589  0.2908 -2.1698
19259TIP3    H279193   1.249   2.728   4.735 -0.5766  0.1952 -2.2608
19260TIP3   OH279194   5.277   6.154  15.043  0.1794 -0.3966 -0.1407
19260TIP3    H179195   5.297   6.245  15.061  1.7782 -1.0913  1.8467
19260TIP3    H279196   5.216   6.129  15.113 -0.6270 -0.7165 -0.9526
19261TIP3   OH279197   6.417   5.181  11.255  0.7940 -0.4279  0.3750
19261TIP3    H179198   6.337   5.213  11.298  0.4620 -0.5361 -0.1515
19261TIP3    H279199   6.398   5.089  11.235  1.2718 -0.6123  0.7654
19262TIP3   OH279200   0.892   1.622   1.639 -0.2309  0.0282  0.1648
19262TIP3    H179201   0.846   1.538   1.650 -0.2070 -0.1186 -0.8259
19262TIP3    H279202   0.853   1.679   1.705 -1.4381 -0.2704 -0.2820
19263TIP3   OH279203   2.710   2.951  15.863 -0.6726  0.4736  0.2570
19263TIP3    H179204   2.711   3.044  15.884  0.0298  0.3678  0.7374
19263TIP3    H279205   2.792   2.917  15.901  0.1798  0.0864 -1.8441
19264TIP3   OH279206   5.523   4.946   4.301 -0.6137  0.4199 -0.1581
19264TIP3    H179207   5.467   4.973   4.228  0.5841  0.3563 -1.1290
19264TIP3    H279208   5.572   5.026   4.324 -0.3452  0.2156 -0.0216
19265TIP3   OH279209   3.931   5.619  15.369  0.3635  0.1122 -0.1336
19265TIP3    H179210   3.991   5.663  15.429  0.7248  0.9138 -1.0853
19265TIP3    H279211   3.952   5.654  15.283  0.9413 -2.2595 -0.9733
19266TIP3   OH279212   1.614   0.529   5.671  0.6186  0.7454  0.8421
19266TIP3    H179213   1.561   0.572   5.738 -0.1780  0.3024  0.5080
19266TIP3    H279214   1.646   0.450   5.714 -0.3090  0.2012  0.5580
19267TIP3   OH279215   6.041   2.469  14.662  0.2806 -0.2008 -0.4012
19267TIP3    H179216   5.985   2.393  14.650  1.7491 -1.1297 -1.5890
19267TIP3    H279217   6.108   2.440  14.724  0.7529  0.1642 -0.7352
19268TIP3   OH279218   5.321   3.271  12.054 -0.3202  0.4005  0.0619
19268TIP3    H179219   5.314   3.328  11.977 -1.6832 -0.5420 -0.5324
19268TIP3    H279220   5.232   3.237  12.067  0.2415 -0.7190  1.0691
19269TIP3   OH279221   3.919   3.062   5.626 -0.0069  0.7387  0.4485
19269TIP3    H179222   3.913   3.107   5.542  1.0841 -0.6101 -0.3714
19269TIP3    H279223   4.010   3.076   5.654 -0.3725  1.2106  1.4225
19270TIP3   OH279224   0.518   6.723  16.592 -0.1644 -0.7388  0.0320
19270TIP3    H179225   0.548   6.812  16.606 -0.6691 -0.6538  0.5765
19270TIP3    H279226   0.573   6.669  16.648 -1.0861 -0.5707  1.1230
19271TIP3   OH279227   4.133   3.879  17.061 -0.0976 -0.0759  0.5810
19271TIP3    H179228   4.159   3.971  17.048  0.0608 -0.0879  0.8382
19271TIP3    H279229   4.147   3.839  16.975 -2.8650  0.8084 -0.3599
19272TIP3   OH279230   1.025   2.619   3.188 -0.5530 -0.0764  0.1948
19272TIP3    H179231   1.012   2.551   3.254 -0.9597  0.6322  0.8484
19272TIP3    H279232   1.096   2.673   3.222 -0.1391 -0.2539 -0.3885
19273TIP3   OH279233   5.403   5.784  14.000 -0.1469  0.5209 -0.5430
19273TIP3    H179234   5.480   5.730  14.014 -0.5302 -0.5790 -2.5721
19273TIP3    H279235   5.437   5.873  13.991  0.7043  0.2870  0.2339
19274TIP3   OH279236   0.494   4.748  15.356 -0.0395 -0.1402 -0.2585
19274TIP3    H179237   0.480   4.842  15.344 -1.3271 -0.2410  0.3432
19274TIP3    H279238   0.463   4.708  15.274  0.2389 -0.0589 -0.4024
19275TIP3   OH279239   3.136   2.006   2.977 -0.7266 -0.0677 -0.2230
19275TIP3    H179240   3.199   1.955   2.927 -0.0087  0.1658  0.4368
19275TIP3    H279241   3.143   2.095   2.942 -0.0739  0.1411  0.4211
19276TIP3   OH279242   4.953   5.161   6.383  0.6281  0.1126  0.0285
19276TIP3    H179243   5.003   5.225   6.332 -0.5156 -0.1227 -1.4134
19276TIP3    H279244   5.010   5.139   6.456  0.8973  3.0254  0.7210
19277TIP3   OH279245   2.291   3.556   4.766 -0.2167 -0.2844  0.2263
19277TIP3    H179246   2.290   3.593   4.854  0.3759 -1.6212  0.8190
19277TIP3    H279247   2.206   3.513   4.757 -0.1410 -0.4496  0.2885
19278TIP3   OH279248   4.503   2.469  16.960 -0.4796  0.2075  0.8167
19278TIP3    H179249   4.510   2.544  16.900 -0.4138 -0.1612  0.3635
19278TIP3    H279250   4.471   2.507  17.041  0.6336  0.9152  0.9369
19279TIP3   OH279251   1.179   0.061  14.870  0.2731  0.0243 -0.6376
19279TIP3    H179252   1.087   0.034  14.875  0.8723 -2.6987 -3.2820
19279TIP3    H279253   1.201   0.054  14.777  2.3115  3.7152 -0.5194
19280TIP3   OH279254   6.481   2.259   1.452 -0.1431 -0.1852 -0.0402
19280TIP3    H179255   6.552   2.220   1.504  0.6209  0.9330 -0.2234
19280TIP3    H279256   6.429   2.184   1.423  1.4821 -1.1044 -0.6686
19281TIP3   OH279257   3.956   5.936   4.183 -0.0457 -0.1736 -0.5614
19281TIP3    H179258   3.930   5.845   4.192  0.6848 -0.2125  1.4147
19281TIP3    H279259   4.008   5.939   4.102 -1.1609 -1.2346 -1.3216
19282TIP3   OH279260   2.344   5.348  11.358 -0.3224  0.3087  0.1669
19282TIP3    H179261   2.423   5.369  11.308  0.4418 -0.3497  1.0842
19282TIP3    H279262   2.280   5.413  11.330  0.6267  1.0233 -0.3788
19283TIP3   OH279263   6.009   3.943  12.163 -0.3300  0.2616 -0.2899
19283TIP3    H179264   6.020   3.857  12.123  0.8748  0.8461 -1.2507
19283TIP3    H279265   6.007   3.925  12.257  1.3394 -0.6970 -0.4041
19284TIP3   OH279266   4.038   0.993  12.128 -0.1020  0.6540  0.5510
19284TIP3    H179267   3.968   0.953  12.076 -0.2008 -1.4163  2.2646
19284TIP3    H279268   4.118   0.948  12.100 -0.2333 -0.8990  2.5710
19285TIP3   OH279269   5.510   1.134   0.358  0.6516 -0.1244 -0.2982
19285TIP3    H179270   5.445   1.204   0.366  1.0025  0.4378 -1.9364
19285TIP3    H279271   5.465   1.064   0.311  0.9986 -0.0065 -0.8224
19286TIP3   OH279272   3.437   0.044   4.619  0.5025 -0.0382  0.1619
19286TIP3    H179273   3.349   0.012   4.598  0.2837  1.2314 -0.9403
19286TIP3    H279274   3.467   0.087   4.539  1.5266  0.8524  1.0037
19287TIP3   OH279275   6.474   2.873  13.058  0.2521  0.2754  0.2674
19287TIP3    H179276   6.488   2.831  13.143  2.9568  2.3128  0.9132
19287TIP3    H279277   6.548   2.933  13.049 -2.0484  2.9558 -1.7583
19288TIP3   OH279278   6.316   4.111  16.465 -0.3051 -0.5861 -0.2588
19288TIP3    H179279   6.406   4.141  16.463 -0.2422 -0.7637 -0.1712
19288TIP3    H279280   6.264   4.187  16.439 -0.3641  0.4054  2.5788
19289TIP3   OH279281   0.011   1.592  10.388  0.1627  0.4389  0.6326
19289TIP3    H179282   0.059   1.523  10.435  0.1392 -0.5401 -0.7603
19289TIP3    H279283  -0.081   1.570  10.401  0.1491  0.4129  0.4927
19290TIP3   OH279284   2.543   5.061  11.770  0.0226  0.8133  0.5755
19290TIP3    H179285   2.601   5.093  11.839  2.6554 -2.2741 -0.0710
19290TIP3    H279286   2.601   5.011  11.712 -2.8650 -0.1823 -1.5323
19291TIP3   OH279287   1.077   2.446  14.317  0.2663  0.3896  0.2033
19291TIP3    H179288   1.142   2.504  14.356  1.7485  0.3719 -2.1169
19291TIP3    H279289   1.028   2.410  14.391  2.5013  0.8643  1.9471
19292TIP3   OH279290   1.939   3.560   5.743  0.5878 -0.3926  0.0741
19292TIP3    H179291   1.992   3.510   5.805 -0.3040  0.2686  1.4007
19292TIP3    H279292   1.985   3.644   5.734  1.1872 -0.8050 -0.8660
19293TIP3   OH279293   0.759   3.832  12.700 -0.3570 -0.3393 -0.1956
19293TIP3    H179294   0.724   3.921  12.708 -0.5273 -0.3821 -0.4740
19293TIP3    H279295   0.702   3.789  12.636  0.2140 -0.4012 -0.6678
19294TIP3   OH279296   1.024   1.357   6.694  0.1943 -0.1130 -0.2299
19294TIP3    H179297   1.074   1.276   6.706 -0.8243 -0.5964  0.9795
19294TIP3    H279298   1.082   1.426   6.726 -0.2631 -0.7790  2.1506
19295TIP3   OH279299   5.668   4.474   3.057 -0.3888  0.2043  0.1971
19295TIP3    H179300   5.669   4.420   3.135  0.1273 -1.6636 -1.0702
19295TIP3    H279301   5.743   4.533   3.067 -1.7129  1.6032  2.1779
19296TIP3   OH279302   5.320   2.639  13.561  0.1213  0.5483  0.2985
19296TIP3    H179303   5.375   2.637  13.640  0.7674 -1.0611 -0.1562
19296TIP3    H279304   5.347   2.561  13.512 -2.1113  0.0946 -0.2549
19297TIP3   OH279305   6.349   5.187   3.849  0.2686 -0.4416 -0.5184
19297TIP3    H179306   6.315   5.275   3.866 -2.0225 -1.4003  0.1638
19297TIP3    H279307   6.380   5.156   3.934 -0.9964 -1.0991 -0.2738
19298TIP3   OH279308   2.801   4.323  14.873  0.0215 -0.1815 -0.0258
19298TIP3    H179309   2.786   4.338  14.779 -1.2254 -0.4751  0.1177
19298TIP3    H279310   2.889   4.356  14.888  1.0774 -2.0388 -1.7440
19299TIP3   OH279311   3.955   2.603  13.395 -0.2439 -0.4976  0.2090
19299TIP3    H179312   4.015   2.544  13.349 -0.5488 -1.3984  0.9597
19299TIP3    H279313   3.919   2.659  13.326  1.8043  0.3620 -0.1768
19300TIP3   OH279314   3.946   0.929  14.036 -0.5803  0.4311  0.5236
19300TIP3    H179315   4.030   0.883  14.041 -0.8529 -0.0691  0.5647
19300TIP3    H279316   3.924   0.927  13.943 -0.6248  0.4108  0.5339
19301TIP3   OH279317   5.552   1.273   1.109  0.5373 -0.2482 -0.1827
19301TIP3    H179318   5.546   1.275   1.014 -1.7166 -0.4565 -0.0667
19301TIP3    H279319   5.646   1.285   1.127  1.2000 -1.5490 -2.4503
19302TIP3   OH279320   1.529   5.534   1.205  0.4918  0.6360 -0.5362
19302TIP3    H179321   1.526   5.461   1.267 -0.3817  1.7367  0.7489
19302TIP3    H279322   1.468   5.510   1.136  0.3418  0.0599 -0.2056
19303TIP3   OH279323   1.754   0.435  10.862  0.2514  0.2388 -0.0360
19303TIP3    H179324   1.720   0.523  10.845 -1.7017 -0.3093  0.8442
19303TIP3    H279325   1.726   0.383  10.787  2.4320  0.6077 -1.1399
19304TIP3   OH279326   3.708   0.110  12.681  0.3830 -0.4855  0.2668
19304TIP3    H179327   3.658   0.064  12.613  0.4558  0.2863 -0.3165
19304TIP3    H279328   3.800   0.096  12.657  0.4767 -2.3291  1.6214
19305TIP3   OH279329   3.903   6.385   1.473  0.0695  0.2790 -0.3267
19305TIP3    H179330   3.878   6.335   1.395  0.5737 -2.1692  1.0241
19305TIP3    H279331   3.994   6.411   1.456  0.4027 -0.8285 -0.2971
19306TIP3   OH279332   4.857   6.014   0.629 -0.7242 -0.3065  0.0763
19306TIP3    H179333   4.876   6.106   0.614 -1.1251  0.0649  1.7672
19306TIP3    H279334   4.906   5.968   0.560 -1.3389  1.2087 -1.4257
19307TIP3   OH279335   5.510   4.122   3.332  0.8674  1.1905  0.3227
19307TIP3    H179336   5.574   4.133   3.262  0.6064 -0.2199 -0.1667
19307TIP3    H279337   5.546   4.052   3.387 -0.9388 -0.6566 -0.7944
19308TIP3   OH279338   3.006   1.893  16.121  0.1720  0.5691  0.0017
19308TIP3    H179339   3.008   1.799  16.101  0.5730  0.8742 -1.4743
19308TIP3    H279340   2.971   1.898  16.210 -0.5190 -0.9421 -0.1649
19309TIP3   OH279341   6.538   0.319   0.597 -0.0984  0.3176  0.1806
19309TIP3    H179342   6.511   0.244   0.544 -0.9493  1.1682 -0.6249
19309TIP3    H279343   6.589   0.374   0.538  0.3447  0.4720  0.7013
19310TIP3   OH279344   5.578   0.404  12.524  0.0518 -0.3734 -0.2656
19310TIP3    H179345   5.652   0.462  12.542  1.4893 -1.7616 -1.5411
19310TIP3    H279346   5.581   0.338  12.594 -0.2332 -0.2013 -0.0890
19311TIP3   OH279347   1.937   6.629   1.609  0.7861  0.0030 -0.0157
19311TIP3    H179348   1.898   6.565   1.669  1.5070 -0.1711  0.2680
19311TIP3    H279349   1.888   6.710   1.625  1.0889  0.0056  0.9433
19312TIP3   OH279350   2.173   2.839   3.064  0.2317 -0.9156  0.1350
19312TIP3    H179351   2.142   2.839   2.973 -0.8241  0.3058  0.4765
19312TIP3    H279352   2.093   2.836   3.117  0.8713 -2.5680  1.0315
19313TIP3   OH279353   0.155   0.166   5.247  0.6755 -0.2647  0.5802
19313TIP3    H179354   0.236   0.177   5.197 -0.8258  0.7203 -1.6973
19313TIP3    H279355   0.115   0.087   5.210  0.0061 -0.0607  0.8768
19314TIP3   OH279356   4.092   3.008  15.789 -0.5785  0.6854  0.5354
19314TIP3    H179357   4.101   3.096  15.826 -2.9950  1.7835 -1.3121
19314TIP3    H279358   4.155   3.005  15.717 -1.0518  1.2436  0.0849
19315TIP3   OH279359   5.666   1.410  15.988  0.2329 -0.0011 -0.0907
19315TIP3    H179360   5.626   1.383  16.071  1.2404 -0.4864  0.2370
19315TIP3    H279361   5.595   1.401  15.924 -0.9600  1.6751  0.9300
19316TIP3   OH279362   4.612   6.373  14.325  0.5794 -0.2984 -0.0777
19316TIP3    H179363   4.647   6.413  14.405  2.0898 -0.0906 -0.8266
19316TIP3    H279364   4.583   6.447  14.272 -2.4536 -0.5364  1.1664
19317TIP3   OH279365   4.129   1.208   2.375  0.1924  0.0481  0.1874
19317TIP3    H179366   4.150   1.295   2.410  0.4170 -0.4153  1.2131
19317TIP3    H279367   4.159   1.147   2.443 -0.5138 -0.8052 -0.2647
19318TIP3   OH279368   1.323   6.745   3.543 -0.2139  0.2950 -0.2400
19318TIP3    H179369   1.316   6.724   3.450 -1.8147 -0.6620  0.0758
19318TIP3    H279370   1.271   6.678   3.587  0.4692  0.7679  1.3559
19319TIP3   OH279371   1.769   5.958  16.767  0.0961  0.2126 -0.0125
19319TIP3    H179372   1.790   6.050  16.780  1.6248 -0.1993  0.5297
19319TIP3    H279373   1.799   5.938  16.678  2.7269 -0.5587  1.0195
19320TIP3   OH279374   2.079   3.539   3.220 -0.5151  0.5495 -0.7218
19320TIP3    H179375   2.120   3.572   3.299 -1.3343  1.3461 -0.6147
19320TIP3    H279376   2.151   3.522   3.160  0.0622  0.5283 -0.0228
19321TIP3   OH279377   3.243   1.269  12.657  0.3849  0.2768 -0.2709
19321TIP3    H179378   3.315   1.207  12.660  0.7051  0.6718  0.4179
19321TIP3    H279379   3.281   1.351  12.688 -0.8755 -0.0504  2.3286
19322TIP3   OH279380   4.350   0.519  14.661 -0.4943  0.3514  0.4219
19322TIP3    H179381   4.292   0.464  14.608 -1.0651 -1.3726  2.7031
19322TIP3    H279382   4.431   0.468  14.668 -0.1352  0.9366  0.4906
19323TIP3   OH279383   2.560   3.859   4.131  0.1182  0.2431 -0.0439
19323TIP3    H179384   2.574   3.780   4.184 -0.9855  0.0798  0.0067
19323TIP3    H279385   2.576   3.831   4.041  0.2218  0.0836  0.0235
19324TIP3   OH279386   2.089   2.554   2.775 -0.0189 -0.3611 -0.2385
19324TIP3    H179387   2.145   2.630   2.756 -0.9651  0.1851 -0.8505
19324TIP3    H279388   2.007   2.592   2.805 -1.0427 -1.0948 -2.0281
19325TIP3   OH279389   0.141   6.644   5.202  0.1287 -0.0953 -0.4281
19325TIP3    H179390   0.121   6.636   5.295 -0.6386  2.0014 -0.3897
19325TIP3    H279391   0.233   6.619   5.195  0.8526  1.9478  1.2695
19326TIP3   OH279392   3.402   6.346   0.162  0.0289 -0.2897 -0.1443
19326TIP3    H179393   3.376   6.436   0.141  0.0025 -0.3380 -0.3258
19326TIP3    H279394   3.380   6.296   0.083 -0.1648 -0.4964  0.0392
19327TIP3   OH279395   4.268   5.544   0.158 -0.6780  0.9737  0.4043
19327TIP3    H179396   4.360   5.561   0.176  0.2656 -3.1299  0.1160
19327TIP3    H279397   4.238   5.618   0.106  3.7931  0.1746 -3.5925
19328TIP3   OH279398   3.840   3.940  12.791  0.4022  0.3406 -0.6005
19328TIP3    H179399   3.872   3.875  12.728 -1.0859 -0.3774 -0.6373
19328TIP3    H279400   3.761   3.975  12.752  0.3915  1.1166  0.1049
19329TIP3   OH279401   0.168   4.113   2.935 -0.4310 -0.2037  0.7415
19329TIP3    H179402   0.254   4.115   2.976 -0.9943  0.2843  1.9385
19329TIP3    H279403   0.130   4.030   2.963  0.0617 -0.9244 -0.6786
19330TIP3   OH279404   6.335   0.224  13.317  0.0435 -0.4382 -0.0146
19330TIP3    H179405   6.242   0.233  13.295  0.4127  0.5795 -1.1569
19330TIP3    H279406   6.346   0.131  13.336 -1.4812 -0.3512  1.3877
19331TIP3   OH279407   2.589   2.789  17.116  0.0050 -0.6511 -0.1270
19331TIP3    H179408   2.653   2.719  17.105  1.1637  0.6047 -1.5449
19331TIP3    H279409   2.513   2.760  17.066 -0.8058 -2.4315  2.0638
19332TIP3   OH279410   5.575   5.162  14.261 -0.4983  0.3496 -0.3356
19332TIP3    H179411   5.560   5.242  14.311 -1.5215  0.9616 -1.5871
19332TIP3    H279412   5.590   5.192  14.171  1.0560 -0.7424 -0.4683
19333TIP3   OH279413   3.114   0.244  10.376 -0.3287 -0.2406 -0.4780
19333TIP3    H179414   3.058   0.235  10.453 -2.0719 -1.3812 -1.8427
19333TIP3    H279415   3.183   0.178  10.389  0.2602  0.6114  0.8131
19334TIP3   OH279416   1.014   4.833   6.925  0.0371  0.1659 -0.3906
19334TIP3    H179417   1.085   4.772   6.941  0.0786 -0.2839 -2.1127
19334TIP3    H279418   1.051   4.898   6.864 -0.3991  1.1380  0.3651
19335TIP3   OH279419   4.679   1.966  16.594  0.0199  0.4668 -0.3271
19335TIP3    H179420   4.757   2.013  16.622  0.6268 -1.5258  1.5281
19335TIP3    H279421   4.712   1.882  16.561 -1.2063  0.2092 -0.9491
19336TIP3   OH279422   3.751   5.426   5.201  0.0535 -0.3742  0.5107
19336TIP3    H179423   3.833   5.420   5.250 -0.0051 -3.3728  0.3324
19336TIP3    H279424   3.683   5.438   5.267  0.5310  1.1509  0.7290
19337TIP3   OH279425   0.300   3.462   3.416 -0.0715 -0.0293 -0.5509
19337TIP3    H179426   0.217   3.466   3.370  0.1746 -0.6141 -1.0561
19337TIP3    H279427   0.311   3.549   3.454  0.0634  0.7085 -2.2123
19338TIP3   OH279428   0.449   0.124  12.121 -0.2492 -0.3843  0.0276
19338TIP3    H179429   0.520   0.066  12.096 -1.6934 -1.5659 -1.4287
19338TIP3    H279430   0.485   0.178  12.191  1.6865 -1.7680  0.1167
19339TIP3   OH279431   4.865   6.111   4.333  0.2788 -0.3543 -0.0966
19339TIP3    H179432   4.932   6.144   4.273  1.7461 -2.3122  0.4130
19339TIP3    H279433   4.806   6.060   4.278 -0.1479  0.3910 -0.3462
19340TIP3   OH279434   2.825   0.040  15.685 -0.4619  0.1276 -0.9522
19340TIP3    H179435   2.739   0.063  15.721 -0.6410  1.4391 -2.1735
19340TIP3    H279436   2.875   0.008  15.761 -2.6475 -2.5657 -0.5804
19341TIP3   OH279437   2.250   3.206  16.441 -0.2516  0.3304 -0.7022
19341TIP3    H179438   2.275   3.237  16.354  0.4140  1.5425 -0.1009
19341TIP3    H279439   2.280   3.275  16.500 -2.4899  0.4789  0.3209
19342TIP3   OH279440   4.746   2.208  16.354  0.0656 -0.5400 -0.7930
19342TIP3    H179441   4.734   2.114  16.342 -2.3603 -0.3422 -0.1926
19342TIP3    H279442   4.719   2.223  16.445  1.3900  0.6020 -0.5744
19343TIP3   OH279443   1.619   5.478  13.468 -0.0276 -0.5161 -0.0733
19343TIP3    H179444   1.711   5.454  13.476 -0.0371 -1.0938 -1.5951
19343TIP3    H279445   1.571   5.399  13.494 -0.1101 -0.3356  0.3444
19344TIP3   OH279446   2.774   1.230   6.115 -0.1127  0.3696 -0.1295
19344TIP3    H179447   2.838   1.299   6.098 -0.4834  0.5355 -0.8912
19344TIP3    H279448   2.696   1.256   6.065  0.1354 -1.1769 -1.3623
19345TIP3   OH279449   6.621   2.660  13.217  0.3149  0.2627  0.6007
19345TIP3    H179450   6.533   2.629  13.234  0.7699 -1.4472 -0.0979
19345TIP3    H279451   6.670   2.639  13.296  0.1678  1.0278  0.9063
19346TIP3   OH279452   1.479   0.129   4.642 -0.4121  0.3000  0.3823
19346TIP3    H179453   1.508   0.039   4.624 -0.6088  0.3221 -0.0394
19346TIP3    H279454   1.540   0.160   4.709 -0.3456 -0.1494  0.5340
19347TIP3   OH279455   1.058   2.577   4.004 -0.3498  0.8579  0.2161
19347TIP3    H179456   1.037   2.643   3.937  0.5026  1.2982  0.3797
19347TIP3    H279457   0.984   2.516   4.001  0.7397 -0.4310 -2.7649
19348TIP3   OH279458   6.422   1.844   1.818 -0.3155 -0.1928 -0.1377
19348TIP3    H179459   6.388   1.759   1.845 -1.3551 -0.1249 -1.2332
19348TIP3    H279460   6.469   1.827   1.736 -0.6705  0.3161 -0.4487
19349TIP3   OH279461   5.054   0.510  14.349 -0.1359  0.5320 -0.2303
19349TIP3    H179462   5.065   0.559  14.267 -0.0709 -0.8393 -1.0591
19349TIP3    H279463   4.985   0.447  14.330  0.2604 -0.1652  0.6011
19350TIP3   OH279464   2.622   4.987   5.357  0.1307 -0.1357  0.0571
19350TIP3    H179465   2.532   4.996   5.326  0.2337 -0.6448 -0.3884
19350TIP3    H279466   2.613   4.967   5.450 -0.2005  0.3211  0.1284
19351TIP3   OH279467   5.063   2.158  16.419 -0.0492 -0.7628  0.2669
19351TIP3    H179468   5.067   2.095  16.347 -0.6410 -0.8282  0.2898
19351TIP3    H279469   4.977   2.199  16.410 -0.7674 -1.8548  1.8426
19352TIP3   OH279470   5.902   5.111   2.871 -0.0483  0.9077  0.5804
19352TIP3    H179471   5.945   5.079   2.793 -0.2086  1.1964  0.3718
19352TIP3    H279472   5.812   5.129   2.844 -0.2715  0.4307  0.9807
19353TIP3   OH279473   3.923   3.976  13.254  0.0460 -0.5384 -0.9473
19353TIP3    H179474   3.840   4.023  13.245  0.0683 -0.2327  0.3309
19353TIP3    H279475   3.937   3.935  13.168 -1.8939 -1.3795 -0.8916
19354TIP3   OH279476   0.977   6.358  14.798 -0.4050  0.4418 -0.1207
19354TIP3    H179477   0.983   6.397  14.885  0.7245  0.2156 -0.0938
19354TIP3    H279478   1.051   6.397  14.749  0.3023 -1.1059 -0.3117
19355TIP3   OH279479   0.910   0.853   0.417  0.3612 -0.4948 -0.1110
19355TIP3    H179480   0.837   0.849   0.479  1.8336 -1.5762  1.6305
19355TIP3    H279481   0.883   0.798   0.344  0.1221 -2.3558  1.3265
19356TIP3   OH279482   4.620   2.826   5.474  0.4645  0.0966  0.3683
19356TIP3    H179483   4.714   2.840   5.485  0.6599 -1.2057  0.5008
19356TIP3    H279484   4.589   2.902   5.424  1.9352 -0.4081 -1.3721
19357TIP3   OH279485   1.854   1.643   5.607  0.1013  0.3484  0.3037
19357TIP3    H179486   1.787   1.645   5.539  0.1723 -0.8005  0.2047
19357TIP3    H279487   1.887   1.733   5.610 -1.3879  0.9088  0.3106
19358TIP3   OH279488   2.931   0.471  13.189  0.4653 -0.1554  0.4741
19358TIP3    H179489   2.857   0.443  13.243 -0.5470  0.6292 -0.4783
19358TIP3    H279490   2.919   0.565  13.178  2.3825  0.2164  1.4556
19359TIP3   OH279491   0.232   5.766   3.613 -0.1819  0.0982  0.0565
19359TIP3    H179492   0.226   5.699   3.681 -1.4693  0.2177  0.0729
19359TIP3    H279493   0.145   5.806   3.611 -0.2922 -0.1881 -1.9516
19360TIP3   OH279494   4.545   0.587   1.433 -0.3379 -0.6859  0.1756
19360TIP3    H179495   4.568   0.668   1.479  0.5222 -1.0848  0.4378
19360TIP3    H279496   4.612   0.524   1.458 -0.5206 -1.2445 -0.7086
19361TIP3   OH279497   1.074   3.584  15.507  0.7697 -0.6315  0.0220
19361TIP3    H179498   1.022   3.504  15.516  1.5400 -1.1806 -0.3494
19361TIP3    H279499   1.010   3.655  15.506  0.0675 -1.2671  0.1363
19362TIP3   OH279500   4.370   2.467  15.657 -0.3627 -0.0417  0.1669
19362TIP3    H179501   4.432   2.444  15.587  0.1143  0.8202  0.3017
19362TIP3    H279502   4.355   2.385  15.703  2.5302  0.1844  1.6064
19363TIP3   OH279503   4.326   0.712  10.279  0.2175  0.2775 -0.4169
19363TIP3    H179504   4.369   0.673  10.355 -2.0043 -0.6453  0.4130
19363TIP3    H279505   4.349   0.804  10.283  1.4068 -0.0491  0.4826
19364TIP3   OH279506   0.232   1.402   3.234  0.2666 -1.0064 -0.0140
19364TIP3    H179507   0.300   1.465   3.211 -0.4331 -0.3722 -0.3556
19364TIP3    H279508   0.152   1.453   3.237 -0.6344 -2.2054 -2.1831
19365TIP3   OH279509   5.617   6.084   3.981  0.1332  0.1415 -0.1732
19365TIP3    H179510   5.675   6.152   3.946 -0.6010  0.3717 -0.9571
19365TIP3    H279511   5.533   6.127   3.991  0.1273 -0.1612  1.0866
19366TIP3   OH279512   2.226   5.460   6.673 -0.7358  0.2839 -0.1066
19366TIP3    H179513   2.297   5.440   6.735  0.0518  1.9514 -0.4421
19366TIP3    H279514   2.255   5.423   6.590 -1.1800 -0.7783  0.2031
19367TIP3   OH279515   0.116   0.843   2.285 -0.2854  0.3037  0.3800
19367TIP3    H179516   0.111   0.814   2.376  0.8489  0.1545  0.4009
19367TIP3    H279517   0.206   0.823   2.259 -0.5993  0.3747 -0.7637
19368TIP3   OH279518   4.835   6.509  15.992  0.2120 -0.6263 -0.1333
19368TIP3    H179519   4.929   6.504  15.978  0.3512 -2.9745  1.3682
19368TIP3    H279520   4.797   6.473  15.911  0.6106 -0.4837 -0.3855
19369TIP3   OH279521   6.752   4.749  14.700 -0.1006  0.0443  0.0199
19369TIP3    H179522   6.800   4.696  14.764 -0.7767  0.0255  0.5185
19369TIP3    H279523   6.727   4.688  14.632  1.2623  0.2063 -0.6354
19370TIP3   OH279524   4.614   5.869  15.085 -0.8704  0.2083 -0.0930
19370TIP3    H179525   4.664   5.787  15.084 -2.0013 -0.5452  1.9757
19370TIP3    H279526   4.662   5.926  15.144 -0.8439  0.5363 -0.4318
19371TIP3   OH279527   0.596   3.561  15.776  0.7909  0.0817 -0.0936
19371TIP3    H179528   0.642   3.484  15.812  0.3536 -0.5988 -0.9843
19371TIP3    H279529   0.610   3.555  15.682  2.3541  2.1473 -0.0213
19372TIP3   OH279530   0.786   6.452  13.993  0.2913  0.1953  0.6463
19372TIP3    H179531   0.819   6.542  13.997 -0.3661  0.4067  1.3981
19372TIP3    H279532   0.862   6.400  13.967  1.1683  0.7065  2.0934
19373TIP3   OH279533   0.093   5.398   3.448 -0.1058  0.0459 -0.6386
19373TIP3    H179534   0.147   5.476   3.431 -0.2718  0.1197 -0.8416
19373TIP3    H279535   0.011   5.434   3.484  0.5619 -0.1654  1.1456
19374TIP3   OH279536   0.459   5.299   1.123 -0.0994  0.2625  0.1625
19374TIP3    H179537   0.434   5.263   1.208 -0.6199  0.3403  0.0438
19374TIP3    H279538   0.386   5.278   1.065 -0.1169  0.9260 -0.0667
19375TIP3   OH279539   4.486   1.243   4.217  0.1846  0.6835  0.2893
19375TIP3    H179540   4.534   1.242   4.301  0.7176  0.8659 -0.0084
19375TIP3    H279541   4.519   1.167   4.170  0.2817  0.8882  0.0273
19376TIP3   OH279542   2.386   3.146  12.183  0.1008 -0.0094  0.1495
19376TIP3    H179543   2.302   3.151  12.138 -0.1505 -0.4905  0.5590
19376TIP3    H279544   2.409   3.237  12.201 -0.4382  0.1124  0.2241
19377TIP3   OH279545   3.549   0.716   5.740  0.1127  0.3628  0.3363
19377TIP3    H179546   3.484   0.758   5.797  1.2718  0.5301  1.5738
19377TIP3    H279547   3.611   0.674   5.801  0.8165 -0.3108 -0.8250
19378TIP3   OH279548   0.253   1.031  14.359  0.0910  0.0423  0.1365
19378TIP3    H179549   0.303   1.106  14.326 -0.7757  0.1504 -0.9352
19378TIP3    H279550   0.312   0.990  14.422  0.4771  1.7604  0.9110
19379TIP3   OH279551   4.358   4.674   4.911  0.4308  0.3401 -0.0172
19379TIP3    H179552   4.379   4.701   5.001 -1.2259  2.0828 -0.1144
19379TIP3    H279553   4.382   4.749   4.857 -2.2322  0.8574 -0.5612
19380TIP3   OH279554   1.307   6.015   2.328 -0.7042  0.1830  0.7016
19380TIP3    H179555   1.395   6.043   2.352 -0.8416  0.3076  1.0645
19380TIP3    H279556   1.253   6.039   2.403 -1.5998  2.8991 -0.7510
19381TIP3   OH279557   5.339   4.565  13.203  0.2970 -0.1492  0.3208
19381TIP3    H179558   5.400   4.542  13.132  0.3963  0.3323  0.2451
19381TIP3    H279559   5.303   4.649  13.176 -0.5945 -0.5541  0.2428
19382TIP3   OH279560   0.109   2.633  12.780 -1.0659 -0.2834 -0.2435
19382TIP3    H179561   0.144   2.547  12.800  0.5622  0.5246  0.4541
19382TIP3    H279562   0.068   2.663  12.861 -1.9510 -0.5499 -0.5895
19383TIP3   OH279563   4.733   0.921  11.544 -0.1475 -0.1344 -0.1998
19383TIP3    H179564   4.715   1.013  11.564 -1.8057 -0.4963  0.0546
19383TIP3    H279565   4.768   0.922  11.455  0.2001  0.7768 -0.0558
19384TIP3   OH279566   2.580   3.386  11.425 -0.6050 -0.2329  0.1309
19384TIP3    H179567   2.574   3.324  11.498  0.2056 -1.7609 -1.0886
19384TIP3    H279568   2.500   3.371  11.375 -1.5098  1.3191  1.0723
19385TIP3   OH279569   2.384   6.519   4.856  0.2674 -0.0941 -0.1155
19385TIP3    H179570   2.298   6.549   4.826 -0.1518 -0.1056  1.0403
19385TIP3    H279571   2.428   6.599   4.885  0.2336 -0.2255  0.2984
19386TIP3   OH279572   5.763   0.325  13.355 -0.0163  0.1358  0.0083
19386TIP3    H179573   5.737   0.236  13.331 -1.0304  0.9474 -1.9877
19386TIP3    H279574   5.707   0.382  13.302 -0.0118  1.9815  1.9360
19387TIP3   OH279575   6.468   3.907   6.248 -0.0345 -0.4091 -0.3918
19387TIP3    H179576   6.509   3.991   6.272  0.1298 -0.5514 -0.1658
19387TIP3    H279577   6.418   3.882   6.326  1.0202 -1.1908  0.0430
19388TIP3   OH279578   3.210   4.615   3.124  0.0180  0.2464  0.0606
19388TIP3    H179579   3.144   4.676   3.092 -0.2212 -0.1839 -0.2704
19388TIP3    H279580   3.178   4.529   3.098 -0.0411 -0.0955  1.2201
19389TIP3   OH279581   5.513   4.159   5.236 -0.6822  0.2085 -0.0597
19389TIP3    H179582   5.562   4.141   5.316 -1.2853  2.7539  0.9529
19389TIP3    H279583   5.561   4.115   5.167  1.5794  0.5058  1.2894
19390TIP3   OH279584   3.892   4.377   4.860  0.4233  0.4178  0.1099
19390TIP3    H179585   3.809   4.332   4.843  0.9294 -0.2161 -0.7307
19390TIP3    H279586   3.954   4.337   4.799  1.3182  0.9867  0.6305
19391TIP3   OH279587   2.660   0.857   2.117 -0.2971  0.6945  0.1839
19391TIP3    H179588   2.604   0.871   2.041  0.0223 -2.6285 -0.7573
19391TIP3    H279589   2.749   0.865   2.083 -0.1624  0.5302  0.4903
19392TIP3   OH279590   1.529   6.489  13.690  0.0383 -0.6716  0.1147
19392TIP3    H179591   1.572   6.427  13.631  0.9697 -0.9062  1.0219
19392TIP3    H279592   1.600   6.523  13.745 -0.7085  0.0563  0.6388
19393TIP3   OH279593   6.344   5.893  10.918 -0.3528 -0.5340  0.1603
19393TIP3    H179594   6.312   5.857  10.836  0.5031  0.8857 -0.8133
19393TIP3    H279595   6.439   5.884  10.913 -0.1286  1.8321 -0.1139
19394TIP3   OH279596   6.574   3.571   2.534 -0.0084  0.3002  0.1163
19394TIP3    H179597   6.668   3.572   2.513  0.1084  0.3725  0.6232
19394TIP3    H279598   6.530   3.582   2.450  0.4085 -1.2706 -0.3342
19395TIP3   OH279599   3.003   5.771   4.670  0.6528 -0.0015  0.5901
19395TIP3    H179600   2.941   5.757   4.742  0.8471  0.1378  0.7836
19395TIP3    H279601   3.089   5.756   4.708  0.8646  1.6485  0.7923
19396TIP3   OH279602   5.953   3.990  16.448  0.6799 -0.2533  0.8123
19396TIP3    H179603   5.918   4.049  16.516 -0.3991  0.1114 -0.0426
19396TIP3    H279604   5.880   3.933  16.426  0.4928  0.7291 -1.2309
19397TIP3   OH279605   3.290   3.006   5.948  0.3946  0.0000 -0.2412
19397TIP3    H179606   3.380   3.004   5.916 -0.1163 -0.6241 -1.6600
19397TIP3    H279607   3.293   2.958   6.031  1.5455  0.7813  0.1660
19398TIP3   OH279608   3.171   5.793  12.553 -0.6982  0.3976  0.0565
19398TIP3    H179609   3.150   5.807  12.461  0.4272  1.5514 -0.0379
19398TIP3    H279610   3.102   5.735  12.585 -1.6057  0.7225 -1.2843
19399TIP3   OH279611   3.260   4.912   6.689 -0.0889 -0.2393  0.3980
19399TIP3    H179612   3.210   4.876   6.763 -0.3706 -1.1488 -0.2289
19399TIP3    H279613   3.204   4.896   6.613  0.5520 -0.0176 -0.1169
19400TIP3   OH279614   1.877   0.265   4.650 -0.1359 -0.1512  0.2591
19400TIP3    H179615   1.908   0.295   4.564  0.6283  0.2979  0.6917
19400TIP3    H279616   1.817   0.193   4.629  0.8726 -0.7502 -0.5974
19401TIP3   OH279617   2.722   3.767   2.122 -0.3107  0.3583 -0.1478
19401TIP3    H179618   2.637   3.740   2.158  0.4317 -1.6210  0.1577
19401TIP3    H279619   2.723   3.862   2.134 -1.3497  0.1039  2.3171
19402TIP3   OH279620   2.025   2.923  15.828  0.3813 -0.2334  0.5815
19402TIP3    H179621   2.110   2.956  15.857  1.4597  0.2448 -2.9146
19402TIP3    H279622   2.032   2.827  15.837  3.1642 -0.6268 -4.1167
19403TIP3   OH279623   5.267   6.715   2.977 -0.4856  0.4557 -0.0179
19403TIP3    H179624   5.203   6.644   2.978 -1.4529  1.3135  0.3880
19403TIP3    H279625   5.303   6.713   2.888  1.0282 -1.8424  0.6069
19404TIP3   OH279626   4.025   5.158   3.928  0.4692 -0.3589  0.1180
19404TIP3    H179627   3.980   5.208   3.996  1.6820 -0.7597  1.2685
19404TIP3    H279628   3.977   5.075   3.923 -0.1893  0.0447 -0.1793
19405TIP3   OH279629   4.136   2.783  16.311  0.6960 -0.2066  0.2107
19405TIP3    H179630   4.137   2.859  16.252  0.4183 -1.9083 -2.0534
19405TIP3    H279631   4.057   2.796  16.364  0.4447  0.8910 -0.4019
19406TIP3   OH279632   0.993   1.391  12.258  0.0932  0.6477  0.4716
19406TIP3    H179633   0.957   1.471  12.220 -0.8706  0.9007  1.8703
19406TIP3    H279634   0.999   1.409  12.352 -0.1016 -0.8957  0.7961
19407TIP3   OH279635   4.994   5.618   4.117  0.2539 -0.4266  0.2237
19407TIP3    H179636   4.964   5.552   4.055 -0.3272  0.7838 -0.7902
19407TIP3    H279637   4.914   5.657   4.152  0.5852  0.6798 -0.2091
19408TIP3   OH279638   0.461   0.838   5.560 -0.4094  0.0076  0.0856
19408TIP3    H179639   0.479   0.842   5.466 -0.2753 -0.3686  0.0944
19408TIP3    H279640   0.468   0.929   5.589  2.3777 -0.2078  0.2474
19409TIP3   OH279641   2.613   1.421   6.353  0.2212 -0.0696  0.7256
19409TIP3    H179642   2.694   1.392   6.395  2.0356  2.1139 -1.0735
19409TIP3    H279643   2.623   1.516   6.346 -0.9478 -0.1290 -2.6135
19410TIP3   OH279644   0.108   2.182  14.259 -0.7506  0.3943 -0.2663
19410TIP3    H179645   0.198   2.151  14.260 -0.1142  2.1518  0.7853
19410TIP3    H279646   0.097   2.221  14.172 -0.9632 -1.0700 -0.9069
19411TIP3   OH279647   5.207   5.242  10.508 -0.6638  0.4595 -0.7454
19411TIP3    H179648   5.212   5.292  10.589  0.7687  1.2398 -1.2736
19411TIP3    H279649   5.269   5.287  10.449 -1.3291 -0.3638 -2.0983
19412TIP3   OH279650   5.543   4.472  15.397  0.5262 -0.4633 -0.2722
19412TIP3    H179651   5.625   4.522  15.398  0.0763  0.2827  0.1029
19412TIP3    H279652   5.507   4.486  15.310  0.4429 -0.1951 -0.1958
19413TIP3   OH279653   0.412   5.287  15.395  0.0980 -0.7360 -0.6789
19413TIP3    H179654   0.345   5.351  15.418  1.6536  0.6085  0.2755
19413TIP3    H279655   0.471   5.333  15.336 -0.1533 -2.0963 -2.0132
19414TIP3   OH279656   6.657   1.912   1.168  0.0549  0.1795  0.2142
19414TIP3    H179657   6.609   1.991   1.191 -0.8810 -0.7956  1.7371
19414TIP3    H279658   6.592   1.856   1.125  0.6165  0.0836 -0.5202
19415TIP3   OH279659   3.588   0.015   0.301  0.3655  0.2676  0.4053
19415TIP3    H179660   3.558   0.079   0.237 -1.0721 -1.3095 -0.5514
19415TIP3    H279661   3.576   0.058   0.386  1.7550  2.1571 -0.3216
19416TIP3   OH279662   5.648   2.219  15.775  0.2268  0.5873 -0.6180
19416TIP3    H179663   5.712   2.269  15.824 -0.8499  1.6188 -0.2331
19416TIP3    H279664   5.586   2.285  15.742 -0.0074 -0.2684 -1.9080
19417TIP3   OH279665   5.599   3.117   5.526 -0.6530 -0.2740  0.1186
19417TIP3    H179666   5.522   3.135   5.472  0.0186  0.6653 -0.5517
19417TIP3    H279667   5.624   3.203   5.562  0.9268 -0.3087 -0.8431
19418TIP3   OH279668   5.394   3.977  11.585  0.0075 -0.3362 -0.0368
19418TIP3    H179669   5.324   3.969  11.650  0.1516  0.0983  0.1719
19418TIP3    H279670   5.350   3.963  11.501 -0.3325 -0.0471  0.0912
19419TIP3   OH279671   3.327   4.703   5.340 -0.4938  0.4599 -0.3012
19419TIP3    H179672   3.242   4.736   5.370  0.7487  0.1983  3.6922
19419TIP3    H279673   3.330   4.613   5.372  1.4367  0.5827 -0.1121
19420TIP3   OH279674   5.010   0.820   0.379  0.1451 -0.7812 -0.8874
19420TIP3    H179675   4.971   0.891   0.328 -2.9404 -1.1529  0.8735
19420TIP3    H279676   4.939   0.788   0.434  2.6577 -2.2852  1.5966
19421TIP3   OH279677   1.579   6.712  13.106 -0.0301 -0.0335  0.4240
19421TIP3    H179678   1.529   6.739  13.029  1.2654 -1.0141 -0.8065
19421TIP3    H279679   1.580   6.616  13.101 -1.2975 -0.1925  2.5694
19422TIP3   OH279680   6.354   5.458  14.670 -0.2230  0.0129  0.6802
19422TIP3    H179681   6.428   5.397  14.661 -0.7670 -0.5713  0.1349
19422TIP3    H279682   6.324   5.445  14.760 -0.3794 -0.5733  0.5445
19423TIP3   OH279683   6.491   1.260  11.245  0.1612 -0.3685  0.1314
19423TIP3    H179684   6.398   1.271  11.226  0.1352  1.4191  1.1943
19423TIP3    H279685   6.529   1.347  11.230  1.9082 -1.4139 -1.6312
19424TIP3   OH279686   4.004   5.580   0.002 -0.2993 -0.1972 -0.1133
19424TIP3    H179687   3.945   5.626   0.063  0.3838  0.5805 -0.0268
19424TIP3    H279688   4.018   5.495   0.043 -0.6510 -0.0518  0.3190
19425TIP3   OH279689   0.388   0.301  15.359 -0.0210  0.2152  0.0350
19425TIP3    H179690   0.476   0.269  15.381 -1.5345 -1.4259  4.2989
19425TIP3    H279691   0.366   0.360  15.432 -2.9699 -0.4658 -0.2511
19426TIP3   OH279692   1.163   4.146  14.281  0.1145  0.1894  0.5065
19426TIP3    H179693   1.193   4.057  14.260 -2.7901 -1.0211  1.2466
19426TIP3    H279694   1.191   4.198  14.206  0.4221 -1.6853 -0.7283
19427TIP3   OH279695   4.203   6.306  10.834 -0.1302  0.0845  0.1048
19427TIP3    H179696   4.214   6.228  10.889  1.4821  0.0502 -0.2310
19427TIP3    H279697   4.196   6.272  10.745 -1.3933  0.2239  0.1371
19428TIP3   OH279698   5.038   5.022  10.603 -0.4421 -0.0762 -0.0516
19428TIP3    H179699   5.087   4.949  10.639 -1.3141 -0.7853 -0.2786
19428TIP3    H279700   5.103   5.089  10.585  0.1538 -0.1457  1.7674
19429TIP3   OH279701   4.496   0.943  12.109  0.0946 -0.0718  0.0704
19429TIP3    H179702   4.430   0.907  12.049  1.9469 -2.4507 -0.5610
19429TIP3    H279703   4.452   0.944  12.194 -1.8357  1.3749 -0.8838
19430TIP3   OH279704   1.921   2.671   4.946  0.4904  0.2008  0.1913
19430TIP3    H179705   1.973   2.716   5.012 -0.2219  1.2219  0.0646
19430TIP3    H279706   1.864   2.739   4.909 -1.9941 -1.1564  1.3511
19431TIP3   OH279707   5.854   4.597  16.748 -0.3003  0.0054 -0.7119
19431TIP3    H179708   5.828   4.644  16.669  2.4704 -1.3067 -2.4630
19431TIP3    H279709   5.866   4.506  16.720 -0.2135 -0.6762  1.4231
19432TIP3   OH279710   6.452   0.597   2.606  0.2409 -0.2342  0.2756
19432TIP3    H179711   6.395   0.568   2.677  0.3990 -1.6976 -0.1616
19432TIP3    H279712   6.391   0.630   2.539  0.0534  0.4667  0.7860
19433TIP3   OH279713   0.850   3.654  16.271  0.0088  0.3766  0.1895
19433TIP3    H179714   0.828   3.747  16.270 -0.3187  0.2841 -1.0238
19433TIP3    H279715   0.939   3.652  16.307 -0.2535  1.0911  0.9050
19434TIP3   OH279716   0.510   6.366   1.404 -0.0766  0.2282 -0.0400
19434TIP3    H179717   0.581   6.386   1.464  1.2352 -0.0040 -1.4737
19434TIP3    H279718   0.478   6.280   1.432  0.9176 -0.1446 -0.0230
19435TIP3   OH279719   2.516   4.807  13.645 -0.4033  0.0090 -0.6668
19435TIP3    H179720   2.527   4.900  13.666 -1.5965  0.1947 -0.8572
19435TIP3    H279721   2.567   4.795  13.565 -0.3189  0.5135 -0.6920
19436TIP3   OH279722   0.258   4.767  11.236  0.3151 -0.2148 -0.1155
19436TIP3    H179723   0.250   4.678  11.200 -2.2947 -0.1530  0.2099
19436TIP3    H279724   0.325   4.759  11.304 -1.3792 -2.4452  1.3737
19437TIP3   OH279725   3.436   1.104   0.092  0.3055  0.2835  0.5338
19437TIP3    H179726   3.476   1.114   0.178  1.5317 -2.6551  0.3405
19437TIP3    H279727   3.348   1.069   0.109  0.3860  0.1219  0.6145
19438TIP3   OH279728   6.583   3.974   5.976 -0.3895  0.4479 -0.2012
19438TIP3    H179729   6.507   3.936   5.933  0.4718 -1.6274  0.0601
19438TIP3    H279730   6.568   3.958   6.070  1.0820 -1.3420 -0.2554
19439TIP3   OH279731   3.337   0.266  13.133  0.2364 -0.0050 -0.5530
19439TIP3    H179732   3.386   0.329  13.081  0.5789 -0.2157 -0.4856
19439TIP3    H279733   3.380   0.182  13.117  2.0131  0.3226  2.1110
19440TIP3   OH279734   5.101   2.984  14.824 -0.8390 -0.2630  0.6738
19440TIP3    H179735   5.050   3.034  14.887  1.1195 -0.2025  2.2575
19440TIP3    H279736   5.067   2.894  14.832 -1.7571  0.0686  0.5664
19441TIP3   OH279737   3.128   5.637  14.488 -0.4041 -0.2298  0.0036
19441TIP3    H179738   3.223   5.628  14.495 -0.2173  1.2922 -0.3057
19441TIP3    H279739   3.115   5.706  14.422 -1.7130 -0.2750  0.1938
19442TIP3   OH279740   1.986   2.483   0.872 -0.0107  0.4306  0.2614
19442TIP3    H179741   1.947   2.514   0.954 -1.8433 -0.3675 -0.2725
19442TIP3    H279742   2.070   2.528   0.867 -0.5362  1.6465  1.8303
19443TIP3   OH279743   1.907   0.584   4.019  1.0013  0.2420  0.3056
19443TIP3    H179744   1.959   0.638   3.959  1.9310 -1.2027 -0.2061
19443TIP3    H279745   1.848   0.535   3.961  1.5412 -0.7664  0.5992
19444TIP3   OH279746   6.252   1.601  15.574 -0.7230 -0.1522  0.1034
19444TIP3    H179747   6.236   1.667  15.506 -0.5733  0.9209  1.0850
19444TIP3    H279748   6.176   1.607  15.631 -1.1950 -1.5629 -0.3460
19445TIP3   OH279749   4.606   0.074  14.721 -0.6594 -0.1852  0.3257
19445TIP3    H179750   4.607   0.108  14.810 -0.6062  1.1757 -0.1890
19445TIP3    H279751   4.568  -0.014  14.730 -1.4559  0.2667  1.5646
19446TIP3   OH279752   5.977   0.525  11.269 -0.5256 -0.0728  0.1691
19446TIP3    H179753   5.994   0.474  11.348  1.5761  1.0366  0.4669
19446TIP3    H279754   6.064   0.551  11.238 -1.3924  0.4330 -1.8838
19447TIP3   OH279755   3.913   2.820   3.914  0.9698 -0.5611  0.1151
19447TIP3    H179756   3.861   2.898   3.896  1.7482  0.0132  0.3223
19447TIP3    H279757   3.856   2.747   3.890  0.9332  0.1118 -2.0198
19448TIP3   OH279758   1.630   1.706   0.529  0.7351 -0.1300 -0.7686
19448TIP3    H179759   1.712   1.724   0.483  0.5536  0.8830 -0.7192
19448TIP3    H279760   1.564   1.706   0.461  0.8038 -1.1402 -0.8324
19449TIP3   OH279761   6.268   1.689   6.157  0.5216 -0.2210 -0.1034
19449TIP3    H179762   6.290   1.597   6.168 -1.3661 -0.7950 -0.9600
19449TIP3    H279763   6.219   1.693   6.075 -1.0276  1.2620  0.8594
19450TIP3   OH279764   6.593   5.717   1.249 -0.0954  0.3891  0.0633
19450TIP3    H179765   6.557   5.629   1.243  0.7787  0.1737 -3.4838
19450TIP3    H279766   6.686   5.704   1.268  0.4396  0.4116 -2.3919
19451TIP3   OH279767   0.474   3.814   2.775  0.3169 -0.7129  0.3062
19451TIP3    H179768   0.503   3.782   2.689 -0.1485 -1.2200  0.3365
19451TIP3    H279769   0.400   3.758   2.797 -0.6180  0.4890  0.2845
19452TIP3   OH279770   0.786   1.805   6.072  0.0398  0.1371  0.3967
19452TIP3    H179771   0.725   1.873   6.042 -0.8847 -0.7083  0.3661
19452TIP3    H279772   0.753   1.778   6.157 -0.5938 -1.5054 -0.3484
19453TIP3   OH279773   1.428   3.970  13.478 -0.2564 -0.1097  0.3652
19453TIP3    H179774   1.428   4.034  13.549 -1.0931  0.0747  0.2100
19453TIP3    H279775   1.432   4.023  13.398  1.4715 -0.3454  0.2826
19454TIP3   OH279776   3.839   0.186  16.657  0.2156 -0.1456 -0.2993
19454TIP3    H179777   3.926   0.205  16.624 -0.5618  0.8039 -1.8262
19454TIP3    H279778   3.851   0.176  16.752  1.6086  2.1880 -0.1997
19455TIP3   OH279779   2.412   5.695  11.021  0.7621  0.2601 -0.6488
19455TIP3    H179780   2.350   5.690  10.949  2.1515  0.7867 -1.9093
19455TIP3    H279781   2.459   5.777  11.007  1.2567  0.2289  0.6999
19456TIP3   OH279782   5.599   4.572   1.237  0.0886 -0.2046  0.4209
19456TIP3    H179783   5.661   4.645   1.232 -0.1775  0.0300  0.4947
19456TIP3    H279784   5.587   4.556   1.330  0.3021 -0.4790  0.4020
19457TIP3   OH279785   4.496   1.044  11.344 -0.0813 -0.4585  0.0059
19457TIP3    H179786   4.432   1.001  11.287 -0.0326  1.6030 -1.6292
19457TIP3    H279787   4.576   0.992  11.334  0.8295  1.5890 -4.2056
19458TIP3   OH279788   5.549   3.223  13.630 -0.1552  0.0341  0.1586
19458TIP3    H179789   5.628   3.176  13.658 -0.9695 -1.1040  0.5956
19458TIP3    H279790   5.559   3.311  13.667  1.4634  0.2579 -0.7928
19459TIP3   OH279791   2.601   3.020   3.357 -0.9013  0.2364 -0.3316
19459TIP3    H179792   2.554   3.032   3.275 -0.1264 -1.9855 -1.1512
19459TIP3    H279793   2.682   3.071   3.346 -0.0146 -1.4139 -1.6619
19460TIP3   OH279794   5.845   1.085  13.231  0.4863 -0.4141 -0.2122
19460TIP3    H179795   5.852   1.180  13.246  0.0866 -0.4150  0.0057
19460TIP3    H279796   5.750   1.070  13.225  0.5192 -0.9123  0.4814
19461TIP3   OH279797   3.795   1.337  11.993  0.3216 -0.9747 -0.8801
19461TIP3    H179798   3.819   1.307  11.905  0.0668 -1.8303 -0.6615
19461TIP3    H279799   3.763   1.259  12.037 -3.9154  0.3062 -1.5115
19462TIP3   OH279800   5.610   0.863   5.309  0.0079  0.2510 -0.3146
19462TIP3    H179801   5.649   0.940   5.350 -1.7155  0.7389  0.4357
19462TIP3    H279802   5.609   0.884   5.215  0.8936  0.5067 -0.2809
19463TIP3   OH279803   3.580   5.413  11.009  0.4112 -0.4265 -0.2414
19463TIP3    H179804   3.657   5.445  11.056  0.1042 -1.0286  0.6800
19463TIP3    H279805   3.524   5.491  10.999  0.6077 -0.2362  0.1371
19464TIP3   OH279806   3.125   5.817   3.497  0.0707  0.4109  0.4388
19464TIP3    H179807   3.164   5.790   3.414 -2.4560  1.1259 -1.0245
19464TIP3    H279808   3.121   5.737   3.549  0.9918 -0.1911 -0.3981
19465TIP3   OH279809   0.057   6.782   4.468  0.2862 -0.3296 -0.0121
19465TIP3    H179810   0.067   6.864   4.418  0.2120  1.1620  2.3443
19465TIP3    H279811   0.147   6.754   4.485  0.3498  0.5012  1.1046
19466TIP3   OH279812   5.102   1.325   1.998  0.0293 -0.1703 -0.5565
19466TIP3    H179813   5.091   1.411   2.039 -0.6478 -0.7821  0.5872
19466TIP3    H279814   5.020   1.310   1.952  0.1246 -0.2173 -0.7100
19467TIP3   OH279815   3.419   5.827  14.245 -0.0155  0.1903  1.1070
19467TIP3    H179816   3.363   5.749  14.252  0.5529 -0.5668 -2.2139
19467TIP3    H279817   3.508   5.794  14.254  0.1760  0.5827  0.6793
19468TIP3   OH279818   2.737   5.405  11.676 -0.4427  0.4026 -0.0400
19468TIP3    H179819   2.749   5.316  11.709 -0.9109  0.3766  0.0702
19468TIP3    H279820   2.787   5.408  11.595  0.2674  0.2952  0.3897
19469TIP3   OH279821   6.416   3.454  16.537 -0.5312  0.1992 -0.0667
19469TIP3    H179822   6.383   3.396  16.606 -0.4154 -0.3928 -0.5117
19469TIP3    H279823   6.475   3.400  16.486  0.8421  1.1417  0.4756
19470TIP3   OH279824   1.606   5.137   3.687 -0.5546 -0.1454  0.0398
19470TIP3    H179825   1.653   5.201   3.741 -0.5098  0.9522 -1.2647
19470TIP3    H279826   1.660   5.059   3.689 -0.3180  0.0374  1.2057
19471TIP3   OH279827   0.052   1.527   4.950  0.1477  0.0722  0.1878
19471TIP3    H179828   0.093   1.518   5.036  1.1415  1.5462 -0.1158
19471TIP3    H279829   0.118   1.493   4.889 -0.4054 -0.6195 -0.0306
19472TIP3   OH279830   1.202   2.914   4.120  0.3242  0.4028  0.7718
19472TIP3    H179831   1.196   2.851   4.191 -0.7712  0.1256  0.4445
19472TIP3    H279832   1.284   2.894   4.076 -1.1278 -2.3792 -0.8010
19473TIP3   OH279833   4.679   5.749   5.772 -0.2022  0.4989  0.3495
19473TIP3    H179834   4.734   5.673   5.750 -0.7449  0.0210  0.6254
19473TIP3    H279835   4.685   5.756   5.867  1.4721  2.0530  0.1594
19474TIP3   OH279836   0.922   6.714   2.641  0.1586 -0.0877 -0.4747
19474TIP3    H179837   1.013   6.742   2.636  0.2792 -0.5274 -0.7572
19474TIP3    H279838   0.888   6.756   2.720  0.3364  0.8515 -0.9015
19475TIP3   OH279839   2.733   1.924  16.716  0.3162 -0.1307 -0.1728
19475TIP3    H179840   2.796   1.973  16.662  0.6108  0.3661  0.6135
19475TIP3    H279841   2.745   1.833  16.689 -0.5563  0.2537 -1.9760
19476TIP3   OH279842   2.039   3.636  16.310  0.1354 -0.4312  0.9220
19476TIP3    H179843   2.112   3.608  16.254 -0.1746 -0.8413  0.7212
19476TIP3    H279844   1.961   3.607  16.263 -0.0733 -2.2323  2.3828
19477TIP3   OH279845   0.368   6.403  11.685  0.0126  0.0071  0.6542
19477TIP3    H179846   0.408   6.323  11.651  1.4655  0.3563  1.4933
19477TIP3    H279847   0.391   6.470  11.621 -0.8167 -0.1496  0.1863
19478TIP3   OH279848   5.925   3.984   4.398  0.2667  0.0321 -0.0030
19478TIP3    H179849   5.858   3.947   4.342 -0.2976  1.7830 -0.5290
19478TIP3    H279850   6.008   3.957   4.358 -0.1123 -1.6747  0.3447
19479TIP3   OH279851   0.759   2.854  14.707  0.1705 -0.6751  0.1870
19479TIP3    H179852   0.723   2.813  14.786  0.0886 -2.0452 -0.5451
19479TIP3    H279853   0.851   2.871  14.729 -0.1993  0.2469  1.0660
19480TIP3   OH279854   2.432   1.672  15.982 -0.6881 -0.1300 -0.1189
19480TIP3    H179855   2.492   1.651  15.911 -1.3126  0.7533 -0.9322
19480TIP3    H279856   2.345   1.665  15.943 -1.0474  0.2086  0.6020
19481TIP3   OH279857   0.660   0.206   5.230  0.3591  0.0540  0.1338
19481TIP3    H179858   0.722   0.140   5.259  0.2287 -0.7849 -1.4061
19481TIP3    H279859   0.707   0.255   5.162 -0.2859  0.1307 -0.2605
19482TIP3   OH279860   3.553   5.902   0.379 -0.0797  0.2104 -0.5198
19482TIP3    H179861   3.634   5.874   0.421  0.0418  0.5347 -0.5400
19482TIP3    H279862   3.538   5.837   0.311 -0.3982 -0.4439  0.1733
19483TIP3   OH279863   2.304   6.723   1.682  0.7666 -0.0879 -0.1645
19483TIP3    H179864   2.241   6.750   1.748 -0.1865  0.3734 -1.2579
19483TIP3    H279865   2.338   6.640   1.714 -1.4410 -1.0592 -0.2707
19484TIP3   OH279866   5.774   4.222   0.280  0.4225  0.4953 -0.3176
19484TIP3    H179867   5.719   4.296   0.307 -1.0728 -1.0595  1.0032
19484TIP3    H279868   5.791   4.238   0.187 -1.8637  1.2935 -0.6437
19485TIP3   OH279869   2.637   5.308  13.484 -0.4707 -0.0515  0.3629
19485TIP3    H179870   2.555   5.353  13.506 -0.1362  0.7480  0.0204
19485TIP3    H279871   2.703   5.377  13.488 -0.3904  0.1460 -3.0948
19486TIP3   OH279872   3.148   1.583  13.304 -0.4714 -0.0941 -0.4570
19486TIP3    H179873   3.079   1.544  13.358 -1.5085  1.2506 -0.7594
19486TIP3    H279874   3.221   1.598  13.364 -0.5862 -1.1837 -0.0438
19487TIP3   OH279875   2.385   3.366  10.486  0.3767  0.5498  0.5266
19487TIP3    H179876   2.299   3.384  10.523 -0.4216  0.9518 -1.4772
19487TIP3    H279877   2.388   3.417  10.406  1.6817 -1.0757 -0.4928
19488TIP3   OH279878   5.757   6.690  11.427 -0.2919 -0.6832  0.1441
19488TIP3    H179879   5.720   6.770  11.391  1.5151 -0.7679 -2.0100
19488TIP3    H279880   5.728   6.689  11.519 -0.6018  2.2487  0.1304
19489TIP3   OH279881   1.976   3.724  12.988  0.1842  0.0323  0.0292
19489TIP3    H179882   1.936   3.807  12.965  1.1214  0.1973 -1.0973
19489TIP3    H279883   1.941   3.702  13.074 -0.9448  1.0228 -0.1705
19490TIP3   OH279884   0.193   3.226   2.687  0.5032 -0.2977 -0.1536
19490TIP3    H179885   0.180   3.172   2.765 -1.8377  2.2663  1.3143
19490TIP3    H279886   0.285   3.252   2.692  0.0059  1.1875  2.7356
19491TIP3   OH279887   0.899   2.891   5.695  0.3034  0.5686  0.0823
19491TIP3    H179888   0.889   2.869   5.787  1.1126 -2.0135 -0.4176
19491TIP3    H279889   0.825   2.848   5.652  1.8360 -1.1813 -0.8889
19492TIP3   OH279890   2.742   3.219  16.580  0.4459  0.5767  0.2701
19492TIP3    H179891   2.690   3.182  16.651  0.1977 -0.0353 -0.2270
19492TIP3    H279892   2.677   3.255  16.519  0.6244  0.3754 -0.0400
19493TIP3   OH279893   0.566   6.453  16.340  0.3262  0.0754  0.2442
19493TIP3    H179894   0.644   6.430  16.391  0.1615 -0.5477  0.2190
19493TIP3    H279895   0.577   6.546  16.321  0.7663  0.1327  0.7590
19494TIP3   OH279896   0.184   4.995   1.369 -0.3012  0.0265  0.5042
19494TIP3    H179897   0.274   4.975   1.342  0.9311  2.4300  2.6664
19494TIP3    H279898   0.173   5.089   1.352 -2.1203 -0.0514  1.0751
19495TIP3   OH279899   5.080   6.305   5.841  0.0988 -0.4348 -0.2417
19495TIP3    H179900   5.072   6.261   5.926 -1.0040  1.4960  0.6790
19495TIP3    H279901   4.990   6.326   5.817  0.6197  1.5510 -0.5205
19496TIP3   OH279902   3.674   1.701  11.474 -0.4652 -0.0836  0.4789
19496TIP3    H179903   3.640   1.628  11.422 -0.8102  0.6806 -0.3725
19496TIP3    H279904   3.666   1.777  11.417 -2.0840  1.0166  2.1118
19497TIP3   OH279905   6.100   1.327  12.309  0.1678  0.7661  0.3321
19497TIP3    H179906   6.129   1.375  12.386  3.8166 -2.6681  1.2342
19497TIP3    H279907   6.048   1.255  12.344 -0.5294  0.7682 -0.6664
19498TIP3   OH279908   0.156   6.076  15.655  0.5493  0.0431 -0.2534
19498TIP3    H179909   0.119   6.164  15.652 -0.1682 -0.2373  0.3388
19498TIP3    H279910   0.088   6.020  15.619  1.7355 -0.0448 -2.4818
19499TIP3   OH279911   3.185   0.864  14.437  0.2590  0.3755  0.0420
19499TIP3    H179912   3.258   0.851  14.497 -0.0659 -2.9432 -0.1806
19499TIP3    H279913   3.226   0.874  14.351  0.5173  0.4586  0.1748
19500TIP3   OH279914   3.171   6.347   1.803 -0.3324  0.1431  0.9230
19500TIP3    H179915   3.233   6.399   1.853  1.7944 -3.3315  2.1181
19500TIP3    H279916   3.091   6.346   1.856  0.3334  0.3955  1.9381
19501TIP3   OH279917   4.996   1.092  16.702  0.3652  0.8516 -0.4563
19501TIP3    H179918   4.909   1.132  16.695 -0.2637 -0.5698 -1.0299
19501TIP3    H279919   5.011   1.053  16.616  1.1912  0.3172 -0.0711
19502TIP3   OH279920   1.002   1.379   5.545  0.2388 -0.1702  0.1256
19502TIP3    H179921   0.944   1.375   5.469  0.7979 -0.8283 -0.2729
19502TIP3    H279922   0.960   1.322   5.610 -0.4116  0.6547  0.4369
19503TIP3   OH279923   5.086   5.762  13.701 -0.2934  0.1822 -0.2347
19503TIP3    H179924   5.078   5.778  13.607 -2.1041 -0.6581 -0.2380
19503TIP3    H279925   5.039   5.680  13.716 -0.2708  0.4497  1.4475
19504TIP3   OH279926   6.722   4.348  14.286 -0.2123  0.7823  0.7865
19504TIP3    H179927   6.654   4.282  14.294 -0.7804  1.3039  0.3460
19504TIP3    H279928   6.793   4.305  14.238 -0.3836  0.3575  0.9160
19505TIP3   OH279929   3.404   2.822  11.832 -0.0817 -0.6502  0.5637
19505TIP3    H179930   3.395   2.908  11.873  0.1282 -0.0877 -0.5265
19505TIP3    H279931   3.470   2.836  11.763 -1.2894 -1.2700 -0.7387
19506TIP3   OH279932   4.711   6.200   0.392 -0.0946  0.5419 -0.0470
19506TIP3    H179933   4.806   6.211   0.397 -0.1234  0.3030  1.1861
19506TIP3    H279934   4.693   6.189   0.299  1.5754 -3.6833  0.0338
19507TIP3   OH279935   6.737   4.733  13.051  0.0586 -0.1486  0.0837
19507TIP3    H179936   6.763   4.657  12.999 -0.3317 -0.3955  0.2465
19507TIP3    H279937   6.808   4.745  13.114  0.0027 -0.5320  0.2203
19508TIP3   OH279938   1.898   5.551   1.340  0.5680  0.8279 -0.2616
19508TIP3    H179939   1.982   5.593   1.356  0.2619  1.3258  0.0317
19508TIP3    H279940   1.862   5.533   1.427  1.5468 -1.7660 -0.3466
19509TIP3   OH279941   0.283   3.139  17.071 -0.1869 -0.0922  0.0444
19509TIP3    H179942   0.252   3.169  16.986  1.1521  1.3187  0.0106
19509TIP3    H279943   0.364   3.092  17.052  0.0304  0.0868  0.5177
19510TIP3   OH279944   4.266   4.080  13.153 -0.2951 -0.1812 -0.0396
19510TIP3    H179945   4.236   4.012  13.092  0.0405 -0.4145  0.0524
19510TIP3    H279946   4.204   4.152  13.140 -0.7670 -0.5714 -0.0133
19511TIP3   OH279947   3.533   6.664   4.811  0.4345 -0.3254  0.5668
19511TIP3    H179948   3.471   6.720   4.763  0.9652 -0.1293  0.0921
19511TIP3    H279949   3.618   6.704   4.793  0.8035 -1.2045  0.3482
19512TIP3   OH279950   4.133   5.631  14.044 -0.0804 -0.5782  0.0876
19512TIP3    H179951   4.168   5.718  14.026 -0.9513  0.2615  2.3559
19512TIP3    H279952   4.208   5.581  14.075  0.4518 -0.6929 -1.3548
19513TIP3   OH279953   6.642   1.900  11.233  0.4215  0.0212 -0.2333
19513TIP3    H179954   6.561   1.923  11.278  0.7043 -0.2409  0.4136
19513TIP3    H279955   6.657   1.973  11.172 -1.1151 -0.6653 -1.4703
19514TIP3   OH279956   4.269   2.468   2.345  0.0447  0.5070 -0.6809
19514TIP3    H179957   4.342   2.460   2.406  0.9642  1.1619 -1.6598
19514TIP3    H279958   4.266   2.561   2.323  0.2768  0.1585 -2.2754
19515TIP3   OH279959   0.171   6.754  12.833 -0.1588 -0.3951 -0.1402
19515TIP3    H179960   0.120   6.831  12.857 -1.4741 -1.3804  0.2682
19515TIP3    H279961   0.113   6.703  12.776  1.0427 -0.6310 -1.1903
19516TIP3   OH279962   5.824   2.868   2.571  0.0278  0.7699  0.3460
19516TIP3    H179963   5.885   2.928   2.615  0.0809  2.2609 -1.7027
19516TIP3    H279964   5.779   2.923   2.507 -1.8790 -0.8148  0.2977
19517TIP3   OH279965   1.834   6.039  11.522  0.1434 -0.0826  0.1580
19517TIP3    H179966   1.842   6.046  11.427  0.7095  1.9844  0.3375
19517TIP3    H279967   1.766   5.973  11.535  0.8890 -1.2766 -1.6584
19518TIP3   OH279968   6.136   5.742  15.530 -0.0084  0.3282 -0.7487
19518TIP3    H179969   6.133   5.803  15.456  3.1056  1.7388  0.2292
19518TIP3    H279970   6.116   5.657  15.491 -0.5930  1.3729 -2.8171
19519TIP3   OH279971   4.816   4.765   0.603 -0.1377  0.2650 -0.6282
19519TIP3    H179972   4.817   4.813   0.686 -2.0216  1.1204 -1.0748
19519TIP3    H279973   4.829   4.832   0.536  1.2344 -0.4048 -1.0382
19520TIP3   OH279974   5.860   6.116  11.274 -0.4015  0.3733 -0.2770
19520TIP3    H179975   5.921   6.185  11.246  0.2675 -0.0217  0.2077
19520TIP3    H279976   5.811   6.155  11.346  0.5138  0.0828  0.5115
19521TIP3   OH279977   3.178   0.161   5.912 -0.8031  0.2915 -0.1973
19521TIP3    H179978   3.177   0.252   5.941  0.9835  0.9425 -2.0858
19521TIP3    H279979   3.176   0.110   5.993 -0.7497  2.0074  0.9120
19522TIP3   OH279980   0.435   1.373  12.281 -0.0231  0.1175  1.0693
19522TIP3    H179981   0.507   1.315  12.308  0.2152  0.2266  0.6744
19522TIP3    H279982   0.364   1.353  12.342  0.4563  0.2429  1.6742
19523TIP3   OH279983   5.989   2.790  13.518  0.2423  0.0318 -0.1485
19523TIP3    H179984   5.939   2.799  13.437  1.1399  0.2286 -0.6890
19523TIP3    H279985   6.077   2.766  13.490  0.4306 -0.4269  0.7979
19524TIP3   OH279986   6.205   5.327   0.172  0.4601 -0.5105 -0.7055
19524TIP3    H179987   6.168   5.246   0.206  0.5716 -1.2740 -2.3540
19524TIP3    H279988   6.183   5.393   0.238 -0.0648 -1.7709  0.4092
19525TIP3   OH279989   6.591   5.728  14.383 -0.0548  0.1126  0.0868
19525TIP3    H179990   6.514   5.775  14.349  0.7768  1.2586 -0.2308
19525TIP3    H279991   6.599   5.652  14.325  0.2499  1.0649 -1.1524
19526TIP3   OH279992   1.236   1.371   3.479  0.4329 -0.4264 -0.1318
19526TIP3    H179993   1.160   1.376   3.538  0.3833  0.0379 -0.2360
19526TIP3    H279994   1.229   1.284   3.439  0.8181 -0.9915  1.0116
19527TIP3   OH279995   4.536   5.950   0.340 -0.6872  0.5251  0.4309
19527TIP3    H179996   4.511   6.006   0.267 -2.2567 -1.0575 -0.2835
19527TIP3    H279997   4.476   5.975   0.411 -1.2119 -0.0524  0.1954
19528TIP3   OH279998   6.111   1.632   4.890  0.0645 -0.2072 -0.0245
19528TIP3    H179999   6.204   1.616   4.875 -0.0891  0.6545 -2.1696
19528TIP3    H280000   6.089   1.703   4.829 -1.7923  0.2533  1.1155
19529TIP3   OH280001   2.750   2.727  14.080  0.0692 -0.1376 -0.1978
19529TIP3    H180002   2.786   2.679  14.154  1.3350  1.4884  0.2727
19529TIP3    H280003   2.730   2.814  14.115  0.5546  0.6084 -1.7057
19530TIP3   OH280004   4.082   6.701   0.425  0.0898  0.1654  0.6308
19530TIP3    H180005   4.161   6.698   0.371 -0.4893 -0.3572 -0.1923
19530TIP3    H280006   4.061   6.610   0.442 -0.8443  0.2746  0.0999
19531TIP3   OH280007   0.795   2.296   0.214  0.2686 -0.6655  0.3624
19531TIP3    H180008   0.756   2.216   0.179  0.1919 -0.8435  0.8543
19531TIP3    H280009   0.858   2.266   0.278 -1.9280 -0.2631  2.7827
19532TIP3   OH280010   1.372   6.133  15.068  0.1773 -0.2386  0.4872
19532TIP3    H180011   1.395   6.169  15.154 -1.7531 -1.1511  1.4173
19532TIP3    H280012   1.457   6.120  15.024  1.1661  0.6140  2.0839
19533TIP3   OH280013   4.689   1.142  13.312 -0.2310 -0.0861 -0.4230
19533TIP3    H180014   4.781   1.146  13.287 -0.3100 -1.8745 -1.1322
19533TIP3    H280015   4.667   1.049  13.305 -1.6636  0.0907  1.3178
19534TIP3   OH280016   6.717   4.702  13.714 -0.1626  0.4751 -0.4835
19534TIP3    H180017   6.701   4.607  13.715  1.6734  0.1598 -0.4811
19534TIP3    H280018   6.700   4.727  13.623  0.7669 -0.1071 -0.8227
19535TIP3   OH280019   1.512   2.023   4.374 -0.5164 -0.0629 -0.0347
19535TIP3    H180020   1.538   1.995   4.287 -0.3444  1.6451 -0.5601
19535TIP3    H280021   1.594   2.029   4.423 -0.1122  2.8072 -0.9392
19536TIP3   OH280022   0.551   3.098   2.755 -0.1751 -0.0565  0.1046
19536TIP3    H180023   0.623   3.056   2.709  0.5756 -0.0800  1.2709
19536TIP3    H280024   0.541   3.047   2.835 -0.2348  1.0755  0.8340
19537TIP3   OH280025   0.238   1.793   2.080 -0.2391  0.5228 -0.6906
19537TIP3    H180026   0.183   1.770   2.005 -0.8818  0.6384 -0.2630
19537TIP3    H280027   0.181   1.779   2.156  1.1484 -1.8360 -0.0528
19538TIP3   OH280028   0.703   2.871  16.891  0.2509 -0.0947  0.7157
19538TIP3    H180029   0.707   2.826  16.975  0.4027 -1.6951 -0.1301
19538TIP3    H280030   0.772   2.830  16.839 -2.3376 -1.8272 -1.4717
19539TIP3   OH280031   3.671   0.802  15.817 -0.2848  0.5726  0.2316
19539TIP3    H180032   3.729   0.878  15.812  0.8627 -0.3372 -0.7740
19539TIP3    H280033   3.605   0.818  15.750 -0.2024  0.8185  0.2069
19540TIP3   OH280034   0.893   2.877   3.056 -0.6906  0.2848  0.0703
19540TIP3    H180035   0.978   2.860   3.016 -0.6301  1.0409 -0.1401
19540TIP3    H280036   0.829   2.845   2.992 -0.5772  0.6651 -0.2389
19541TIP3   OH280037   3.532   2.182   4.599  0.0917 -0.3046  0.2924
19541TIP3    H180038   3.543   2.236   4.521  2.1782  2.4060  2.3598
19541TIP3    H280039   3.437   2.172   4.609 -0.1910 -1.1601 -2.8358
19542TIP3   OH280040   4.309   0.906  17.007  0.4426  0.7238 -0.1082
19542TIP3    H180041   4.342   0.993  17.029  1.4599  0.3199 -0.0208
19542TIP3    H280042   4.268   0.917  16.921  2.5874  0.8101 -1.1519
19543TIP3   OH280043   5.611   6.772   1.568  0.0099 -0.0532 -0.4365
19543TIP3    H180044   5.529   6.820   1.558  0.1926  0.3867  0.1001
19543TIP3    H280045   5.624   6.767   1.663 -0.1798 -1.4840 -0.4869
19544TIP3   OH280046   2.825   4.315  16.633  0.0271  0.1449  0.3703
19544TIP3    H180047   2.778   4.332  16.714  1.4533  1.4069  0.9727
19544TIP3    H280048   2.882   4.391  16.623 -0.9760  0.5677 -2.4398
19545TIP3   OH280049   5.997   1.538  12.175 -0.0857  0.5356 -0.1190
19545TIP3    H180050   6.015   1.603  12.243  2.7827 -0.8326  0.4826
19545TIP3    H280051   6.006   1.453  12.219  0.9677 -0.3452 -1.9792
19546TIP3   OH280052   1.289   6.634  13.123 -0.1578  0.1108 -0.2534
19546TIP3    H180053   1.201   6.602  13.143  0.3610 -0.6372  0.9395
19546TIP3    H280054   1.275   6.709  13.065 -1.6555  0.8797  1.0425
19547TIP3   OH280055   2.493   3.167   6.642  0.3376  0.7073  0.0788
19547TIP3    H180056   2.433   3.094   6.659  0.3992  0.3698 -1.0659
19547TIP3    H280057   2.497   3.215   6.724  0.1643 -0.4859  0.7957
19548TIP3   OH280058   0.954   5.698  16.727  0.0826 -0.2219  0.1907
19548TIP3    H180059   0.865   5.689  16.693 -0.0056 -0.2216  0.4168
19548TIP3    H280060   0.974   5.613  16.765 -0.7089  0.4456  2.2211
19549TIP3   OH280061   0.397   1.800  17.238 -0.5401 -0.0123  0.1826
19549TIP3    H180062   0.434   1.761  17.158 -1.7112  0.9564 -0.8607
19549TIP3    H280063   0.402   1.730  17.303  1.1610 -0.5680 -0.5137
19550TIP3   OH280064   2.797   3.844  16.077  0.3302  0.0090 -0.6565
19550TIP3    H180065   2.887   3.834  16.108 -0.0347 -1.8907 -0.1842
19550TIP3    H280066   2.764   3.921  16.123  1.0263 -0.5439  0.7697
19551TIP3   OH280067   3.126   3.758  14.180 -0.0557 -0.3874 -0.0894
19551TIP3    H180068   3.142   3.846  14.146  0.6843  0.5500  2.5463
19551TIP3    H280069   3.211   3.715  14.177 -0.0378 -0.3824  0.3390
19552TIP3   OH280070   1.917   0.322  12.320 -0.2149  0.1764  0.0323
19552TIP3    H180071   1.824   0.304  12.331  0.4047 -2.4020  1.2571
19552TIP3    H280072   1.946   0.260  12.253  0.8711  0.1184  0.5439
19553TIP3   OH280073   5.921   0.669   5.401 -0.2236 -0.5297  0.1657
19553TIP3    H180074   5.915   0.671   5.306 -1.1006 -0.8574  0.2117
19553TIP3    H280075   6.007   0.630   5.419  0.3006  0.2981 -0.4838
19554TIP3   OH280076   4.017   5.726  11.303  0.3170 -0.1726 -0.4133
19554TIP3    H180077   4.001   5.714  11.396  0.9960  1.2848 -0.0984
19554TIP3    H280078   3.936   5.764  11.269  0.2890 -0.1329 -0.3022
19555TIP3   OH280079   1.816   1.575  13.174 -0.3020  0.2608 -0.0425
19555TIP3    H180080   1.873   1.643  13.138  1.5848  0.5369  3.2931
19555TIP3    H280081   1.750   1.623  13.225  0.3003 -0.3142  1.3077
19556TIP3   OH280082   1.882   5.538  11.320  0.2464 -1.1401  0.5863
19556TIP3    H180083   1.881   5.442  11.319 -1.9791 -1.1328  0.7098
19556TIP3    H280084   1.866   5.563  11.229  1.8869 -0.8642  0.3550
19557TIP3   OH280085   2.559   4.382  11.924  0.3173 -0.0134  0.0273
19557TIP3    H180086   2.464   4.372  11.922  0.2721  0.2241  0.8950
19557TIP3    H280087   2.590   4.337  11.845 -0.4567 -0.7091  0.1220
19558TIP3   OH280088   2.656   5.479   5.024  0.2079  0.3331  0.3302
19558TIP3    H180089   2.694   5.537   4.958 -0.4669 -0.1690 -0.5229
19558TIP3    H280090   2.567   5.462   4.992 -1.2178  2.5253  2.9506
19559TIP3   OH280091   5.517   4.093   0.481 -0.0633 -1.0997 -0.1811
19559TIP3    H180092   5.568   4.098   0.562 -1.6795  0.8974  0.7690
19559TIP3    H280093   5.518   4.182   0.446  0.1840 -1.8287 -2.1257
19560TIP3   OH280094   4.049   2.407  11.142  0.2789 -0.5627  0.1423
19560TIP3    H180095   4.017   2.317  11.130 -0.0781 -0.4929  0.5349
19560TIP3    H280096   4.049   2.444  11.054  0.3465 -0.9217 -0.0120
19561TIP3   OH280097   0.269   1.448   2.072 -0.0433  0.4200  0.1828
19561TIP3    H180098   0.301   1.394   2.144  0.7706  0.6706  0.0190
19561TIP3    H280099   0.191   1.402   2.040  0.3767 -0.4170  0.3362
19562TIP3   OH280100   4.800   3.785  14.016  0.6418 -0.0845  0.1038
19562TIP3    H180101   4.799   3.693  14.041  0.4313 -0.4894 -1.3560
19562TIP3    H280102   4.893   3.809  14.015  0.7122 -0.3574  0.2404
19563TIP3   OH280103   4.469   0.658  11.642 -0.0089  1.1001  0.1750
19563TIP3    H180104   4.553   0.648  11.597  0.4461  0.8888  1.0489
19563TIP3    H280105   4.431   0.571  11.642  0.8100  0.7209  1.7473
19564TIP3   OH280106   0.232   3.412   4.337  0.4052 -0.2321 -0.1029
19564TIP3    H180107   0.156   3.418   4.279  1.4098 -1.2505 -1.5552
19564TIP3    H280108   0.247   3.502   4.367 -0.0333  0.3305 -1.5401
19565TIP3   OH280109   3.672   0.581  12.789  0.5028  0.4555  0.8685
19565TIP3    H180110   3.620   0.621  12.720 -0.5429 -1.1144  0.7211
19565TIP3    H280111   3.730   0.651  12.819  0.0487  1.5159 -0.6806
19566TIP3   OH280112   6.218   0.616  11.956  0.7387  0.8778  0.5188
19566TIP3    H180113   6.254   0.528  11.971 -1.0797  0.0526  0.2020
19566TIP3    H280114   6.154   0.627  12.026 -1.1692  0.7269 -1.1608
19567TIP3   OH280115   4.249   1.962  11.634 -0.5191  0.1584 -0.5399
19567TIP3    H180116   4.209   1.886  11.591 -1.5505  0.8389 -0.7870
19567TIP3    H280117   4.326   1.981  11.581  0.0156 -1.0076 -0.2047
19568TIP3   OH280118   0.080   6.543   0.002  0.1270 -0.0906  0.0906
19568TIP3    H180119   0.084   6.540  -0.094 -0.6185 -1.7643  0.1029
19568TIP3    H280120   0.010   6.605   0.021 -0.2634 -0.3457 -0.4718
19569TIP3   OH280121   0.216   6.057  13.385 -0.0357 -0.0800 -0.0358
19569TIP3    H180122   0.222   6.059  13.481  0.8594  1.0252 -0.0943
19569TIP3    H280123   0.182   6.144  13.362  3.3595  1.0959 -0.8980
19570TIP3   OH280124   5.736   0.652   3.981  0.5447  0.0287 -0.2867
19570TIP3    H180125   5.713   0.744   3.994  0.6876 -0.0066  0.2361
19570TIP3    H280126   5.683   0.624   3.907  0.4119  0.5025 -0.3688
19571TIP3   OH280127   5.444   3.527  16.312  0.0286  0.1554 -0.0224
19571TIP3    H180128   5.372   3.466  16.302 -1.1454  1.5119 -0.0060
19571TIP3    H280129   5.414   3.590  16.377  1.6069  0.1943  0.6918
19572TIP3   OH280130   6.453   4.247   1.304 -0.3406  0.9518 -0.1376
19572TIP3    H180131   6.501   4.182   1.253  1.6926  1.0697  1.5766
19572TIP3    H280132   6.486   4.331   1.273 -0.1269  1.0610  0.3835
19573TIP3   OH280133   2.515   1.097  10.575  0.3514  0.1514  0.3975
19573TIP3    H180134   2.421   1.088  10.590  0.0652  0.2884 -1.2043
19573TIP3    H280135   2.544   1.009  10.552  0.2370  0.4844 -1.0543
19574TIP3   OH280136   0.816   3.347   0.508 -0.1268  0.1982 -0.7107
19574TIP3    H180137   0.756   3.303   0.568  0.4649  0.9076  0.4126
19574TIP3    H280138   0.873   3.278   0.476  0.2377 -0.0077  0.3686
19575TIP3   OH280139   6.147   2.314  12.986 -0.4924  0.7568  0.1572
19575TIP3    H180140   6.055   2.335  12.998 -0.2438  0.7696  2.2152
19575TIP3    H280141   6.194   2.388  13.023  0.3550  0.7647 -0.9082
19576TIP3   OH280142   0.841   0.009  13.709 -0.0375  0.6466 -0.1064
19576TIP3    H180143   0.799   0.078  13.762  0.1446  1.9405 -1.5952
19576TIP3    H280144   0.864   0.053  13.628  0.3741 -1.1285 -0.9705
19577TIP3   OH280145   6.174   1.313   2.957  0.1211 -0.0560  0.2222
19577TIP3    H180146   6.160   1.218   2.962  1.5073 -0.2397  0.9112
19577TIP3    H280147   6.128   1.340   2.877  1.4517 -1.6287 -1.1137
19578TIP3   OH280148   1.757   3.457   5.391 -0.4642 -0.5335 -0.2291
19578TIP3    H180149   1.824   3.388   5.393 -1.3251 -1.3583  0.5590
19578TIP3    H280150   1.755   3.485   5.299  0.0365 -1.4217 -0.5177
19579TIP3   OH280151   1.460   6.581   5.814  0.1373  0.3620  0.8648
19579TIP3    H180152   1.549   6.616   5.804  0.2994 -0.3881 -0.4682
19579TIP3    H280153   1.405   6.644   5.769  0.2703 -0.3717 -0.3380
19580TIP3   OH280154   6.322   4.100  10.536  0.4153  0.3335  0.2151
19580TIP3    H180155   6.353   4.182  10.499  1.0716 -0.3273 -0.7371
19580TIP3    H280156   6.389   4.036  10.511 -1.3841 -0.9970 -1.3829
19581TIP3   OH280157   0.371   6.023  11.911 -1.2406 -0.1740  0.2383
19581TIP3    H180158   0.416   6.101  11.942 -0.3127 -0.2585 -0.8556
19581TIP3    H280159   0.296   6.056  11.862 -1.7183 -0.0053  1.0818
19582TIP3   OH280160   4.890   2.784  15.943 -0.4118 -0.2583 -0.6507
19582TIP3    H180161   4.820   2.823  15.996  1.5681 -0.9838  2.6107
19582TIP3    H280162   4.969   2.829  15.972  1.0614 -2.4347 -1.2157
19583TIP3   OH280163   1.423   1.786   4.916 -0.5066  0.5827 -0.0001
19583TIP3    H180164   1.446   1.769   5.008 -0.4892  0.5261 -0.0145
19583TIP3    H280165   1.347   1.730   4.899 -1.3202  1.5867  0.3576
19584TIP3   OH280166   2.352   6.090  12.918  0.0107 -0.1542 -0.2341
19584TIP3    H180167   2.441   6.123  12.931  0.5965 -0.9050 -2.1381
19584TIP3    H280168   2.341   6.023  12.986  2.0596 -2.2597 -1.8894
19585TIP3   OH280169   2.664   1.646   6.017 -0.4620  0.0161  0.1395
19585TIP3    H180170   2.627   1.679   6.099 -0.5310 -0.1223  0.1645
19585TIP3    H280171   2.758   1.649   6.031 -0.4697  0.1382  0.1671
19586TIP3   OH280172   1.644   4.730   6.299 -0.2595  0.2349  0.5810
19586TIP3    H180173   1.643   4.821   6.268  1.0654  0.4548  1.1411
19586TIP3    H280174   1.571   4.725   6.361 -1.4111  0.4394 -0.7277
19587TIP3   OH280175   0.119   3.104   3.444 -0.3816 -0.0135 -0.0098
19587TIP3    H180176   0.126   3.166   3.371 -2.2595  0.2685  0.0238
19587TIP3    H280177   0.180   3.034   3.421 -0.2978  0.5047 -1.4317
19588TIP3   OH280178   1.340   1.970   0.187 -0.0766  0.2020  0.0497
19588TIP3    H180179   1.309   1.967   0.278  0.0644  2.9008  0.2430
19588TIP3    H280180   1.261   1.962   0.134 -0.0708 -2.2488  0.3674
19589TIP3   OH280181   5.632   6.082   2.457 -0.2971  0.9579  0.5095
19589TIP3    H180182   5.681   6.006   2.490  1.1740  1.1641 -1.1259
19589TIP3    H280183   5.568   6.101   2.526  0.7469 -0.4347  1.8971
19590TIP3   OH280184   1.955   4.473   1.448  0.4456  0.0812  0.4513
19590TIP3    H180185   1.910   4.441   1.526  0.2333 -1.5126 -0.3104
19590TIP3    H280186   1.901   4.545   1.416 -1.1305 -1.2789  0.0228
19591TIP3   OH280187   0.588   6.403   6.062  0.0206 -0.4698 -0.5006
19591TIP3    H180188   0.578   6.309   6.078  1.9773 -0.8265 -1.2437
19591TIP3    H280189   0.548   6.416   5.976 -0.1459 -0.6310 -0.4497
19592TIP3   OH280190   3.455   6.375   0.752  0.1667 -0.1081 -0.3401
19592TIP3    H180191   3.512   6.300   0.735  1.1835  0.8456 -1.1285
19592TIP3    H280192   3.492   6.446   0.702 -0.2721  1.1879  1.1335
19593TIP3   OH280193   2.759   6.031   2.590 -0.2276 -0.9010  0.1820
19593TIP3    H180194   2.835   6.068   2.545 -0.6422 -1.6532 -1.1605
19593TIP3    H280195   2.708   6.108   2.615  0.7738 -0.4078  0.7442
19594TIP3   OH280196   1.576   4.283  14.672 -0.4988 -0.5633  0.8230
19594TIP3    H180197   1.659   4.315  14.707  1.0304 -0.4642 -2.6637
19594TIP3    H280198   1.517   4.358  14.676  0.6655  0.4106  0.1027
19595TIP3   OH280199   1.918   5.030  16.142  0.2471 -0.0177 -0.7139
19595TIP3    H180200   1.888   5.118  16.164  1.6072  0.2553  0.0838
19595TIP3    H280201   1.872   5.009  16.061 -1.1431  0.8740 -0.1789
19596TIP3   OH280202   1.468   4.676  13.367  0.1316  0.0133 -0.3977
19596TIP3    H180203   1.373   4.671  13.358  0.2513  0.7693 -2.4951
19596TIP3    H280204   1.482   4.750  13.426 -0.6387 -2.5378  3.1274
19597TIP3   OH280205   2.645   6.785  16.045  0.1927 -0.2160  0.1277
19597TIP3    H180206   2.646   6.858  15.984 -0.0096 -0.3717 -0.0607
19597TIP3    H280207   2.654   6.707  15.990 -0.1940 -0.3663  0.2797
19598TIP3   OH280208   0.797   3.794   4.608  0.1090 -0.2151  0.3377
19598TIP3    H180209   0.849   3.820   4.684  0.0325  0.1240  0.2751
19598TIP3    H280210   0.746   3.719   4.639 -0.3196  0.2598  0.7835
19599TIP3   OH280211   4.811   1.523  12.195  0.1692  0.2035  0.2007
19599TIP3    H180212   4.790   1.451  12.254  1.9095 -0.2982  0.2347
19599TIP3    H280213   4.787   1.491  12.108  1.9128 -0.8393  0.0837
19600TIP3   OH280214   6.337   4.888  14.626  0.4370  0.3611  0.1284
19600TIP3    H180215   6.277   4.819  14.655 -0.5916  1.5557  0.8986
19600TIP3    H280216   6.391   4.906  14.702  0.8569  0.2444 -0.1444
19601TIP3   OH280217   4.704   6.523   3.916  0.4340 -0.6924 -0.4525
19601TIP3    H180218   4.666   6.545   3.831  0.4790  0.1228 -0.2690
19601TIP3    H280219   4.633   6.538   3.979 -0.4655 -3.8916 -0.5929
19602TIP3   OH280220   2.070   3.263   6.145 -0.4245 -0.7147 -0.5351
19602TIP3    H180221   2.083   3.199   6.214 -2.1820 -0.2084  0.3210
19602TIP3    H280222   2.028   3.337   6.190  0.1778  0.3984 -1.7845
19603TIP3   OH280223   1.912   4.128  14.036 -0.2781 -0.0781 -0.8310
19603TIP3    H180224   1.860   4.180  13.975 -1.7268  0.5141  0.8734
19603TIP3    H280225   1.855   4.057  14.063  0.4846 -0.5474 -0.4319
19604TIP3   OH280226   0.478   1.619  16.792  0.4270  0.1525 -0.1569
19604TIP3    H180227   0.469   1.526  16.815  0.2998 -0.1169 -1.2689
19604TIP3    H280228   0.407   1.635  16.729 -1.9248  1.9363  2.7755
19605TIP3   OH280229   5.193   1.131  15.428 -0.5505  0.0725 -0.3970
19605TIP3    H180230   5.258   1.130  15.358  0.0328 -0.0506  0.1423
19605TIP3    H280231   5.174   1.223  15.443  0.9224  0.2098  0.7490
19606TIP3   OH280232   4.792   1.716  16.539 -0.0623  0.3495  0.1157
19606TIP3    H180233   4.886   1.718  16.519 -0.4722 -0.6366 -1.9364
19606TIP3    H280234   4.780   1.634  16.587 -0.2135 -0.5249 -1.3974
19607TIP3   OH280235   1.766   2.569   2.649  0.0668 -0.1950  0.1634
19607TIP3    H180236   1.793   2.570   2.741 -2.6912  0.8078  0.9834
19607TIP3    H280237   1.793   2.654   2.615  1.7927 -0.8621 -0.2070
19608TIP3   OH280238   2.361   6.484  14.582 -0.6435 -0.0443  0.1778
19608TIP3    H180239   2.456   6.468  14.585 -0.6768 -0.0115  1.6709
19608TIP3    H280240   2.328   6.447  14.664 -1.6580  1.6237  0.5495
19609TIP3   OH280241   2.462   6.094   0.933 -0.1063 -0.6452 -0.1821
19609TIP3    H180242   2.479   6.188   0.923  1.3329 -0.9107 -0.3854
19609TIP3    H280243   2.378   6.089   0.978 -1.0584  0.7277 -1.7200
19610TIP3   OH280244   4.645   4.203   5.255 -0.5149 -0.1515 -0.2603
19610TIP3    H180245   4.739   4.224   5.256 -0.3960 -0.3505 -3.0803
19610TIP3    H280246   4.612   4.240   5.337  1.4319  2.8916 -0.7363
19611TIP3   OH280247   2.140   1.919  13.145 -0.0942  0.0327 -0.1588
19611TIP3    H180248   2.155   1.943  13.053 -0.1002 -1.9212 -0.6815
19611TIP3    H280249   2.196   1.980  13.194  0.6347  0.4860 -1.5050
19612TIP3   OH280250   0.108   4.780   5.736 -0.1852  0.1665 -0.1279
19612TIP3    H180251   0.104   4.793   5.830 -1.8207 -0.0505 -0.1500
19612TIP3    H280252   0.037   4.718   5.717  2.2477 -2.4573 -1.0635
19613TIP3   OH280253   5.309   5.663   5.557 -0.1431  0.1033  0.0951
19613TIP3    H180254   5.272   5.645   5.470  0.1061 -0.5402  0.1146
19613TIP3    H280255   5.233   5.660   5.615 -0.5062  1.8734 -0.2735
19614TIP3   OH280256   5.744   2.386   6.008 -0.1620 -0.1800 -0.6542
19614TIP3    H180257   5.770   2.434   5.929 -1.1916  1.6527  0.0850
19614TIP3    H280258   5.661   2.344   5.984 -0.8524  0.9777 -0.3405
19615TIP3   OH280259   4.568   2.585  15.863 -0.3744 -0.1627  0.2703
19615TIP3    H180260   4.639   2.598  15.801 -0.0108 -1.7901  0.3172
19615TIP3    H280261   4.539   2.495  15.849 -2.9385  0.6898 -0.2569
19616TIP3   OH280262   1.416   2.644  16.559  0.2753 -0.4359  0.8205
19616TIP3    H180263   1.355   2.690  16.617  0.6421  0.7140  0.3107
19616TIP3    H280264   1.496   2.697  16.561 -0.3639  0.7496 -2.2892
19617TIP3   OH280265   0.244   5.447  12.867  0.1757 -0.0325 -0.2001
19617TIP3    H180266   0.248   5.486  12.954  0.2485 -0.1943 -0.1300
19617TIP3    H280267   0.271   5.356  12.880  0.0397 -0.0987 -0.3650
19618TIP3   OH280268   0.367   2.716  14.772 -0.5791 -0.2542 -0.3955
19618TIP3    H180269   0.363   2.811  14.758 -1.3516 -0.1160  0.6548
19618TIP3    H280270   0.277   2.692  14.796 -0.6773 -1.4664 -1.9348
19619TIP3   OH280271   5.734   5.220  16.997  0.7989  0.1724 -0.1632
19619TIP3    H180272   5.711   5.151  16.935  0.1193  0.7811 -0.5970
19619TIP3    H280273   5.689   5.298  16.964 -1.2599  0.0482  2.2056
19620TIP3   OH280274   4.993   1.335   6.151  0.4436  0.0811  0.5222
19620TIP3    H180275   4.984   1.252   6.104  1.7154  0.7608 -0.9356
19620TIP3    H280276   4.907   1.377   6.141 -0.2997 -1.1648  1.5071
19621TIP3   OH280277   3.568   1.645  14.168 -0.0411  0.1631 -0.1960
19621TIP3    H180278   3.639   1.582  14.154 -0.2543 -0.3550  1.0149
19621TIP3    H280279   3.598   1.724  14.123  1.0433 -0.2249 -0.1885
19622TIP3   OH280280   6.064   6.553   5.082 -0.1143 -0.1152 -0.5856
19622TIP3    H180281   6.029   6.568   4.994  0.9412  0.0503 -0.9859
19622TIP3    H280282   6.019   6.618   5.136 -0.1253  0.3714 -1.1637
19623TIP3   OH280283   6.125   3.434  15.902 -0.2664 -0.1776 -0.8177
19623TIP3    H180284   6.142   3.493  15.828  0.9223  0.4850 -0.0320
19623TIP3    H280285   6.169   3.475  15.976 -0.4103 -1.4694  0.0036
19624TIP3   OH280286   0.698   5.241   0.330 -0.4215 -0.1520  0.2951
19624TIP3    H180287   0.666   5.176   0.392  0.3721  0.4815  1.3909
19624TIP3    H280288   0.793   5.241   0.342 -0.3353  0.5637 -0.3224
19625TIP3   OH280289   0.875   3.021  12.277  0.2657  0.3078  0.9366
19625TIP3    H180290   0.919   3.099  12.242 -2.0278  1.2419  0.0552
19625TIP3    H280291   0.855   3.043  12.368  1.9261 -0.2694  1.4556
19626TIP3   OH280292   2.373   6.743  11.866 -0.2064  0.5341  0.5589
19626TIP3    H180293   2.282   6.715  11.874 -0.1035  0.4086  1.2602
19626TIP3    H280294   2.393   6.731  11.773 -0.5055 -0.6677  0.6373
19627TIP3   OH280295   5.311   6.500  14.097 -0.1540 -0.2607  0.5037
19627TIP3    H180296   5.336   6.591  14.084  0.1444 -0.0111  2.6404
19627TIP3    H280297   5.394   6.452  14.098 -0.3275 -0.6052 -0.8976
19628TIP3   OH280298   0.987   2.682  10.961  0.8532  0.1549 -0.3053
19628TIP3    H180299   0.906   2.727  10.937  0.3554 -0.3687  0.3637
19628TIP3    H280300   0.964   2.589  10.959  1.3205  0.0244  0.3112
19629TIP3   OH280301   6.128   1.497  10.685  0.4955  0.0025 -0.3874
19629TIP3    H180302   6.153   1.493  10.778 -0.3277 -0.6858 -0.1868
19629TIP3    H280303   6.162   1.581  10.655 -2.0240  1.7036  1.3726
19630TIP3   OH280304   2.084   4.122   2.256 -0.5598  0.5915  0.4812
19630TIP3    H180305   2.115   4.061   2.323  0.3501 -0.4030 -0.7941
19630TIP3    H280306   1.993   4.139   2.279 -0.5475 -0.5168  1.3995
19631TIP3   OH280307   4.247   6.461   4.610 -0.2051 -0.6576  0.3419
19631TIP3    H180308   4.293   6.433   4.689 -1.2705  0.5775  1.4114
19631TIP3    H280309   4.199   6.383   4.582  0.8434 -1.3419  0.4187
19632TIP3   OH280310   1.925   6.785   3.572  0.0000  0.4480  0.2442
19632TIP3    H180311   1.948   6.871   3.537  1.3161  0.2526  0.6137
19632TIP3    H280312   1.834   6.772   3.545  0.2140  1.3730 -0.9586
19633TIP3   OH280313   2.017   1.090   2.551  1.1980 -0.2673  0.2891
19633TIP3    H180314   1.978   1.004   2.569 -0.5713  0.7342  1.4944
19633TIP3    H280315   1.968   1.123   2.475  0.6573  0.3808  0.9043
19634TIP3   OH280316   1.299   5.491   4.984  0.1214  0.2071 -0.0816
19634TIP3    H180317   1.368   5.454   5.039 -0.7398 -1.0404  0.1940
19634TIP3    H280318   1.250   5.549   5.042  0.4507  0.4809 -0.0739
19635TIP3   OH280319   0.865   5.034  16.599 -0.1402  0.0678  0.0307
19635TIP3    H180320   0.878   4.942  16.574 -0.7875  0.0561 -0.2649
19635TIP3    H280321   0.902   5.040  16.688  0.3456 -0.3592 -0.1399
19636TIP3   OH280322   3.891   6.293   3.992 -0.1092  0.0705 -0.3217
19636TIP3    H180323   3.892   6.303   4.087 -0.1050  0.6288 -0.3753
19636TIP3    H280324   3.801   6.313   3.967  0.7529  3.7547 -0.8002
19637TIP3   OH280325   4.129   0.302  13.254 -0.2859  0.0836  0.1229
19637TIP3    H180326   4.062   0.331  13.192 -0.0662 -0.9184 -0.5876
19637TIP3    H280327   4.083   0.240  13.311 -0.2085  0.1430  0.2493
19638TIP3   OH280328   3.696   2.236   0.204  0.3771 -1.0050  0.0026
19638TIP3    H180329   3.692   2.140   0.199 -0.4719 -0.9054 -1.1681
19638TIP3    H280330   3.623   2.267   0.151  0.2467  0.2917  0.9207
19639TIP3   OH280331   2.182   1.785  12.477 -0.0676  0.0868 -0.8151
19639TIP3    H180332   2.178   1.776  12.572 -0.7729 -0.4101 -0.8860
19639TIP3    H280333   2.225   1.870  12.462  1.2384 -0.4389 -0.0725
19640TIP3   OH280334   3.318   3.066  15.149  0.3615 -0.6120 -0.0318
19640TIP3    H180335   3.353   3.015  15.076 -0.0420 -0.4367 -0.3506
19640TIP3    H280336   3.231   3.093  15.120  1.1177  1.4586 -0.4462
19641TIP3   OH280337   2.314   4.709   3.467 -0.3449  0.3433 -0.1164
19641TIP3    H180338   2.250   4.641   3.491 -1.0804  0.4272 -1.7115
19641TIP3    H280339   2.302   4.719   3.372  1.8150  0.6114 -0.3738
19642TIP3   OH280340   3.196   4.386   6.420 -0.6682 -0.3714  0.1339
19642TIP3    H180341   3.112   4.355   6.453 -1.9176  0.8297 -1.8397
19642TIP3    H280342   3.261   4.343   6.476 -2.5523 -1.8051  1.2780
19643TIP3   OH280343   3.734   1.595  16.474  0.2030  0.1951  0.2721
19643TIP3    H180344   3.674   1.532  16.434  0.2246 -1.3019  2.5154
19643TIP3    H280345   3.676   1.665  16.506 -0.0150  0.3499 -0.4456
19644TIP3   OH280346   0.407   5.526  17.126  0.6384 -0.5425  0.1540
19644TIP3    H180347   0.366   5.578  17.195  0.0636  0.5404 -0.9790
19644TIP3    H280348   0.495   5.563  17.119  0.4997 -0.2592 -0.0975
19645TIP3   OH280349   3.282   0.946  15.576 -0.0843 -0.1350  0.1027
19645TIP3    H180350   3.282   0.850  15.581  2.3176 -0.1520  0.3409
19645TIP3    H280351   3.346   0.973  15.642  1.4318  1.5139 -1.9983
19646TIP3   OH280352   0.385   1.525  16.476 -0.1396 -0.2319 -0.1328
19646TIP3    H180353   0.345   1.462  16.535 -1.8628  0.9011 -0.0647
19646TIP3    H280354   0.400   1.475  16.395  0.9599 -1.4088  0.7603
19647TIP3   OH280355   5.430   5.908   1.981 -0.1104 -0.0989  0.0400
19647TIP3    H180356   5.410   5.911   1.888 -1.3141  0.5232  0.3033
19647TIP3    H280357   5.374   5.975   2.020  0.5801 -0.1578  1.1789
19648TIP3   OH280358   6.459   4.622  13.070  0.5140 -0.2808 -0.6207
19648TIP3    H180359   6.553   4.627  13.050  0.4260 -0.9952 -1.2448
19648TIP3    H280360   6.437   4.529  13.057  0.0395 -0.4019  0.9572
19649TIP3   OH280361   4.231   4.512   0.960  0.3509  0.1361 -0.2541
19649TIP3    H180362   4.285   4.466   0.896 -0.2370  0.2697 -0.8427
19649TIP3    H280363   4.141   4.485   0.941  0.2980 -0.9997  1.4674
19650TIP3   OH280364   5.716   0.073  15.174 -0.0429 -0.1935 -0.2308
19650TIP3    H180365   5.760   0.158  15.177  0.1711 -0.2154 -2.1031
19650TIP3    H280366   5.638   0.084  15.228 -0.6952  1.5984 -1.4933
19651TIP3   OH280367   1.590   4.817   4.982 -0.4483  0.1256 -0.1732
19651TIP3    H180368   1.568   4.838   4.891  0.4283 -2.7183 -1.0787
19651TIP3    H280369   1.654   4.746   4.976  0.9370  1.0665  2.6534
19652TIP3   OH280370   2.402   0.109   4.304 -0.1631  0.2929  0.6886
19652TIP3    H180371   2.483   0.089   4.257 -0.4719 -0.3868  0.4353
19652TIP3    H280372   2.425   0.097   4.396 -0.4555 -1.7152  0.5192
19653TIP3   OH280373   2.232   0.817  14.000 -0.0759 -0.6686 -0.3557
19653TIP3    H180374   2.234   0.851  14.090  0.4612 -1.4969 -0.0485
19653TIP3    H280375   2.237   0.722  14.010  0.6458 -0.7318 -1.2847
19654TIP3   OH280376   5.616   3.208   6.531  0.1848  0.7474  0.5281
19654TIP3    H180377   5.524   3.230   6.512 -0.2587 -0.7760  0.8772
19654TIP3    H280378   5.646   3.279   6.588 -1.3087  0.3563  1.8393
19655TIP3   OH280379   4.742   6.459   1.756 -0.6831  0.1031  0.0190
19655TIP3    H180380   4.700   6.470   1.841  1.9307  0.1023  1.3746
19655TIP3    H280381   4.768   6.367   1.754  1.4231  0.6603  0.3162
19656TIP3   OH280382   4.298   3.309   4.439 -0.6415 -0.2572 -0.0018
19656TIP3    H180383   4.242   3.233   4.426  0.3511 -0.6569 -2.0807
19656TIP3    H280384   4.331   3.299   4.529 -1.3434 -1.7056  0.1097
19657TIP3   OH280385   0.106   0.394  14.566 -0.3214  0.3865  0.0646
19657TIP3    H180386   0.159   0.351  14.632  0.6884  1.5700  0.0395
19657TIP3    H280387   0.039   0.330  14.543  0.9788 -1.0562  0.2349
19658TIP3   OH280388   2.120   4.862  16.021  0.7025 -0.1532  0.3930
19658TIP3    H180389   2.147   4.839  16.110  0.3391 -0.6860  0.3714
19658TIP3    H280390   2.051   4.928  16.033  0.1691 -0.7340  0.5284
19659TIP3   OH280391   1.453   1.258   3.168  0.3537  0.1237  0.3446
19659TIP3    H180392   1.520   1.258   3.235  1.5809  0.7002 -0.8513
19659TIP3    H280393   1.412   1.345   3.175 -0.6037 -0.3960  1.3782
19660TIP3   OH280394   2.115   2.986   1.107  0.6647  0.6550 -0.5368
19660TIP3    H180395   2.048   3.002   1.173  1.8765 -1.0246  1.1404
19660TIP3    H280396   2.075   3.015   1.025 -1.0026  2.4144  0.8619
19661TIP3   OH280397   0.173   0.569   4.702  0.2419  0.4112 -0.0158
19661TIP3    H180398   0.210   0.566   4.790  2.2041  0.5195 -0.8210
19661TIP3    H280399   0.151   0.478   4.682  1.1305  0.1846  0.0297
19662TIP3   OH280400   1.035   4.635   4.358  0.2424 -0.0389  0.0532
19662TIP3    H180401   1.011   4.677   4.440 -1.5961 -0.4113 -0.2760
19662TIP3    H280402   0.989   4.684   4.290 -0.1256 -1.1741 -0.5423
19663TIP3   OH280403   0.558   4.909  11.611  0.0201  0.3756  0.0858
19663TIP3    H180404   0.648   4.883  11.590 -0.2757 -0.2620 -0.4114
19663TIP3    H280405   0.563   5.003  11.627  0.5663  0.5418 -1.0715
19664TIP3   OH280406   0.289   6.301  17.013 -0.0245 -0.4511 -0.2944
19664TIP3    H180407   0.323   6.214  17.034 -0.0612 -0.8497 -1.8904
19664TIP3    H280408   0.199   6.299  17.043  0.8527  0.1051  2.5683
19665TIP3   OH280409   0.021   5.063   5.843  0.0619  0.5860  0.3624
19665TIP3    H180410  -0.058   5.090   5.890  0.3455  1.5838  0.2722
19665TIP3    H280411   0.072   5.014   5.908  0.2466  1.5844  0.9770
19666TIP3   OH280412   3.496   6.503   5.926 -1.0698 -0.6998 -0.2664
19666TIP3    H180413   3.530   6.592   5.939 -0.7141 -0.3954 -2.9805
19666TIP3    H280414   3.559   6.447   5.971 -0.6272  0.3390  0.4367
19667TIP3   OH280415   4.906   2.789   5.459 -0.0157 -0.3416  0.8785
19667TIP3    H180416   4.942   2.860   5.511 -0.6094  1.6695 -1.3836
19667TIP3    H280417   4.968   2.779   5.386 -1.9326  0.5155 -0.9246
19668TIP3   OH280418   3.433   4.845  12.958 -0.5603 -0.1043  0.3333
19668TIP3    H180419   3.484   4.820  12.881  1.8480 -0.7610  2.0789
19668TIP3    H280420   3.347   4.805  12.944 -0.4744  0.6112 -2.4440
19669TIP3   OH280421   2.106   2.539  15.367 -0.0910  0.3258 -0.8888
19669TIP3    H180422   2.072   2.549  15.456 -0.6458 -0.1579 -1.0461
19669TIP3    H280423   2.103   2.627  15.330 -0.6191  0.3888 -0.7015
19670TIP3   OH280424   1.938   5.079   1.925 -0.0812  0.3299 -0.9924
19670TIP3    H180425   1.949   5.110   2.015  0.4666 -0.5498 -0.7448
19670TIP3    H280426   2.018   5.029   1.907 -0.0708  0.7147 -2.0615
19671TIP3   OH280427   0.605   2.636  11.108 -0.5806 -0.5380 -0.0201
19671TIP3    H180428   0.619   2.541  11.102  0.4265 -0.4729  1.1538
19671TIP3    H280429   0.602   2.665  11.017  0.7899 -1.4577 -0.3793
19672TIP3   OH280430   6.130   0.875  13.994 -0.4554  0.1542  0.7841
19672TIP3    H180431   6.064   0.855  14.061 -0.3295 -0.5193  0.7193
19672TIP3    H280432   6.108   0.962  13.963 -0.6402  0.3866  1.5619
19673TIP3   OH280433   4.017   1.496  15.220  0.2623 -0.6243 -0.2462
19673TIP3    H180434   4.037   1.505  15.127  2.4628  0.6047  0.3122
19673TIP3    H280435   3.935   1.543  15.232  0.6371  0.3121 -1.3378
19674TIP3   OH280436   5.690   2.804  11.269  0.2558  0.9668 -0.0211
19674TIP3    H180437   5.639   2.842  11.198 -1.3014  0.1124  0.6200
19674TIP3    H280438   5.641   2.827  11.349  0.4368 -0.5281  0.5414
19675TIP3   OH280439   2.334   3.339  13.399 -0.2227  0.4010  0.1761
19675TIP3    H180440   2.373   3.411  13.449  0.0092  0.3004  0.1372
19675TIP3    H280441   2.298   3.280  13.465 -0.3107  0.4945  0.2127
19676TIP3   OH280442   4.358   3.638   3.356  0.4352 -0.3826  0.9043
19676TIP3    H180443   4.370   3.728   3.326 -0.5262 -0.7812 -0.7715
19676TIP3    H280444   4.423   3.587   3.308 -1.3554 -1.0815 -0.8820
19677TIP3   OH280445   0.461   1.891   2.412  0.0683 -0.0625  0.2630
19677TIP3    H180446   0.401   1.926   2.346  1.8240 -0.0912 -1.4315
19677TIP3    H280447   0.416   1.816   2.449 -1.4900  0.7276  0.0188
19678TIP3   OH280448   1.548   3.609  13.152  0.0783  0.2611  0.0226
19678TIP3    H180449   1.458   3.576  13.145  0.5053 -1.1233  0.8365
19678TIP3    H280450   1.582   3.606  13.063 -0.3858 -0.0923 -0.1456
19679TIP3   OH280451   1.727   1.400  14.518  0.3184 -0.5194 -0.1751
19679TIP3    H180452   1.803   1.437  14.474 -0.5374  1.0076 -0.3823
19679TIP3    H280453   1.662   1.469  14.517 -1.5226 -2.2062 -1.1005
19680TIP3   OH280454   3.664   1.337  15.054 -0.1509 -0.1380  0.0944
19680TIP3    H180455   3.717   1.274  15.006 -1.5899  0.5147 -2.4743
19680TIP3    H280456   3.576   1.299  15.053 -0.5337  0.7204  0.7119
19681TIP3   OH280457   2.630   1.558  14.177  0.2866 -0.1647  1.2727
19681TIP3    H180458   2.713   1.545  14.130  0.0976  3.3737 -0.2116
19681TIP3    H280459   2.651   1.626  14.241 -1.5717  1.1175  0.5412
19682TIP3   OH280460   6.056   6.688  15.071  0.3427  0.8497 -0.1726
19682TIP3    H180461   6.068   6.674  15.165  1.2050  0.7901 -0.2901
19682TIP3    H280462   6.127   6.747  15.045 -0.1285  1.1967 -0.7143
19683TIP3   OH280463   3.353   2.192  15.243 -0.5854  0.0963  0.3019
19683TIP3    H180464   3.406   2.113  15.232 -2.2258 -1.1003  0.7926
19683TIP3    H280465   3.417   2.263  15.244  0.7876 -1.0118 -2.1543
19684TIP3   OH280466   4.217   4.117   6.469  0.8791  0.7597  0.3376
19684TIP3    H180467   4.200   4.032   6.427  0.9030  0.3317  1.1762
19684TIP3    H280468   4.130   4.149   6.495  0.9292  0.6674  0.6269
19685TIP3   OH280469   4.206   5.095   2.578  0.0846 -0.4806 -0.3745
19685TIP3    H180470   4.155   5.168   2.613 -1.4052 -0.8786 -1.6876
19685TIP3    H280471   4.283   5.091   2.635  0.2441  2.1640 -0.3408
19686TIP3   OH280472   5.640   2.447   5.341 -0.7360  0.3220 -0.0602
19686TIP3    H180473   5.547   2.462   5.326 -0.2928  2.3351 -0.9900
19686TIP3    H280474   5.643   2.392   5.419 -2.6819  0.9739  0.5136
19687TIP3   OH280475   4.733   2.947  16.160 -0.2576  0.0165 -0.0037
19687TIP3    H180476   4.641   2.920  16.152  0.0982 -1.3561  0.4690
19687TIP3    H280477   4.749   2.950  16.255  0.5971 -1.2069 -0.0990
19688TIP3   OH280478   5.747   1.793  14.827  0.1007  0.4118  0.0261
19688TIP3    H180479   5.803   1.758  14.896 -0.2102 -0.3871 -0.1179
19688TIP3    H280480   5.746   1.725  14.760 -0.4918  0.7076 -0.2711
19689TIP3   OH280481   3.056   1.303   0.817  0.3894 -0.1823  0.3100
19689TIP3    H180482   3.011   1.383   0.791 -0.1129 -0.6197 -0.2078
19689TIP3    H280483   3.020   1.282   0.903  0.4864  0.1237  0.4241
19690TIP3   OH280484   2.685   5.494  16.653  0.2493  0.3339 -0.4552
19690TIP3    H180485   2.712   5.481  16.562 -0.0020  0.4166 -0.5411
19690TIP3    H280486   2.627   5.420  16.671 -0.8778  1.1085 -0.8204
19691TIP3   OH280487   6.312   1.131  13.558 -0.2860 -0.0947  0.2253
19691TIP3    H180488   6.312   1.055  13.500 -2.3993  0.7005 -0.9036
19691TIP3    H280489   6.227   1.126  13.603 -0.2124  1.2818  0.5302
19692TIP3   OH280490   6.596   1.819   2.166 -0.5109 -0.0548 -0.0330
19692TIP3    H180491   6.602   1.752   2.098 -1.1918  0.2395 -0.3990
19692TIP3    H280492   6.686   1.850   2.178 -0.0688 -1.6475  0.7785
19693TIP3   OH280493   3.645   5.989  15.168  0.4181  0.3209 -0.2951
19693TIP3    H180494   3.621   5.938  15.246 -2.8613  0.5753 -1.0364
19693TIP3    H280495   3.740   5.993  15.170  0.4321  0.2479  3.6493
19694TIP3   OH280496   5.317   3.832   5.082  0.7955 -0.3877 -0.1750
19694TIP3    H180497   5.230   3.805   5.052  0.1780  0.0299  1.1786
19694TIP3    H280498   5.378   3.788   5.023 -0.3883  1.4543 -2.8565
19695TIP3   OH280499   1.707   4.368  15.929  0.0430 -0.0446  0.3692
19695TIP3    H180500   1.742   4.280  15.940 -1.1402 -0.5943 -0.2066
19695TIP3    H280501   1.626   4.369  15.979  1.0507  1.3643  2.0710
19696TIP3   OH280502   1.449   3.104   1.464 -0.0708  0.3687 -0.2506
19696TIP3    H180503   1.383   3.035   1.469 -0.7746  1.0967  0.5653
19696TIP3    H280504   1.526   3.067   1.507  0.3817 -0.8495 -2.0909
19697TIP3   OH280505   1.917   6.128   1.807 -0.0296 -0.3704  0.0651
19697TIP3    H180506   1.919   6.056   1.871 -0.1111 -0.2435  0.2112
19697TIP3    H280507   1.877   6.089   1.729 -1.2178 -0.1542  0.5595
19698TIP3   OH280508   4.223   1.370  16.047 -0.1816 -0.1025 -0.3547
19698TIP3    H180509   4.157   1.363  16.117  1.4892  0.3270  1.2945
19698TIP3    H280510   4.297   1.318  16.079  0.7929  0.5204 -1.5960
19699TIP3   OH280511   5.354   0.579   1.263 -0.3862 -0.1870  0.0571
19699TIP3    H180512   5.347   0.586   1.167  1.1525  3.2844  0.1251
19699TIP3    H280513   5.315   0.660   1.295  2.4603  0.4032  2.1697
19700TIP3   OH280514   1.846   5.716   5.771  0.3110 -0.3151 -0.1900
19700TIP3    H180515   1.782   5.688   5.836  0.2688 -1.0195 -0.5298
19700TIP3    H280516   1.796   5.719   5.689  0.4363  0.2693 -0.2455
19701TIP3   OH280517   2.063   6.389  10.723 -0.3421 -0.0929 -0.1731
19701TIP3    H180518   2.037   6.437  10.802 -0.4655  0.3097 -0.4533
19701TIP3    H280519   2.038   6.447  10.651  1.4293  0.3413 -0.4478
19702TIP3   OH280520   3.220   3.284   2.687 -0.4806 -0.4081 -0.8588
19702TIP3    H180521   3.161   3.341   2.736 -0.2532 -1.5766  0.7791
19702TIP3    H280522   3.221   3.322   2.599  0.5623  2.8150  0.4828
19703TIP3   OH280523   5.828   0.519  14.637 -0.3050 -0.1086  0.0883
19703TIP3    H180524   5.743   0.511  14.679 -0.5446  2.0740  0.0729
19703TIP3    H280525   5.886   0.552  14.705  0.4751 -1.2924  0.0151
19704TIP3   OH280526   2.368   2.172   1.598  0.3503 -0.0616 -0.8438
19704TIP3    H180527   2.455   2.147   1.631 -0.1166 -0.3868  0.1572
19704TIP3    H280528   2.365   2.267   1.612 -0.0599 -0.2783  0.5790
19705TIP3   OH280529   3.848   1.125  12.259  0.0725 -0.0646  0.4425
19705TIP3    H180530   3.775   1.107  12.198  1.3159 -0.8099 -0.8619
19705TIP3    H280531   3.918   1.066  12.230  1.2919  0.8314  1.5226
19706TIP3   OH280532   3.806   3.249   1.004  0.3075 -0.3078  0.4176
19706TIP3    H180533   3.862   3.307   0.953  0.7053 -0.6118  0.5090
19706TIP3    H280534   3.852   3.237   1.087  0.0254 -0.4228  0.5587
19707TIP3   OH280535   5.385   0.861  15.584  0.2262 -0.8639  0.1704
19707TIP3    H180536   5.468   0.871  15.632  1.1144 -2.1790 -1.0462
19707TIP3    H280537   5.410   0.819  15.501 -1.7827 -2.1950  0.2031
19708TIP3   OH280538   1.058   3.785  16.585  0.2205  0.4611  0.2429
19708TIP3    H180539   1.082   3.843  16.514 -0.3978 -0.7603 -0.9847
19708TIP3    H280540   0.970   3.754  16.562  0.6648 -1.1996  0.7217
19709TIP3   OH280541   0.694   5.294   1.374 -0.0057 -0.4926 -0.4003
19709TIP3    H180542   0.760   5.304   1.305 -0.2858 -1.0243 -0.7542
19709TIP3    H280543   0.630   5.234   1.336 -0.8654  0.2885 -0.1897
19710TIP3   OH280544   2.701   3.408  12.702  0.2334 -0.2774 -0.0575
19710TIP3    H180545   2.642   3.380  12.633 -0.5220 -0.8513  0.8083
19710TIP3    H280546   2.678   3.353  12.777  2.6863 -1.3826 -0.0618
19711TIP3   OH280547   5.902   4.369  15.213 -0.5814  0.3118  0.0538
19711TIP3    H180548   5.860   4.452  15.236  0.1902  1.1006 -1.2787
19711TIP3    H280549   5.966   4.393  15.146  0.4684 -1.1874  0.4920
19712TIP3   OH280550   0.875   5.959   2.913 -0.3514 -0.6087  0.6611
19712TIP3    H180551   0.835   6.037   2.876 -0.8442 -1.7186 -1.1903
19712TIP3    H280552   0.927   5.991   2.987 -0.0962  1.5157 -0.4224
19713TIP3   OH280553   1.406   6.760  11.764 -0.3588 -0.1152  0.5216
19713TIP3    H180554   1.375   6.679  11.724 -0.5148  0.3822 -0.3578
19713TIP3    H280555   1.502   6.751  11.764 -0.4145 -0.9624  1.8290
19714TIP3   OH280556   1.893   1.051  14.837 -0.1958  0.6251 -0.1678
19714TIP3    H180557   1.915   1.114  14.769 -1.2795  0.4132 -0.7200
19714TIP3    H280558   1.909   0.966  14.798  0.0208  0.5262  0.1357
19715TIP3   OH280559   0.648   5.048   5.151  0.0513 -0.2679  0.0951
19715TIP3    H180560   0.726   5.045   5.096 -0.8784 -0.9059 -1.2254
19715TIP3    H280561   0.636   4.958   5.181  0.1154 -0.0708  0.7110
19716TIP3   OH280562   2.117   3.073   1.890  0.2094  0.0846  0.1414
19716TIP3    H180563   2.027   3.090   1.866  0.1264  1.3205  1.2472
19716TIP3    H280564   2.136   3.137   1.959  2.1678  0.3779 -0.6280
19717TIP3   OH280565   3.207   3.199   3.951  0.4634 -0.2919 -0.5260
19717TIP3    H180566   3.186   3.145   4.027  1.6937 -2.5136 -1.7152
19717TIP3    H280567   3.271   3.263   3.983  0.8996 -1.1460  0.3172
19718TIP3   OH280568   4.853   2.615  14.769 -0.3046 -0.2111  0.8754
19718TIP3    H180569   4.908   2.644  14.843 -0.6752  0.5913  0.8400
19718TIP3    H280570   4.781   2.677  14.767  0.7589  1.0296 -1.4271
19719TIP3   OH280571   5.539   0.224  11.920  0.4192  0.4920  0.1532
19719TIP3    H180572   5.572   0.276  11.994 -0.7689 -0.2410  1.2206
19719TIP3    H280573   5.613   0.169  11.896  1.1417  1.4488  0.1381
19720TIP3   OH280574   1.096   1.228   3.129 -0.2537 -0.5877 -0.8450
19720TIP3    H180575   1.065   1.137   3.123 -1.2891 -0.3597  0.6508
19720TIP3    H280576   1.163   1.235   3.061 -0.9279 -2.1597 -1.7072
19721TIP3   OH280577   5.915   5.399  11.155  0.1200 -0.1750 -0.1391
19721TIP3    H180578   5.921   5.436  11.067  0.0551  1.4740  0.5352
19721TIP3    H280579   5.909   5.475  11.213 -1.7822 -1.2648  1.1468
19722TIP3   OH280580   0.388   4.351   4.799  0.0087 -0.3914  0.3936
19722TIP3    H180581   0.379   4.274   4.743  1.3804  1.5273 -2.6239
19722TIP3    H280582   0.414   4.316   4.884  0.4516 -3.2801 -0.8555
19723TIP3   OH280583   5.057   0.249   1.634  0.2491 -0.2755 -0.1477
19723TIP3    H180584   4.968   0.256   1.667  0.7597 -0.2871  1.2821
19723TIP3    H280585   5.112   0.279   1.707  1.3764  0.4656 -1.2619
19724TIP3   OH280586   2.213   4.684   2.344  0.2334 -0.7601  0.9238
19724TIP3    H180587   2.236   4.769   2.381 -1.2258 -0.1339  0.4040
19724TIP3    H280588   2.147   4.649   2.403 -0.0042 -1.0275  0.5026
19725TIP3   OH280589   6.342   5.584   5.924  0.6482  0.2818 -0.0584
19725TIP3    H180590   6.413   5.644   5.949  2.3826 -2.9005  3.1754
19725TIP3    H280591   6.283   5.584   6.000 -0.7601 -0.1086 -1.1302
19726TIP3   OH280592   5.542   2.215  13.028 -0.5700  0.3418  0.1326
19726TIP3    H180593   5.626   2.259  13.019 -0.5863  0.3874  0.2121
19726TIP3    H280594   5.493   2.241  12.950 -0.4204  0.1192 -0.0346
19727TIP3   OH280595   3.632   6.637  13.708  0.2935 -0.2775 -0.4156
19727TIP3    H180596   3.657   6.694  13.635  1.4079 -0.6494 -0.3388
19727TIP3    H280597   3.622   6.697  13.782 -1.5624  0.1876 -1.0356
19728TIP3   OH280598   2.228   5.366  15.291  0.6371 -0.3743 -0.0189
19728TIP3    H180599   2.175   5.349  15.213 -0.2464 -0.7847  0.6671
19728TIP3    H280600   2.317   5.346  15.264  0.4331  0.2040 -1.1545
19729TIP3   OH280601   4.348   2.525  13.237 -0.6705  0.2692 -0.1088
19729TIP3    H180602   4.426   2.489  13.279 -1.2037 -0.0646  0.5956
19729TIP3    H280603   4.369   2.523  13.143 -0.1969 -0.7166  0.0042
19730TIP3   OH280604   0.081   4.073  11.662 -0.0828 -0.7442 -0.6499
19730TIP3    H180605   0.047   4.118  11.740 -1.7809 -2.6048 -0.2670
19730TIP3    H280606   0.173   4.099  11.657 -0.1011 -0.1353  1.6376
19731TIP3   OH280607   6.402   3.282   5.375  0.0370  0.6130 -0.6572
19731TIP3    H180608   6.397   3.374   5.400  2.5389  1.5927 -3.4954
19731TIP3    H280609   6.358   3.278   5.290  1.0575 -0.5411 -1.1458
19732TIP3   OH280610   4.171   4.671  13.229  0.1347  0.6310  0.2227
19732TIP3    H180611   4.205   4.586  13.256  1.9763  1.4899  0.6738
19732TIP3    H280612   4.105   4.693  13.295  0.1234 -0.1429  0.4723
19733TIP3   OH280613   5.422   3.979  16.845 -0.1287 -0.3670  0.0275
19733TIP3    H180614   5.327   3.991  16.843 -0.1939 -0.6810  1.0369
19733TIP3    H280615   5.457   4.068  16.839 -0.5443  0.0070  2.6139
19734TIP3   OH280616   2.680   3.251   2.496 -0.3744 -0.7710 -0.0465
19734TIP3    H180617   2.725   3.335   2.486 -0.8224 -0.4934  0.2484
19734TIP3    H280618   2.707   3.219   2.582 -0.7353 -0.6028  0.1324
19735TIP3   OH280619   5.397   0.798   0.889  0.2498 -0.2435 -0.2379
19735TIP3    H180620   5.492   0.785   0.888  0.5021  1.3728  0.5499
19735TIP3    H280621   5.361   0.714   0.916  1.4546 -0.8953 -0.6236
19736TIP3   OH280622   3.713   2.629  16.626  0.5585  0.1796  0.4073
19736TIP3    H180623   3.680   2.691  16.691  1.7609  0.7378  0.4939
19736TIP3    H280624   3.735   2.551  16.677  0.3047  0.1595  0.4872
19737TIP3   OH280625   1.582   5.181   2.772  0.5855 -0.2574  0.2565
19737TIP3    H180626   1.529   5.220   2.842  1.2544 -1.4852  1.4806
19737TIP3    H280627   1.607   5.095   2.806  2.2053 -0.2539 -0.8483
19738TIP3   OH280628   1.484   6.350   2.845 -0.2051  0.9076 -0.3499
19738TIP3    H180629   1.519   6.261   2.849 -1.6189  0.3682  0.2429
19738TIP3    H280630   1.548   6.403   2.892 -0.4093 -0.1376  1.1435
19739TIP3   OH280631   2.044   1.131  10.680 -0.1517 -0.4394  0.1192
19739TIP3    H180632   2.009   1.139  10.768  0.0418 -1.5072  0.3010
19739TIP3    H280633   2.018   1.212  10.636 -0.9491 -0.2655  0.9063
19740TIP3   OH280634   4.365   1.781  16.927  0.3666 -0.3790  0.0539
19740TIP3    H180635   4.396   1.871  16.914 -0.0374  0.2306  2.9851
19740TIP3    H280636   4.271   1.786  16.916  0.2644 -0.2802  0.9170
19741TIP3   OH280637   2.717   1.425  15.339 -0.2200  0.2353 -0.0539
19741TIP3    H180638   2.797   1.396  15.294  0.1862 -2.3288  2.2249
19741TIP3    H280639   2.747   1.455  15.424 -1.6788 -0.8695  0.8742
19742TIP3   OH280640   4.508   3.679  11.708  0.1233  0.3743  0.2633
19742TIP3    H180641   4.452   3.663  11.632  1.7615 -2.4730 -0.3910
19742TIP3    H280642   4.449   3.715  11.774 -1.8982  0.1050 -1.3511
19743TIP3   OH280643   2.959   4.556  15.793 -0.2807 -0.3521 -0.0261
19743TIP3    H180644   2.904   4.622  15.750  1.5700  0.6729 -0.8723
19743TIP3    H280645   2.903   4.478  15.799 -1.6785  0.5301 -1.2783
19744TIP3   OH280646   0.253   2.454   1.886  0.5514 -0.0207  0.1746
19744TIP3    H180647   0.301   2.478   1.807  1.4058  1.3861  1.1117
19744TIP3    H280648   0.319   2.450   1.955 -0.4325  0.4398  1.1622
19745TIP3   OH280649   5.450   1.201   1.761  0.0796 -0.8338  0.1350
19745TIP3    H180650   5.432   1.182   1.853  0.7381 -1.2064  0.1862
19745TIP3    H280651   5.449   1.116   1.718  0.4447 -0.7275 -0.0871
19746TIP3   OH280652   3.720   5.170   2.616 -0.3545 -0.2762 -0.0321
19746TIP3    H180653   3.631   5.183   2.648 -0.2495 -2.0461  1.0939
19746TIP3    H280654   3.711   5.158   2.522 -1.0403  1.8533 -0.2541
19747TIP3   OH280655   0.328   3.503  15.611 -0.2379  0.2617 -0.5247
19747TIP3    H180656   0.414   3.489  15.573  0.3074  0.7440  0.4842
19747TIP3    H280657   0.346   3.544  15.696 -1.2836 -3.0467  1.3569
19748TIP3   OH280658   1.706   0.299   5.394 -0.1845  0.0524  0.6631
19748TIP3    H180659   1.741   0.388   5.398 -1.2756  0.5213 -0.0366
19748TIP3    H280660   1.695   0.274   5.486 -3.0499  1.9368  0.9084
19749TIP3   OH280661   1.544   5.771  15.647 -0.2427 -0.4149  0.3449
19749TIP3    H180662   1.523   5.837  15.581  0.0735  0.3256  0.9806
19749TIP3    H280663   1.508   5.689  15.611  0.8552 -0.2350 -1.2300
19750TIP3   OH280664   6.396   3.742   5.206  0.0230  0.8265 -0.6647
19750TIP3    H180665   6.442   3.819   5.239  0.2256  1.0998 -1.5585
19750TIP3    H280666   6.457   3.703   5.143  1.0432 -1.6104  1.7593
19751TIP3   OH280667   1.511   2.336  11.629  1.0636 -0.0462  0.0618
19751TIP3    H180668   1.568   2.377  11.564  1.9951  0.7602  1.3482
19751TIP3    H280669   1.549   2.250  11.643  0.3357 -0.5698 -1.1053
19752TIP3   OH280670   3.516   6.425  10.597 -0.1160  0.6578  0.1379
19752TIP3    H180671   3.552   6.499  10.647  0.1706  0.0309  0.8628
19752TIP3    H280672   3.427   6.414  10.631  0.5783 -0.7050  1.5544
19753TIP3   OH280673   3.176   4.013  12.939  0.4753 -0.0932  0.1256
19753TIP3    H180674   3.207   3.924  12.956  1.4693  0.2845  0.3616
19753TIP3    H280675   3.145   4.011  12.849 -1.5282 -1.2179  0.8267
19754TIP3   OH280676   6.781   0.185  11.115 -0.0414 -0.2779  0.2802
19754TIP3    H180677   6.845   0.222  11.054 -0.2669 -1.7159 -0.8810
19754TIP3    H280678   6.800   0.091  11.114 -2.0839 -0.7139 -0.0141
19755TIP3   OH280679   2.217   2.606   6.307  0.2670  0.1490 -0.1267
19755TIP3    H180680   2.312   2.601   6.308  0.2079 -1.0410 -0.0378
19755TIP3    H280681   2.198   2.697   6.282  1.4228 -0.0385 -1.7969
19756TIP3   OH280682   1.250   4.585   3.571 -0.2959  0.0644  0.0261
19756TIP3    H180683   1.187   4.619   3.635 -1.5453 -1.1896 -0.5079
19756TIP3    H280684   1.202   4.516   3.525  0.5217  1.0513 -2.3803
19757TIP3   OH280685   1.317   0.393   0.441 -0.1984  0.5970 -0.1558
19757TIP3    H180686   1.393   0.348   0.476 -0.7864  1.1023  1.7977
19757TIP3    H280687   1.315   0.477   0.486 -1.2633  1.0687 -1.0230
19758TIP3   OH280688   5.184   1.695   4.234  0.1998 -0.4418  0.4731
19758TIP3    H180689   5.090   1.695   4.252  0.2784 -1.1331  0.9456
19758TIP3    H280690   5.217   1.774   4.277 -0.3460  0.4448 -0.7389
19759TIP3   OH280691   1.228   5.167  13.036 -0.5613  0.5656  0.1331
19759TIP3    H180692   1.280   5.097  12.997 -0.7810 -0.1438  1.1008
19759TIP3    H280693   1.152   5.176  12.979 -0.4116  0.1757 -0.1222
19760TIP3   OH280694   3.247   5.901  17.122  0.2659 -0.3506  0.1960
19760TIP3    H180695   3.263   5.811  17.152  1.2166 -0.2142  0.1065
19760TIP3    H280696   3.300   5.909  17.043 -1.2938 -0.3175 -0.8796
19761TIP3   OH280697   3.178   5.491   5.210 -0.1342  0.2782 -0.1281
19761TIP3    H180698   3.199   5.503   5.303 -1.2323  1.3308  0.0012
19761TIP3    H280699   3.260   5.509   5.165  0.9119 -2.1758  0.7394
19762TIP3   OH280700   5.310   4.177   2.520  0.3768 -0.1474  0.2496
19762TIP3    H180701   5.403   4.154   2.523  1.0532  2.0546 -2.0557
19762TIP3    H280702   5.299   4.244   2.587 -0.1634 -2.3459  2.3973
19763TIP3   OH280703   0.601   3.999  10.801  0.5448  0.0595  0.2252
19763TIP3    H180704   0.652   3.924  10.829  0.7504 -0.3330 -1.1740
19763TIP3    H280705   0.664   4.056  10.758  0.3464  0.9453  1.0764
19764TIP3   OH280706   1.143   5.863   2.150  0.4041  0.2422 -0.4779
19764TIP3    H180707   1.186   5.914   2.218  0.6650 -1.3656  0.6022
19764TIP3    H280708   1.092   5.798   2.198 -1.2375  0.5417 -1.7968
19765TIP3   OH280709   6.071   5.950   4.863  0.0126 -0.4435  0.3017
19765TIP3    H180710   6.055   5.918   4.952 -2.1648 -0.5571 -0.0859
19765TIP3    H280711   6.069   6.045   4.871 -1.2640 -0.4540  0.2154
19766TIP3   OH280712   1.988   2.992   1.350  0.3839 -0.4029  0.2637
19766TIP3    H180713   1.966   2.902   1.375  0.5213 -0.3547  0.5624
19766TIP3    H280714   1.906   3.028   1.316  0.2091 -0.4927  0.5846
19767TIP3   OH280715   0.879   1.913  15.836 -0.3363 -0.5763 -0.4163
19767TIP3    H180716   0.924   1.879  15.913 -1.2275 -1.6652 -0.3631
19767TIP3    H280717   0.944   1.969  15.793  0.4871 -0.7516  0.5876
19768TIP3   OH280718   1.136   0.958  10.496  0.0210 -0.0666 -1.0173
19768TIP3    H180719   1.216   0.988  10.453 -0.4403 -0.2956 -2.0643
19768TIP3    H280720   1.101   1.037  10.538  0.6924  0.0768 -0.7249
19769TIP3   OH280721   4.555   6.066  11.669  0.0534  0.0310  0.3444
19769TIP3    H180722   4.515   5.981  11.687  0.8292 -0.4212 -0.0476
19769TIP3    H280723   4.484   6.119  11.632  0.0749 -1.0936 -1.3431
19770TIP3   OH280724   4.153   6.402  15.472  0.4724 -0.5507  0.8206
19770TIP3    H180725   4.233   6.395  15.419 -0.1629  1.7128 -0.5479
19770TIP3    H280726   4.082   6.379  15.411 -0.0309 -1.1421  1.6209
19771TIP3   OH280727   4.524   6.671   0.500 -0.2340  0.1497 -0.5339
19771TIP3    H180728   4.479   6.653   0.417 -0.8649  0.0746 -0.1824
19771TIP3    H280729   4.455   6.663   0.566  0.2948  0.0843  0.0099
19772TIP3   OH280730   6.732   2.398  13.081  0.7598 -0.0974  0.1519
19772TIP3    H180731   6.695   2.486  13.092  0.3382 -0.0364 -1.6317
19772TIP3    H280732   6.681   2.343  13.141 -0.9626  0.3462 -0.8741
19773TIP3   OH280733   2.790   0.055   4.815  0.4358 -0.3156  0.0124
19773TIP3    H180734   2.811   0.095   4.731  0.8095  1.1019  0.7664
19773TIP3    H280735   2.869   0.067   4.868 -0.7673  1.3686  1.4944
19774TIP3   OH280736   5.031   1.234  11.355 -0.2239 -0.1320 -0.5721
19774TIP3    H180737   5.025   1.151  11.306  0.1838 -1.7722  2.0286
19774TIP3    H280738   5.064   1.297  11.291  1.9305 -2.5799 -1.9917
19775TIP3   OH280739   3.272   6.714   2.326 -0.1218 -0.3139 -0.0831
19775TIP3    H180740   3.292   6.743   2.415 -1.6924 -1.3826  0.6382
19775TIP3    H280741   3.338   6.756   2.271  1.6569 -0.6744  1.7505
19776TIP3   OH280742   0.487   4.817   0.914 -0.0034  0.3329 -0.4892
19776TIP3    H180743   0.432   4.788   0.842 -0.0262  0.4903 -0.5358
19776TIP3    H280744   0.570   4.841   0.872  0.0893  0.1230 -0.4231
19777TIP3   OH280745   6.593   4.968  12.200 -0.0329  0.0012  0.4770
19777TIP3    H180746   6.513   4.918  12.187  0.3129 -0.1075 -1.3061
19777TIP3    H280747   6.638   4.964  12.116  0.4037  2.6138  0.5511
19778TIP3   OH280748   2.234   4.266  15.855  0.2331 -0.0312  0.3175
19778TIP3    H180749   2.157   4.216  15.831 -0.3506  1.4927 -1.0614
19778TIP3    H280750   2.265   4.225  15.936 -0.4329 -2.3466 -0.5696
19779TIP3   OH280751   0.148   0.209  14.228  0.0781 -0.2941 -0.3878
19779TIP3    H180752   0.127   0.302  14.236  0.0358 -0.5353  2.9320
19779TIP3    H280753   0.063   0.166  14.221 -0.0227 -0.2562  0.5153
19780TIP3   OH280754   2.544   5.103   6.221 -0.1936  0.0957  0.3565
19780TIP3    H180755   2.532   5.096   6.316 -0.0167 -1.5212  0.2763
19780TIP3    H280756   2.494   5.181   6.196 -0.7378  0.1914  1.6887
19781TIP3   OH280757   3.591   3.863  15.603 -0.6329 -0.1521  0.1425
19781TIP3    H180758   3.631   3.949  15.588  1.6772 -1.1452  0.3384
19781TIP3    H280759   3.514   3.863  15.547  2.2040  0.1316 -4.0312
19782TIP3   OH280760   0.681   1.704  12.860  0.5630  0.0346 -0.3458
19782TIP3    H180761   0.668   1.670  12.948  0.9094 -0.7206 -0.5808
19782TIP3    H280762   0.593   1.716  12.826  0.4376 -0.8991 -0.3582
19783TIP3   OH280763   0.847   0.056   4.283  0.2533 -0.1852 -0.3803
19783TIP3    H180764   0.892   0.068   4.367  0.9805  0.6520 -0.8849
19783TIP3    H280765   0.887  -0.022   4.245 -1.0438 -1.3954  0.6652
19784TIP3   OH280766   0.265   5.367   5.279 -0.4445 -0.2203  0.2209
19784TIP3    H180767   0.282   5.278   5.311 -0.5995 -0.6912 -0.9824
19784TIP3    H280768   0.351   5.406   5.266 -0.3807 -0.0203  1.2156
19785TIP3   OH280769   0.403   3.709  14.049  0.7971  0.0929 -0.2860
19785TIP3    H180770   0.477   3.757  14.085 -0.0656  0.8834  0.4486
19785TIP3    H280771   0.355   3.678  14.126  0.7004 -0.9657 -0.7508
19786TIP3   OH280772   5.835   2.033   1.877 -0.3727  0.3817  0.3865
19786TIP3    H180773   5.776   1.958   1.887 -0.4788  0.4827  0.5395
19786TIP3    H280774   5.776   2.108   1.873 -0.2310  0.5370  1.1211
19787TIP3   OH280775   4.771   4.945  14.637  0.0088 -0.4114  0.3446
19787TIP3    H180776   4.686   4.921  14.601 -0.8411  0.8055  1.4833
19787TIP3    H280777   4.773   5.040  14.632  1.6945 -0.4790 -0.5122
19788TIP3   OH280778   6.173   5.437   4.309 -0.1617  0.6009 -0.3109
19788TIP3    H180779   6.135   5.511   4.262 -2.2631 -1.0802 -1.3057
19788TIP3    H280780   6.099   5.397   4.355  0.7862 -1.4584 -0.5390
19789TIP3   OH280781   1.766   4.671   2.975 -0.5125  0.9931 -0.5403
19789TIP3    H180782   1.854   4.637   2.957 -1.0684  0.2655 -1.9329
19789TIP3    H280783   1.749   4.732   2.904 -0.7329  1.9139  0.2998
19790TIP3   OH280784   2.936   5.199  15.698 -0.0481  0.1237 -0.5972
19790TIP3    H180785   2.972   5.128  15.750 -0.7243  0.9135  0.9744
19790TIP3    H280786   2.886   5.155  15.629  0.0640 -0.9215 -0.0257
19791TIP3   OH280787   2.803   2.798  16.734  0.2460  0.5076  0.0693
19791TIP3    H180788   2.887   2.842  16.745  0.0926  1.0024 -0.7242
19791TIP3    H280789   2.819   2.709  16.765  1.6213  0.0238 -1.9094
19792TIP3   OH280790   0.170   4.843  15.455 -0.4260 -0.4624  0.1542
19792TIP3    H180791   0.235   4.884  15.512  0.2947 -0.9349 -0.3066
19792TIP3    H280792   0.131   4.916  15.407 -0.0535 -0.1899  0.2564
19793TIP3   OH280793   4.336   0.989   4.684  0.1066 -0.5009  0.3520
19793TIP3    H180794   4.242   0.987   4.666  0.2090  1.1323 -0.4905
19793TIP3    H280795   4.375   0.933   4.617 -0.1211  0.3092 -0.4729
19794TIP3   OH280796   1.659   5.731   4.033  0.4438  0.0567  0.8929
19794TIP3    H180797   1.753   5.728   4.018  1.0770  1.0678  4.2437
19794TIP3    H280798   1.623   5.665   3.973  3.2212 -0.2498 -0.5291
19795TIP3   OH280799   0.481   4.441  14.090  0.1601  0.2128  0.4497
19795TIP3    H180800   0.427   4.519  14.083  0.3577  0.3577  0.5343
19795TIP3    H280801   0.542   4.447  14.016 -0.8932 -0.6939 -0.5009
19796TIP3   OH280802   4.294   6.689  13.526  0.4364  0.4026 -0.1365
19796TIP3    H180803   4.337   6.639  13.596 -1.6886 -1.8987 -0.4061
19796TIP3    H280804   4.352   6.679  13.450  0.5852 -0.7429  0.1163
19797TIP3   OH280805   2.741   6.307  16.813  0.1328  0.8626 -0.3442
19797TIP3    H180806   2.742   6.211  16.820  2.2900  0.7723 -1.2891
19797TIP3    H280807   2.667   6.335  16.867 -0.6016 -1.3433 -0.1662
19798TIP3   OH280808   1.485   4.673   2.838  0.6608 -0.0316 -0.1081
19798TIP3    H180809   1.400   4.716   2.849 -0.5483 -2.3422 -0.1272
19798TIP3    H280810   1.467   4.601   2.778  2.5918 -0.7178  0.1180
19799TIP3   OH280811   2.445   3.679   3.678  1.0222 -0.2929 -0.4197
19799TIP3    H180812   2.359   3.640   3.669  0.8203 -0.5101  2.3113
19799TIP3    H280813   2.455   3.734   3.599 -1.2553 -0.8709 -1.1236
19800TIP3   OH280814   3.292   3.772  12.652 -0.1097  0.1115  0.2182
19800TIP3    H180815   3.229   3.736  12.589  0.9165  3.5847 -2.9647
19800TIP3    H280816   3.377   3.756  12.612  0.7582  0.1263  1.9979
19801TIP3   OH280817   5.163   0.832  16.482  0.3525  1.0336  0.4841
19801TIP3    H180818   5.162   0.747  16.526  1.0291  1.6666  1.7543
19801TIP3    H280819   5.204   0.814  16.397 -1.1450 -0.2373  0.0078
19802TIP3   OH280820   6.567   5.251  14.774 -0.4472 -0.0575 -0.2105
19802TIP3    H180821   6.504   5.200  14.723 -1.5124 -0.1727  1.1713
19802TIP3    H280822   6.530   5.252  14.862 -0.3726  2.9830 -0.1695
19803TIP3   OH280823   6.568   3.244  13.238  0.4893 -0.0293  0.0441
19803TIP3    H180824   6.657   3.222  13.267  0.9781  1.7283 -0.0189
19803TIP3    H280825   6.514   3.234  13.316  0.8398 -0.6118  0.2106
19804TIP3   OH280826   3.932   6.417  12.531  0.1834 -0.4659  0.1813
19804TIP3    H180827   3.981   6.357  12.587  0.3561 -2.4725 -2.0579
19804TIP3    H280828   3.843   6.381  12.530  0.0078 -0.0280 -0.2513
19805TIP3   OH280829   6.336   0.815   0.688  0.5678 -0.3792  0.0632
19805TIP3    H180830   6.419   0.769   0.681  0.5837 -0.4004  0.3535
19805TIP3    H280831   6.335   0.877   0.615  0.9340 -0.2276  0.1862
19806TIP3   OH280832   6.082   6.642   4.560 -0.7039 -0.4736  0.1662
19806TIP3    H180833   6.090   6.666   4.467  0.7522 -0.0676  0.3731
19806TIP3    H280834   5.995   6.671   4.585 -1.0142 -0.3410 -1.0090
19807TIP3   OH280835   1.636   1.659  14.201 -0.6687  0.2920  0.4317
19807TIP3    H180836   1.569   1.603  14.240 -0.4950  0.8125  1.5180
19807TIP3    H280837   1.648   1.625  14.112 -1.4105 -0.6355  0.6778
19808TIP3   OH280838   1.679   1.601   0.771  0.0096 -0.0033  0.3079
19808TIP3    H180839   1.595   1.580   0.813 -0.7038  1.7795 -0.1856
19808TIP3    H280840   1.655   1.657   0.697  1.5809 -0.0726 -0.2629
19809TIP3   OH280841   5.541   2.687   1.884 -0.3670  0.7632  0.0398
19809TIP3    H180842   5.459   2.676   1.836  0.1863 -2.4431 -0.2591
19809TIP3    H280843   5.608   2.687   1.816  0.1153  0.3194  0.5143
19810TIP3   OH280844   5.936   5.116  15.271 -0.6256  0.0130 -0.2324
19810TIP3    H180845   5.927   5.059  15.348  1.2601  0.0077  0.0063
19810TIP3    H280846   5.916   5.060  15.197  1.2241 -0.9805 -0.0032
19811TIP3   OH280847   0.407   6.572   5.227 -0.5333 -0.8684 -0.5954
19811TIP3    H180848   0.427   6.538   5.315 -2.9180  0.8864  0.7024
19811TIP3    H280849   0.475   6.637   5.211 -1.4027  0.5184  1.0439
19812TIP3   OH280850   1.628   4.691  11.012  0.0132 -0.3675 -0.0163
19812TIP3    H180851   1.670   4.733  10.937 -1.1729  0.9179  0.0260
19812TIP3    H280852   1.650   4.598  11.002  1.4845  0.0491 -0.8861
19813TIP3   OH280853   3.919   6.283  14.399  0.5402  0.2318  0.0784
19813TIP3    H180854   3.848   6.275  14.336  0.8825 -2.3512 -0.0308
19813TIP3    H280855   3.887   6.238  14.478  2.0682 -1.1135 -0.0344
19814TIP3   OH280856   2.703   3.858  13.305  0.2936  0.6473 -0.0802
19814TIP3    H180857   2.783   3.889  13.262 -0.0586  2.0087  0.2202
19814TIP3    H280858   2.711   3.762  13.304  1.0850  0.7166 -1.6325
19815TIP3   OH280859   6.368   5.562   3.985  0.6568  0.0217  0.1285
19815TIP3    H180860   6.371   5.598   3.896  1.7224 -3.0218 -1.1375
19815TIP3    H280861   6.303   5.491   3.980 -0.1692  0.6010  2.1138
19816TIP3   OH280862   0.877   1.363   5.298 -0.6028 -0.1394 -0.0405
19816TIP3    H180863   0.788   1.395   5.284 -0.8861 -1.0695 -0.3963
19816TIP3    H280864   0.933   1.435   5.271 -1.2051 -0.5596 -2.5140
19817TIP3   OH280865   5.590   3.800  14.399  0.0527  0.6912  1.0006
19817TIP3    H180866   5.511   3.812  14.452 -0.9520 -0.6745 -0.1661
19817TIP3    H280867   5.651   3.753  14.457 -1.2540 -1.3193  0.7859
19818TIP3   OH280868   5.385   6.191  16.852 -0.4821  0.1817 -0.4416
19818TIP3    H180869   5.443   6.193  16.928  0.4541 -1.0844 -1.1074
19818TIP3    H280870   5.310   6.139  16.880 -0.3528  0.1064 -0.2340
19819TIP3   OH280871   0.246   1.768  15.635 -0.6226  0.2357 -0.0713
19819TIP3    H180872   0.188   1.693  15.648 -2.4833  1.6204 -0.0195
19819TIP3    H280873   0.334   1.731  15.630 -1.4501 -1.8723  0.5083
19820TIP3   OH280874   4.326   5.537   2.871  0.0608  0.3149 -0.3368
19820TIP3    H180875   4.356   5.530   2.780 -0.2015  2.1599 -0.5839
19820TIP3    H280876   4.245   5.488   2.873 -0.2206  0.7184 -1.2489
19821TIP3   OH280877   1.765   2.867  14.715 -0.8127  0.4191  0.7953
19821TIP3    H180878   1.794   2.857  14.806  0.5613  0.5303  0.3796
19821TIP3    H280879   1.842   2.846  14.663 -1.3543  1.2196 -0.3395
19822TIP3   OH280880   1.056   1.593  15.774  0.1444 -0.2730 -0.3502
19822TIP3    H180881   0.963   1.604  15.758 -0.0766  0.5403  1.3949
19822TIP3    H280882   1.062   1.560  15.864  1.5649  0.4531 -0.1618
19823TIP3   OH280883   5.789   5.295   0.795 -0.2510 -0.2234  0.0495
19823TIP3    H180884   5.784   5.285   0.700 -0.4825 -0.9837  0.1404
19823TIP3    H280885   5.734   5.225   0.830  0.3202 -0.3271  0.7552
19824TIP3   OH280886   2.450   3.944   4.370 -0.3844  0.0689  0.3262
19824TIP3    H180887   2.530   3.911   4.410 -1.8190 -1.3905  2.1276
19824TIP3    H280888   2.432   3.884   4.298  0.1530  0.3984 -0.0784
19825TIP3   OH280889   0.752   5.845   2.193  0.3899 -0.4859  0.4866
19825TIP3    H180890   0.742   5.791   2.272  2.2842 -0.3343  0.8571
19825TIP3    H280891   0.821   5.907   2.216 -0.2020  0.6375 -0.7327
19826TIP3   OH280892   2.291   6.558  11.596  0.0664  0.3494 -0.1938
19826TIP3    H180893   2.339   6.594  11.521  0.3026 -0.4264 -0.4184
19826TIP3    H280894   2.203   6.542  11.562  0.1022  0.2417 -0.2370
19827TIP3   OH280895   4.612   5.986   0.734  0.2438 -0.1847  0.0263
19827TIP3    H180896   4.697   5.971   0.693 -0.4709  2.1859 -2.5544
19827TIP3    H280897   4.589   6.075   0.707 -3.1011 -0.8302  0.5844
19828TIP3   OH280898   5.775   2.292   3.176  0.0556 -0.0842  0.5961
19828TIP3    H180899   5.742   2.381   3.165 -3.0926 -1.4502 -1.8255
19828TIP3    H280900   5.751   2.248   3.094  2.6950 -2.8156  1.2324
19829TIP3   OH280901   3.032   3.836  11.131  0.2591  0.5750  0.7160
19829TIP3    H180902   3.063   3.814  11.043  2.1019  2.4560  0.8492
19829TIP3    H280903   2.982   3.917  11.119  0.9475  1.1197  1.4614
19830TIP3   OH280904   0.205   3.580   1.126  0.3964  0.0828  0.4206
19830TIP3    H180905   0.266   3.621   1.065 -0.1307 -1.4713 -1.1660
19830TIP3    H280906   0.258   3.521   1.179  0.1146 -2.2442 -1.8196
19831TIP3   OH280907   5.475   4.717  16.956 -0.0841 -0.2804  0.3397
19831TIP3    H180908   5.480   4.640  16.899  1.6305  3.2127 -4.5958
19831TIP3    H280909   5.566   4.733  16.981 -0.1534  1.2674 -0.3638
19832TIP3   OH280910   5.369   3.177  16.000 -0.1632  0.1651 -0.2707
19832TIP3    H180911   5.381   3.142  16.088 -2.1829  1.6389  0.6375
19832TIP3    H280912   5.438   3.136  15.948  0.3360 -1.6206  1.7290
19833TIP3   OH280913   4.498   6.591  11.371 -0.6615 -0.5579  0.0889
19833TIP3    H180914   4.568   6.651  11.348  0.8930 -1.2178  2.8972
19833TIP3    H280915   4.443   6.641  11.432 -1.9964 -0.4428 -1.1817
19834TIP3   OH280916   0.271   5.008  13.892 -0.1002  0.6875 -0.7627
19834TIP3    H180917   0.285   4.918  13.862  0.4316  0.4110  0.3236
19834TIP3    H280918   0.348   5.056  13.862  0.2735  0.4822 -0.1362
19835TIP3   OH280919   1.354   3.459   2.760 -0.0525 -0.6072  0.0694
19835TIP3    H180920   1.438   3.457   2.713 -0.1739  1.4134 -0.3137
19835TIP3    H280921   1.378   3.442   2.852  0.8314  0.1367 -0.0042
19836TIP3   OH280922   1.018   2.099   5.490 -0.6751 -0.3474 -0.1192
19836TIP3    H180923   1.060   2.014   5.476 -1.0277 -0.0800 -2.9664
19836TIP3    H280924   0.939   2.079   5.540 -0.1218 -1.5354  0.2958
19837TIP3   OH280925   1.310   6.352  11.775 -0.7392 -0.0054  0.4705
19837TIP3    H180926   1.334   6.259  11.778  0.2045  0.1926 -0.6658
19837TIP3    H280927   1.323   6.378  11.684 -2.9469  0.7566  0.3468
19838TIP3   OH280928   5.385   1.076   2.612  0.4832 -0.1461  0.1677
19838TIP3    H180929   5.340   1.150   2.654 -0.9486 -0.2652 -1.0962
19838TIP3    H280930   5.418   1.023   2.684  2.4499  2.2751  1.0884
19839TIP3   OH280931   0.351   4.912   3.181  0.2761  0.6414  0.7048
19839TIP3    H180932   0.396   4.838   3.224 -1.2688 -0.3597  0.6367
19839TIP3    H280933   0.284   4.938   3.244 -0.3758  0.8007 -0.0619
19840TIP3   OH280934   3.680   6.119   3.230 -0.3056  0.6430  0.3089
19840TIP3    H180935   3.754   6.143   3.286 -0.9364 -0.8286  1.8158
19840TIP3    H280936   3.696   6.166   3.148  2.4829  0.0963  0.4723
19841TIP3   OH280937   5.408   2.267   2.864 -0.3542 -0.8662  0.1635
19841TIP3    H180938   5.504   2.260   2.863 -0.4184 -1.7909 -0.8828
19841TIP3    H280939   5.378   2.180   2.888 -0.9423 -0.6131  0.3483
19842TIP3   OH280940   5.311   1.941   4.375  0.0810 -0.1358 -0.3546
19842TIP3    H180941   5.273   1.975   4.294 -1.2257  0.5769  0.5336
19842TIP3    H280942   5.395   1.987   4.383  0.2413 -0.2494 -1.3241
19843TIP3   OH280943   5.173   4.121   1.622 -0.1310 -1.0793  0.0686
19843TIP3    H180944   5.115   4.131   1.547  0.4401  0.3831 -0.1917
19843TIP3    H280945   5.120   4.145   1.698  0.1084  0.2473 -0.1676
19844TIP3   OH280946   4.393   6.066   3.871 -0.1980 -0.3418 -0.5145
19844TIP3    H180947   4.406   6.161   3.875  1.5186 -0.4688 -2.1485
19844TIP3    H280948   4.398   6.037   3.962 -0.0227  1.0429 -0.0736
19845TIP3   OH280949   0.615   0.704  12.885 -0.0470  0.7964 -0.4177
19845TIP3    H180950   0.651   0.621  12.854 -1.0487 -0.9831  2.9514
19845TIP3    H280951   0.542   0.722  12.826 -0.8283 -1.6002 -0.2454
19846TIP3   OH280952   0.036   5.892  16.477 -0.4579  0.1207 -0.2900
19846TIP3    H180953   0.052   5.798  16.469  0.2188  0.3338 -1.6068
19846TIP3    H280954   0.113   5.933  16.438 -0.0823  1.2535  1.5501
19847TIP3   OH280955   2.258   0.384   4.624  0.0123 -0.3170 -0.0921
19847TIP3    H180956   2.192   0.351   4.685  0.0963  0.8065  0.6219
19847TIP3    H280957   2.303   0.453   4.673  0.1795  0.4961 -1.3863
19848TIP3   OH280958   6.786   6.075   3.215  0.0951  0.6244  0.6701
19848TIP3    H180959   6.760   6.113   3.299 -0.7808  0.9179  0.2705
19848TIP3    H280960   6.859   6.016   3.237 -0.3060  0.4879  1.6753
19849TIP3   OH280961   0.646   2.942  15.869  0.4594 -0.0667 -0.3338
19849TIP3    H180962   0.622   2.907  15.955  2.4341 -0.5567  0.0590
19849TIP3    H280963   0.563   2.961  15.826 -0.5589  0.1442  1.6714
19850TIP3   OH280964   1.433   3.276  11.622  0.1380  0.5711  0.1277
19850TIP3    H180965   1.343   3.273  11.653 -0.8220 -2.2083 -2.6468
19850TIP3    H280966   1.436   3.355  11.567 -1.4191 -0.7765 -1.9566
19851TIP3   OH280967   6.642   6.216   3.624 -0.3373 -0.4240 -0.1514
19851TIP3    H180968   6.664   6.290   3.680 -0.3645  0.9808 -1.9684
19851TIP3    H280969   6.558   6.185   3.657  0.5052 -0.7917  1.7355
19852TIP3   OH280970   0.618   1.634   4.634 -0.2552  0.1901 -0.7143
19852TIP3    H180971   0.662   1.697   4.691  0.8596 -2.0841  1.0063
19852TIP3    H280972   0.682   1.616   4.565 -0.8215  1.4019 -1.5692
19853TIP3   OH280973   5.819   0.005  10.394  0.2250 -0.1720 -0.3303
19853TIP3    H180974   5.846   0.087  10.351  0.5044 -0.2111 -0.2327
19853TIP3    H280975   5.901  -0.032  10.428  0.1872 -0.8451 -0.9848
19854TIP3   OH280976   4.610   0.194  16.307 -0.0635  0.7120  0.7978
19854TIP3    H180977   4.679   0.160  16.365  0.0316  0.2332  0.3972
19854TIP3    H280978   4.620   0.145  16.226 -1.6082 -0.1523  1.1248
19855TIP3   OH280979   0.386   0.355  17.047  0.6149  0.1043  0.2827
19855TIP3    H180980   0.308   0.409  17.063 -1.0083 -1.7243 -1.1865
19855TIP3    H280981   0.391   0.297  17.123  0.7030  0.3957  0.5008
19856TIP3   OH280982   5.553   1.347  16.253  0.3870  0.8319 -0.0580
19856TIP3    H180983   5.550   1.278  16.319  1.4300 -0.2841 -1.1745
19856TIP3    H280984   5.605   1.416  16.294  0.0927  0.6134  0.7067
19857TIP3   OH280985   2.814   3.686   4.848 -0.1425 -0.6679  0.1348
19857TIP3    H180986   2.729   3.652   4.822 -0.3032 -0.9191  0.9673
19857TIP3    H280987   2.802   3.714   4.939  0.8401 -1.3189  0.4741
19858TIP3   OH280988   6.121   3.991   3.242 -0.0824  0.5810 -0.0142
19858TIP3    H180989   6.096   3.950   3.325  0.1662  1.7166  0.6305
19858TIP3    H280990   6.213   4.014   3.253 -0.0003  0.5759 -0.6735
19859TIP3   OH280991   6.193   2.721  11.688  0.0385 -0.4641 -0.2961
19859TIP3    H180992   6.101   2.728  11.712 -0.0895 -0.5985 -0.7470
19859TIP3    H280993   6.217   2.808  11.657  0.3306 -0.1646  0.7590
19860TIP3   OH280994   0.437   5.477  12.351 -0.0263  0.9489  0.1633
19860TIP3    H180995   0.382   5.407  12.315  0.0415  1.3070 -0.6570
19860TIP3    H280996   0.517   5.474  12.299  1.4953 -0.7425  2.5212
19861TIP3   OH280997   6.378   0.338   6.181 -0.8326  0.6879 -0.0436
19861TIP3    H180998   6.361   0.265   6.240 -3.2699  0.7972 -0.5511
19861TIP3    H280999   6.439   0.304   6.116 -1.2120 -0.6102  0.2714
19862TIP3   OH281000   4.450   4.215   5.094 -0.2121 -0.4780  0.1139
19862TIP3    H181001   4.522   4.188   5.152 -0.2493  0.7985  0.7691
19862TIP3    H281002   4.492   4.229   5.009  0.1083 -0.9035  0.2008
19863TIP3   OH281003   1.030   0.445  12.987 -0.5202  0.5281 -0.1215
19863TIP3    H181004   0.991   0.522  13.028  0.4400  0.8250  0.2524
19863TIP3    H281005   1.050   0.472  12.898 -3.0854 -0.2759 -0.9800
19864TIP3   OH281006   2.581   3.567   4.713 -0.4372 -0.1010  0.4435
19864TIP3    H181007   2.506   3.508   4.714 -0.7156  0.2592  2.3068
19864TIP3    H281008   2.547   3.649   4.677 -0.6142 -0.3334  0.0743
19865TIP3   OH281009   5.293   6.566   4.776 -1.5297 -0.1117 -0.4228
19865TIP3    H181010   5.294   6.631   4.845  0.2356 -0.0784 -0.4610
19865TIP3    H281011   5.382   6.531   4.774 -2.9797 -4.2992  1.2759
19866TIP3   OH281012   1.566   1.364  12.759  0.3905 -0.2611 -0.0986
19866TIP3    H181013   1.591   1.272  12.769  1.1177 -0.0149  0.3394
19866TIP3    H281014   1.615   1.393  12.682 -1.5253 -0.8362 -1.5802
19867TIP3   OH281015   3.848   1.396   6.270 -1.0911 -0.6782  0.1552
19867TIP3    H181016   3.765   1.347   6.266 -1.4143 -0.0868 -0.7886
19867TIP3    H281017   3.853   1.429   6.359 -2.5945  0.4686 -0.1551
19868TIP3   OH281018   3.163   4.642   2.763 -0.4789 -0.4465 -0.7591
19868TIP3    H181019   3.128   4.659   2.850 -1.4447 -1.4234 -0.9458
19868TIP3    H281020   3.257   4.652   2.772 -0.5821 -0.4832  0.3793
19869TIP3   OH281021   0.239   0.953   4.765 -0.4226  0.1575  0.7366
19869TIP3    H181022   0.275   0.897   4.833 -1.1509  1.5853  2.3188
19869TIP3    H281023   0.299   0.941   4.691  0.9978 -0.5685  1.9701
19870TIP3   OH281024   3.247   6.779   1.717 -0.5555 -0.0712  0.6348
19870TIP3    H181025   3.282   6.782   1.806 -1.2960  0.9688  0.9116
19870TIP3    H281026   3.234   6.686   1.699 -0.4473 -0.2878  1.6289
19871TIP3   OH281027   3.039   5.833  13.650  0.7087  0.2889  0.2745
19871TIP3    H181028   3.074   5.747  13.674 -1.5688 -0.2192  1.9677
19871TIP3    H281029   3.062   5.890  13.723 -1.5620  0.0338  1.2379
19872TIP3   OH281030   0.782   6.315  16.741  0.8092  0.3314 -0.3801
19872TIP3    H181031   0.747   6.331  16.653 -0.2323  0.6238  0.0779
19872TIP3    H281032   0.846   6.385  16.754  0.0297  1.0597 -0.4097
19873TIP3   OH281033   4.363   0.994  14.004  0.2074  0.4497 -0.2827
19873TIP3    H181034   4.388   0.917  14.055 -2.5811 -0.6580 -0.5057
19873TIP3    H281035   4.417   0.991  13.926 -0.2115 -1.5717 -0.5139
19874TIP3   OH281036   1.306   4.937  12.036 -0.0034 -0.1253  0.2065
19874TIP3    H181037   1.357   4.856  12.039  0.6335  0.2818  0.3561
19874TIP3    H281038   1.235   4.918  11.975  0.5347 -0.5681 -0.2870
19875TIP3   OH281039   1.233   5.347  14.537 -0.0508 -0.8955 -0.0029
19875TIP3    H181040   1.158   5.287  14.532 -0.6074 -0.1196 -1.2983
19875TIP3    H281041   1.194   5.432  14.558  0.3528 -0.3163 -1.5149
19876TIP3   OH281042   0.238   3.388   0.009 -0.0909 -0.1511  0.2755
19876TIP3    H181043   0.249   3.302  -0.030 -2.2758  0.2232 -1.2810
19876TIP3    H281044   0.326   3.423   0.017  0.6317 -1.5317 -1.3691
19877TIP3   OH281045   6.337   1.746  16.893 -0.2087 -0.4393  0.0317
19877TIP3    H181046   6.345   1.799  16.814 -1.6189 -1.1525 -0.6126
19877TIP3    H281047   6.427   1.733  16.922  0.2894  0.3271 -1.1185
19878TIP3   OH281048   0.044   3.543   3.297  0.1077 -0.2419  0.7541
19878TIP3    H181049   0.084   3.629   3.312  0.5780 -0.6813  2.1277
19878TIP3    H281050   0.043   3.533   3.202 -1.8272  2.1630  0.4797
19879TIP3   OH281051   6.684   4.525  14.536 -0.2350  0.9563  0.0296
19879TIP3    H181052   6.745   4.492  14.470  0.9018 -2.4605  2.6336
19879TIP3    H281053   6.598   4.508  14.500  0.3755 -1.0723 -0.5237
19880TIP3   OH281054   3.444   4.093  11.963  0.9755 -0.0755  0.3384
19880TIP3    H181055   3.466   4.031  12.032 -1.5109 -0.2445  1.0185
19880TIP3    H281056   3.402   4.040  11.895 -0.3923  0.7147  0.5517
19881TIP3   OH281057   6.030   6.567  15.798 -0.6107 -0.1521  0.3114
19881TIP3    H181058   5.944   6.553  15.758  0.1910 -0.9641 -1.1742
19881TIP3    H281059   6.091   6.566  15.724  0.7580 -0.3071  1.4256
19882TIP3   OH281060   1.261   2.732  14.688 -0.4036  0.1797  0.0636
19882TIP3    H181061   1.313   2.801  14.731  0.3039 -1.2665  1.5836
19882TIP3    H281062   1.313   2.652  14.701 -1.0378 -0.5853 -1.9913
19883TIP3   OH281063   1.094   3.299  13.496 -0.1193  0.0604 -0.0495
19883TIP3    H181064   1.009   3.258  13.514 -1.7390  3.0621 -0.6085
19883TIP3    H281065   1.081   3.345  13.413  2.4900 -0.5301 -0.8258
19884TIP3   OH281066   3.976   6.215   5.394  0.0056 -0.6481 -0.0455
19884TIP3    H181067   3.957   6.282   5.329  0.8548  0.0317  0.3912
19884TIP3    H281068   3.940   6.250   5.476 -0.3981 -1.1581 -0.0066
19885TIP3   OH281069   6.112   4.716  14.378 -0.5055  0.4549  0.2651
19885TIP3    H181070   6.160   4.655  14.435 -0.6232  2.6393  2.8010
19885TIP3    H281071   6.180   4.758  14.325 -0.1108  0.1796  0.5464
19886TIP3   OH281072   5.945   5.879   2.390  0.4117  0.1304  0.3856
19886TIP3    H181073   5.895   5.902   2.469  1.6493 -3.4471  2.3184
19886TIP3    H281074   5.911   5.794   2.364  3.1146 -0.7894 -0.2771
19887TIP3   OH281075   1.337   3.665  10.358  0.3616 -0.1334  0.2071
19887TIP3    H181076   1.273   3.604  10.396 -0.9334  0.2437 -1.3182
19887TIP3    H281077   1.293   3.701  10.281  1.0439  2.7784  1.1000
19888TIP3   OH281078   5.655   4.610  11.970  0.0963 -0.4927 -0.0923
19888TIP3    H181079   5.699   4.668  12.031  2.0580 -0.9304 -1.0704
19888TIP3    H281080   5.589   4.666  11.927 -0.6404  0.0438  1.6802
19889TIP3   OH281081   3.013   1.549   2.473  0.1930 -0.0784  0.2901
19889TIP3    H181082   3.033   1.460   2.502 -0.9264 -0.5805 -0.4604
19889TIP3    H281083   2.943   1.578   2.531  1.2038  0.6829  1.1588
19890TIP3   OH281084   5.797   1.960   4.848  0.0721  0.3665  0.3427
19890TIP3    H181085   5.820   2.050   4.872  0.5139 -0.2349  2.3005
19890TIP3    H281086   5.872   1.928   4.798  1.0807  0.2637  1.8830
19891TIP3   OH281087   0.819   6.771   4.704  0.3784 -0.3777  0.3136
19891TIP3    H181088   0.825   6.676   4.698  0.0780 -0.4107  0.5150
19891TIP3    H281089   0.747   6.794   4.645 -0.3555 -0.3897  1.1991
19892TIP3   OH281090   5.349   2.296   5.208 -0.1931 -0.4151  0.1183
19892TIP3    H181091   5.291   2.283   5.133 -0.4630 -1.4341  0.5036
19892TIP3    H281092   5.388   2.210   5.224  2.1086  0.4410 -0.6805
19893TIP3   OH281093   6.200   3.032  14.316 -0.1721  0.1812  0.6686
19893TIP3    H181094   6.165   3.057  14.231  1.8949  0.6258 -0.0861
19893TIP3    H281095   6.131   2.980  14.357 -0.3434 -1.9472 -2.1927
19894TIP3   OH281096   3.496   2.427  10.593  0.0121 -0.1243  0.7318
19894TIP3    H181097   3.438   2.498  10.619  0.4349  0.2880  0.5566
19894TIP3    H281098   3.439   2.363  10.551 -0.1905  0.6680 -0.2230
19895TIP3   OH281099   1.397   0.161  10.812 -0.5004  0.0625 -0.9370
19895TIP3    H181100   1.317   0.195  10.771 -0.0588 -0.4655 -2.2831
19895TIP3    H281101   1.454   0.140  10.738  1.5072  1.9063  0.0062
19896TIP3   OH281102   6.208   4.308   2.396 -0.4807 -0.2316 -0.1919
19896TIP3    H181103   6.296   4.278   2.374 -0.1019  0.7554 -0.0719
19896TIP3    H281104   6.173   4.342   2.314 -1.0018 -1.2309 -0.3850
19897TIP3   OH281105   0.725   1.735   0.200 -0.0582 -0.2367 -0.0877
19897TIP3    H181106   0.683   1.654   0.172 -2.2883  0.3454  1.4566
19897TIP3    H281107   0.668   1.769   0.269  2.6137  0.9314  1.6099
19898TIP3   OH281108   5.444   0.040  10.896  0.5771  0.7925  0.1177
19898TIP3    H181109   5.392   0.100  10.842 -2.7154 -0.4511  1.7438
19898TIP3    H281110   5.447   0.082  10.982  1.4313  0.3462  0.3142
19899TIP3   OH281111   2.935   4.007   1.009 -0.1140  0.8057 -0.2498
19899TIP3    H181112   3.015   3.979   1.055 -0.0244  3.1886  1.1105
19899TIP3    H281113   2.960   4.010   0.917  0.3472 -1.8715 -0.2492
19900TIP3   OH281114   4.222   2.553  14.358  0.1185  0.2443 -0.3117
19900TIP3    H181115   4.262   2.590  14.438 -1.5127  1.3135  0.0412
19900TIP3    H281116   4.288   2.492  14.324  1.4409  0.8735  1.0494
19901TIP3   OH281117   6.160   5.125   1.972  0.5202 -0.0421 -0.1722
19901TIP3    H181118   6.220   5.175   2.028  0.3121  1.3557 -1.1642
19901TIP3    H281119   6.073   5.157   1.996  0.3627 -0.1463 -0.6059
19902TIP3   OH281120   6.472   6.266  12.848 -0.1291 -0.2636  0.1291
19902TIP3    H181121   6.495   6.300  12.934 -1.8106 -0.9699  0.8731
19902TIP3    H281122   6.472   6.171  12.859  0.3217 -0.3849 -0.8336
19903TIP3   OH281123   3.760   5.481   6.182 -1.1532 -0.4890 -0.5297
19903TIP3    H181124   3.781   5.402   6.132 -0.7882 -0.3888 -0.5293
19903TIP3    H281125   3.728   5.448   6.266  2.0847 -0.5901  0.7351
19904TIP3   OH281126   4.046   2.145  14.660  0.1073 -0.5187 -0.3384
19904TIP3    H181127   4.079   2.160  14.572  0.2906  2.1348  0.1407
19904TIP3    H281128   3.951   2.141  14.649  0.1420 -0.3942 -0.7051
19905TIP3   OH281129   0.288   4.819   5.032 -0.2705 -0.0358 -0.3743
19905TIP3    H181130   0.291   4.725   5.046  0.0573  0.1618  0.9267
19905TIP3    H281131   0.236   4.853   5.105  1.3135  0.9972  0.2995
19906TIP3   OH281132   2.365   5.408   3.559  0.2321  0.2166 -0.1181
19906TIP3    H181133   2.443   5.441   3.604  0.5256 -0.7356  0.0974
19906TIP3    H281134   2.295   5.469   3.583  0.4183 -0.1845  1.5332
19907TIP3   OH281135   5.304   2.021  14.714 -0.1470 -0.1133 -0.0154
19907TIP3    H181136   5.294   1.971  14.633  0.0827 -1.3250  0.6996
19907TIP3    H281137   5.364   1.969  14.767 -0.5537  0.5196  1.0753
19908TIP3   OH281138   3.050   0.628  11.032  0.3821 -0.8348 -0.9176
19908TIP3    H181139   3.123   0.605  10.974  0.5924  0.6173 -1.2621
19908TIP3    H281140   3.075   0.595  11.118 -0.4775 -4.1080 -1.8693
19909TIP3   OH281141   6.468   4.390   0.846  0.3690  0.0842  0.5018
19909TIP3    H181142   6.509   4.306   0.830  0.1075 -0.0619  0.5934
19909TIP3    H281143   6.498   4.416   0.933  1.7318  0.8438 -0.1940
19910TIP3   OH281144   6.050   3.287   2.891 -0.2508  0.4178 -0.0826
19910TIP3    H181145   6.092   3.361   2.847  0.9191 -0.1677  0.0447
19910TIP3    H281146   5.956   3.304   2.882 -0.0014  1.2529 -1.1837
19911TIP3   OH281147   5.839   0.799   2.429  0.2191  0.2761  0.0152
19911TIP3    H181148   5.847   0.889   2.458 -1.7213  0.2017  0.8702
19911TIP3    H281149   5.820   0.806   2.335  1.5622  0.6911 -0.2293
19912TIP3   OH281150   6.477   6.402  11.148  0.1631  0.6643 -0.0231
19912TIP3    H181151   6.485   6.408  11.243 -2.0174  1.6957  0.1083
19912TIP3    H281152   6.456   6.310  11.132  2.5597  0.0133  0.2946
19913TIP3   OH281153   1.374   2.904   1.157  0.1563  0.3823 -0.5041
19913TIP3    H181154   1.301   2.957   1.191  0.3600  0.4831 -0.2207
19913TIP3    H281155   1.386   2.835   1.221  1.1882  1.1439  0.1453
19914TIP3   OH281156   6.036   3.190  13.430  0.2401  0.2649  0.1101
19914TIP3    H181157   5.977   3.159  13.362 -0.1422  4.2678 -1.4845
19914TIP3    H281158   6.107   3.233  13.383  0.5955  2.0609  2.2200
19915TIP3   OH281159   2.304   0.572   1.452 -0.2495 -0.1515 -0.2752
19915TIP3    H181160   2.260   0.536   1.375 -2.2216 -0.1941  0.8310
19915TIP3    H281161   2.325   0.662   1.428 -3.0094  0.5943 -0.0484
19916TIP3   OH281162   6.040   1.369  12.621 -0.0753 -0.1338 -0.0733
19916TIP3    H181163   6.065   1.278  12.638  1.4273  0.2646 -0.1120
19916TIP3    H281164   6.004   1.400  12.705  1.1166 -0.2139  0.4810
19917TIP3   OH281165   3.725   0.975   2.865  0.0270  0.0028  0.1704
19917TIP3    H181166   3.661   0.947   2.931 -0.5676  1.3017  0.1550
19917TIP3    H281167   3.758   1.059   2.897  0.0072  0.4681 -0.9969
19918TIP3   OH281168   0.860   2.347   4.710 -0.2846  0.6128  0.5579
19918TIP3    H181169   0.774   2.304   4.717 -0.4903  0.9937  0.3517
19918TIP3    H281170   0.848   2.416   4.645  0.4017  0.1193 -0.1087
19919TIP3   OH281171   6.463   2.529   0.557  0.0194  0.0061  0.1209
19919TIP3    H181172   6.557   2.524   0.540 -0.5649 -1.5866 -3.0733
19919TIP3    H281173   6.441   2.444   0.596  0.0774  0.8573  2.0750
19920TIP3   OH281174   1.672   5.829  12.081  0.1328  1.0498 -0.1191
19920TIP3    H181175   1.659   5.767  12.009  0.8621  1.5084 -0.6454
19920TIP3    H281176   1.686   5.774  12.158 -0.0896  0.5619 -0.4226
19921TIP3   OH281177   3.359   4.510   1.499  0.1418  0.1504  0.5053
19921TIP3    H181178   3.442   4.467   1.521  0.2889  0.0054 -0.3252
19921TIP3    H281179   3.378   4.603   1.503  0.0036  0.1424  1.6116
19922TIP3   OH281180   0.028   6.343   3.062 -0.4604 -0.6703  0.1393
19922TIP3    H181181   0.052   6.278   3.129 -3.5965 -2.6265 -0.5064
19922TIP3    H281182   0.077   6.316   2.985  0.9344 -0.1593  0.8389
19923TIP3   OH281183   4.805   0.854   3.820 -0.0658  0.0329 -0.2802
19923TIP3    H181184   4.732   0.910   3.847  0.3515 -0.4756  2.0505
19923TIP3    H281185   4.871   0.867   3.889  0.3958 -2.6361 -0.1624
19924TIP3   OH281186   6.216   1.510   2.731 -0.4803 -0.9827  0.1871
19924TIP3    H181187   6.167   1.591   2.742 -0.5220 -0.9896  0.0579
19924TIP3    H281188   6.296   1.522   2.783 -0.7572 -1.0881  0.6335
19925TIP3   OH281189   1.677   2.840   1.054 -0.7191 -0.4951  0.5676
19925TIP3    H181190   1.589   2.832   1.091 -1.6933  0.5461 -1.4553
19925TIP3    H281191   1.671   2.799   0.968  1.0406 -1.2732  0.7937
19926TIP3   OH281192   4.806   3.575   3.262 -0.3367 -0.3429 -0.5166
19926TIP3    H181193   4.893   3.596   3.294  0.2728 -1.9743 -1.0532
19926TIP3    H281194   4.750   3.577   3.340  0.2905  0.1091 -0.0795
19927TIP3   OH281195   5.593   3.655  13.329 -0.5098  0.9870 -0.1135
19927TIP3    H181196   5.535   3.586  13.359  0.8010 -0.0014  0.1951
19927TIP3    H281197   5.561   3.679  13.242  0.3823 -1.5900 -1.1872
19928TIP3   OH281198   3.667   1.519   2.361 -0.3642 -0.2969  0.1439
19928TIP3    H181199   3.588   1.505   2.309  0.2342 -0.0940 -0.8371
19928TIP3    H281200   3.695   1.431   2.386 -0.4574 -0.4221 -0.1841
19929TIP3   OH281201   3.442   4.839  13.252 -0.2711  0.0045 -0.8484
19929TIP3    H181202   3.390   4.760  13.265  1.0894 -0.5097  1.9112
19929TIP3    H281203   3.440   4.855  13.158 -1.5191 -2.6453 -1.3013
19930TIP3   OH281204   2.851   5.559   5.411 -0.1136 -0.1856 -0.3709
19930TIP3    H181205   2.930   5.583   5.460  0.2906 -0.2889 -0.9610
19930TIP3    H281206   2.806   5.496   5.468  0.4084 -0.3883 -0.1757
19931TIP3   OH281207   6.682   5.799  13.112  0.0343 -0.3158  0.1668
19931TIP3    H181208   6.749   5.776  13.176  0.4884  1.2583  0.2720
19931TIP3    H281209   6.599   5.779  13.156  0.3962 -1.8373  0.1981
19932TIP3   OH281210   2.251   2.208  15.858  0.7616  0.1219 -0.2258
19932TIP3    H181211   2.157   2.203  15.845  0.7552  0.1595 -0.1963
19932TIP3    H281212   2.275   2.295  15.826  0.9314 -0.2417 -1.0980
19933TIP3   OH281213   2.716   3.944   6.053 -0.3435 -1.0604 -0.2864
19933TIP3    H181214   2.703   3.896   6.135  0.7957  1.5123  1.4434
19933TIP3    H281215   2.811   3.956   6.047 -0.4129 -1.2716 -2.0403
19934TIP3   OH281216   3.877   1.353   0.877  0.1050  0.2299  0.2393
19934TIP3    H181217   3.828   1.271   0.870  0.8746 -0.2372  0.3259
19934TIP3    H281218   3.917   1.350   0.964  1.8585 -0.2679 -0.5703
19935TIP3   OH281219   1.352   0.975   2.080 -0.5491 -0.2221  0.1689
19935TIP3    H181220   1.289   1.040   2.110 -0.6358 -0.5458  0.6970
19935TIP3    H281221   1.310   0.934   2.004 -0.5253  0.2817 -0.1189
19936TIP3   OH281222   4.356   5.212  12.535  0.8449  0.4012 -0.3629
19936TIP3    H181223   4.398   5.164  12.463  3.9992  2.5527 -0.0907
19936TIP3    H281224   4.306   5.281  12.492 -2.4802 -2.1018 -0.6861
19937TIP3   OH281225   3.363   4.626   3.525  0.1192 -0.1902 -0.2094
19937TIP3    H181226   3.299   4.680   3.479 -1.3556 -0.0917  1.9038
19937TIP3    H281227   3.347   4.537   3.493 -0.0411  0.0550 -0.8119
19938TIP3   OH281228   0.378   6.079  10.778 -0.4272  0.3407  0.0821
19938TIP3    H181229   0.416   6.014  10.837 -0.6772 -0.6750 -0.8616
19938TIP3    H281230   0.377   6.160  10.829  2.2936  0.2176  0.3874
19939TIP3   OH281231   6.198   2.806   0.853 -0.3665  0.1312 -0.2884
19939TIP3    H181232   6.155   2.810   0.938  0.3861  0.0743  0.0914
19939TIP3    H281233   6.210   2.713   0.836 -1.9130  0.0757 -1.1625
19940TIP3   OH281234   0.977   4.478   2.920 -0.1837  0.3624 -0.2257
19940TIP3    H181235   0.885   4.471   2.893 -1.0819  0.5120  2.5654
19940TIP3    H281236   1.004   4.565   2.891 -0.9233  0.3014 -1.1068
19941TIP3   OH281237   5.934   2.556   4.287  0.2976 -0.1784 -0.4078
19941TIP3    H181238   5.874   2.574   4.215 -0.0490 -1.3248 -0.4149
19941TIP3    H281239   5.901   2.609   4.359 -0.0249  0.1040 -0.7559
19942TIP3   OH281240   5.544   4.217  12.217  0.0439  0.3331 -0.6472
19942TIP3    H181241   5.619   4.182  12.169 -0.9801 -2.1655 -0.5114
19942TIP3    H281242   5.468   4.184  12.169 -0.9703  0.8354  0.6003
19943TIP3   OH281243   1.150   4.132  12.575 -0.1854  0.2087 -0.1465
19943TIP3    H181244   1.081   4.149  12.511 -0.8395 -2.1408 -0.1145
19943TIP3    H281245   1.223   4.098  12.523 -0.3342 -0.6696  0.1997
19944TIP3   OH281246   6.568   2.136   2.180  0.1388 -0.2791 -0.1423
19944TIP3    H181247   6.541   2.199   2.114  1.6702  0.7119  0.1536
19944TIP3    H281248   6.555   2.051   2.138  0.4196  0.3163 -1.4574
19945TIP3   OH281249   2.958   0.331   0.207 -0.0005 -0.3191 -0.1514
19945TIP3    H181250   2.963   0.308   0.114  2.0787  2.8277 -0.8875
19945TIP3    H281251   3.035   0.289   0.246 -0.3563 -0.8486 -0.0075
19946TIP3   OH281252   2.177   1.654  12.214 -0.0195 -0.1957 -0.4645
19946TIP3    H181253   2.089   1.619  12.231  0.3413 -1.0242 -0.2670
19946TIP3    H281254   2.188   1.645  12.119  0.6280 -1.9832 -0.2387
19947TIP3   OH281255   6.708   1.637   0.984 -0.2182 -0.2787  0.1479
19947TIP3    H181256   6.626   1.685   0.999  1.0899  2.0777 -0.1250
19947TIP3    H281257   6.693   1.588   0.903 -1.5331 -0.2571  0.3687
19948TIP3   OH281258   3.133   5.010   1.281  0.1993  0.9152  0.0191
19948TIP3    H181259   3.060   4.963   1.240  1.4663 -0.9293 -0.2058
19948TIP3    H281260   3.130   5.097   1.242 -1.2856  0.5473 -0.7314
19949TIP3   OH281261   5.115   6.504   5.594  0.1637 -0.0547  0.0815
19949TIP3    H181262   5.022   6.482   5.606  0.1669 -0.5445 -0.7765
19949TIP3    H281263   5.150   6.432   5.542  1.0822  0.0219  0.5910
19950TIP3   OH281264   3.516   0.439   1.029  0.0232  0.2373  0.0168
19950TIP3    H181265   3.424   0.427   1.006  0.4697 -4.2197  0.0945
19950TIP3    H281266   3.526   0.394   1.112  2.5715 -0.7251 -0.7548
19951TIP3   OH281267   4.675   0.357  17.167 -0.1034 -0.4377 -0.4489
19951TIP3    H181268   4.644   0.419  17.233  0.2681 -0.6160 -0.1063
19951TIP3    H281269   4.765   0.337  17.192  0.3337  0.1599 -1.4960
19952TIP3   OH281270   2.358   3.543   1.522  0.7597  0.2505 -0.3294
19952TIP3    H181271   2.423   3.493   1.473 -1.2659 -2.6719 -0.1595
19952TIP3    H281272   2.396   3.550   1.610  0.6258 -1.9511 -0.0682
19953TIP3   OH281273   1.693   0.927  13.035 -0.4157  0.1600  0.0775
19953TIP3    H181274   1.623   0.992  13.025 -0.4552 -0.0184 -0.8881
19953TIP3    H281275   1.761   0.973  13.084 -0.5692  0.8463 -0.3396
19954TIP3   OH281276   1.858   3.303   2.467  0.1247 -0.4891  0.1249
19954TIP3    H181277   1.914   3.254   2.407 -1.9131  0.2189 -2.5032
19954TIP3    H281278   1.802   3.355   2.409 -1.6617  0.5431  2.6948
19955TIP3   OH281279   4.062   2.973  13.327 -0.3213  0.2228  0.0525
19955TIP3    H181280   4.107   3.055  13.307 -1.0965  0.6858  0.1817
19955TIP3    H281281   4.132   2.914  13.354  0.8337 -0.5172 -4.1504
19956TIP3   OH281282   4.745   0.198   3.820 -0.0975 -0.6281 -1.0041
19956TIP3    H181283   4.798   0.189   3.741 -1.2805  0.2782 -1.9076
19956TIP3    H281284   4.763   0.118   3.870  2.2797 -0.2424 -1.1833
19957TIP3   OH281285   6.398   1.834  14.619 -0.3592  0.3291 -0.6960
19957TIP3    H181286   6.320   1.787  14.650 -0.3120  1.0029  0.4855
19957TIP3    H281287   6.388   1.839  14.524 -1.4687 -0.0965 -0.6022
19958TIP3   OH281288   1.116   4.836   3.475  0.1916 -0.9747 -0.3809
19958TIP3    H181289   1.154   4.792   3.398  0.3010 -2.7008  0.6237
19958TIP3    H281290   1.046   4.891   3.439  0.4476 -1.5031 -1.7458
19959TIP3   OH281291   0.294   5.613  11.688 -0.5261 -0.2154 -0.3556
19959TIP3    H181292   0.234   5.596  11.760  0.6066  0.4871  0.7835
19959TIP3    H281293   0.243   5.664  11.626 -1.2682 -0.1014  0.3341
19960TIP3   OH281294   2.158   3.139   2.977 -0.1570  0.2210 -0.0711
19960TIP3    H181295   2.231   3.115   3.032 -1.2060  0.1022  1.3035
19960TIP3    H281296   2.109   3.204   3.029 -0.5873  0.8826 -1.2772
19961TIP3   OH281297   0.660   5.369  12.827 -0.0972 -0.0800 -0.4047
19961TIP3    H181298   0.640   5.461  12.844 -0.5166 -0.3150  0.4669
19961TIP3    H281299   0.734   5.349  12.885 -0.1067 -0.3272 -0.4763
19962TIP3   OH281300   4.916   5.089  11.436 -0.1756 -0.1468  0.1275
19962TIP3    H181301   4.910   5.110  11.529 -1.1950  0.0518  0.0178
19962TIP3    H281302   4.928   4.994  11.433 -0.1087 -0.1472  0.4624
19963TIP3   OH281303   1.476   4.343  10.983 -0.0089  0.2154 -0.3215
19963TIP3    H181304   1.546   4.380  10.929  0.0855 -1.3000 -1.2734
19963TIP3    H281305   1.395   4.372  10.940  0.0676 -2.0644 -2.0723
19964TIP3   OH281306   0.498   3.466  14.520  0.5372  0.0260 -0.2864
19964TIP3    H181307   0.563   3.433  14.581  1.0954  0.3807 -0.6826
19964TIP3    H281308   0.435   3.395  14.511  0.5204 -0.0737  0.5987
19965TIP3   OH281309   5.346   0.452  12.368 -0.0072  0.2542  0.0321
19965TIP3    H181310   5.359   0.422  12.278 -0.4876 -0.3908  0.1722
19965TIP3    H281311   5.429   0.433  12.412  0.1022  0.2346 -0.1810
19966TIP3   OH281312   1.527   1.265  13.054 -0.0241 -0.2366 -0.2082
19966TIP3    H181313   1.446   1.271  13.003 -0.1494 -1.1257 -0.1272
19966TIP3    H281314   1.499   1.236  13.140  0.4613 -1.4129 -0.4381
19967TIP3   OH281315   4.161   2.440  16.786  0.4887 -0.6115 -0.4120
19967TIP3    H181316   4.078   2.413  16.826 -0.9512  1.7135 -1.6568
19967TIP3    H281317   4.171   2.532  16.812  2.4692 -0.7453 -0.6443
19968TIP3   OH281318   6.333   0.122  15.880 -0.2764 -0.1934  0.0430
19968TIP3    H181319   6.290   0.086  15.803  1.2298  1.2272 -1.5049
19968TIP3    H281320   6.391   0.052  15.910 -0.9007 -0.7673 -0.0845
19969TIP3   OH281321   0.129   6.404  14.673 -0.1921  0.1544  0.1950
19969TIP3    H181322   0.181   6.367  14.745 -1.3044  0.2742  1.0800
19969TIP3    H281323   0.076   6.472  14.715  2.5677  3.5394 -1.5514
19970TIP3   OH281324   2.040   2.300  12.389  0.5060  0.5076  0.5690
19970TIP3    H181325   1.952   2.267  12.374  0.5924  0.5766 -0.0896
19970TIP3    H281326   2.042   2.321  12.483  1.0493 -3.2245  1.4849
19971TIP3   OH281327   5.198   1.400  11.853  0.3248 -0.2862 -0.2361
19971TIP3    H181328   5.240   1.482  11.827  0.1712  0.1055  0.7665
19971TIP3    H281329   5.263   1.332  11.832  1.5299  0.3271  1.4760
19972TIP3   OH281330   0.030   2.363   1.583 -0.5598  0.7016 -0.3428
19972TIP3    H181331   0.109   2.376   1.636  0.0084 -0.3348 -0.9288
19972TIP3    H281332  -0.016   2.291   1.625 -1.2498  1.3653  0.0506
19973TIP3   OH281333   6.070   1.098   5.942  0.2128  0.2610  0.5829
19973TIP3    H181334   5.985   1.111   5.900  0.4186 -1.8647 -0.5612
19973TIP3    H281335   6.050   1.049   6.022  0.5242 -1.7894 -0.5787
19974TIP3   OH281336   0.304   3.250  15.070  0.3286 -0.2708 -0.7119
19974TIP3    H181337   0.214   3.219  15.069  0.6119 -1.0942 -2.7924
19974TIP3    H281338   0.316   3.294  14.986  1.3881  1.3127  0.2110
19975TIP3   OH281339   6.203   0.073  15.440  0.6610  0.0065 -0.6081
19975TIP3    H181340   6.132   0.132  15.416 -1.1769 -1.1032  1.8673
19975TIP3    H281341   6.254   0.122  15.506  0.3831 -0.3522 -0.1239
19976TIP3   OH281342   4.176   1.323  16.894  0.1629 -0.4903 -0.1197
19976TIP3    H181343   4.214   1.405  16.927 -0.1698 -0.3287 -0.1377
19976TIP3    H281344   4.150   1.343  16.804  2.2440 -1.3049 -0.9218
19977TIP3   OH281345   2.562   2.870   2.485 -0.4076  0.3008 -0.0271
19977TIP3    H181346   2.594   2.825   2.407  1.0684 -0.4033  0.9538
19977TIP3    H281347   2.640   2.883   2.539 -1.5916 -0.3664  1.9012
19978TIP3   OH281348   2.077   5.424  14.682 -0.3605 -0.1908 -0.1955
19978TIP3    H181349   2.149   5.474  14.721  1.2572 -2.5405 -0.0779
19978TIP3    H281350   2.096   5.426  14.588 -0.8820  0.3045 -0.2906
19979LIG     O181351   1.729   1.963  16.767  0.0026 -0.3330  0.1873
19979LIG     O281352   1.783   1.548  16.574  1.1362  0.7390 -0.1203
19979LIG     N181353   1.569   1.607  16.616  0.4172 -0.2129  0.0798
19979LIG     N281354   1.431   1.879  16.796  0.4894  0.0011  0.1901
19979LIG     N381355   1.754   1.756  16.668  0.3739 -0.1173  0.6554
19979LIG     N481356   1.357   1.674  16.727 -0.2634 -0.3489  0.5451
19979LIG     C181357   1.537   1.819  16.737 -0.1033  0.1324 -0.3501
19979LIG     C281358   1.487   1.695  16.688 -0.3775 -0.0820  0.1706
19979LIG     C381359   1.675   1.859  16.723 -0.2524 -0.1681  0.2464
19979LIG     C481360   1.705   1.631  16.614  0.4207  0.1936 -0.0335
19979LIG     C581361   1.330   1.783  16.791 -0.2410 -0.9623 -0.4661
19979LIG     C681362   1.522   1.476  16.566  0.5221 -0.5113 -0.0839
19979LIG     C781363   1.424   2.011  16.853 -0.4010 -0.4793  0.0623
19979LIG     C881364   1.896   1.766  16.658  0.7011 -0.1777 -0.4102
19979LIG     H181365   1.234   1.800  16.839 -0.1673 -0.5956 -0.4455
19979LIG     H281366   1.536   1.462  16.457  1.5087 -0.9383  0.0949
19979LIG     H381367   1.414   1.464  16.589  0.1733  1.6167 -0.5148
19979LIG     H481368   1.580   1.400  16.623  1.3170 -2.3733 -3.2122
19979LIG     H581369   1.508   2.042  16.919 -2.3347  0.3404  2.2302
19979LIG     H681370   1.332   2.028  16.913 -2.6161 -1.9430 -2.8162
19979LIG     H781371   1.433   2.091  16.776  3.1964  0.7599  1.6692
19979LIG     H881372   1.934   1.783  16.555 -0.3988 -2.3765 -1.2158
19979LIG     H981373   1.943   1.672  16.693 -1.2457 -0.1277  2.5104
19979LIG    H1081374   1.945   1.835  16.730  2.5067 -2.0295  0.1952
   6.78697   6.78697  17.23950
